/*--------------------------------*- C++ -*----------------------------------*\
| =========                 |                                                 |
| \\      /  F ield         | OpenFOAM: The Open Source CFD Toolbox           |
|  \\    /   O peration     | Version:  v1912                                 |
|   \\  /    A nd           | Website:  www.openfoam.com                      |
|    \\/     M anipulation  |                                                 |
\*---------------------------------------------------------------------------*/
FoamFile
{
    version     2.0;
    format      ascii;
    class       volScalarField;
    location    "0.17";
    object      omega;
}
// * * * * * * * * * * * * * * * * * * * * * * * * * * * * * * * * * * * * * //

dimensions      [0 0 -1 0 0 0 0];


internalField   nonuniform List<scalar> 
12556
(
31.93088174
31.93170398
31.93263007
31.9334966
31.96663963
31.96741644
31.96821745
31.96989502
31.97330073
31.97915402
31.98751687
31.99646323
32.00263316
32.0030621
31.99669226
31.98815596
31.98012811
31.97363139
31.9706776
31.96829151
31.93466052
31.93327213
31.93206703
31.9310704
31.79411428
31.79671253
31.79939674
31.80185093
31.83589691
31.83884763
31.84351579
31.86630374
31.88211512
31.90952531
31.94938323
31.99506845
32.02396228
32.02747384
32.0001293
31.95955854
31.92086403
31.89101345
31.85695952
31.84475814
31.80614191
31.80202633
31.79851914
31.7954309
31.65939741
31.66387355
31.66856716
31.67267456
31.70759233
31.71402857
31.72519399
31.75814685
31.79640414
31.85878873
31.94996641
32.05253981
32.10902769
32.12261109
32.0614937
31.97167111
31.88352153
31.8170357
31.75550177
31.72853399
31.68230472
31.67423034
31.66791
31.66286946
31.52583808
31.53194608
31.5383523
31.5444494
31.58173942
31.59416274
31.6180684
31.6714507
31.7484874
31.88337058
32.08194612
32.29525064
32.41667986
32.42508325
32.27524671
32.09057431
31.91462764
31.78185988
31.67742908
31.62564715
31.56386396
31.55040521
31.54051498
31.53294504
31.39486889
31.40269919
31.41120728
31.42012784
31.46042281
31.48214354
31.52751707
31.61318536
31.76650359
32.05830025
32.50495766
33.00087845
33.3978317
33.363582
32.91011337
32.451109
32.07729454
31.81203339
31.63224373
31.54053684
31.45366889
31.43039664
31.41561847
31.40537992
31.26474619
31.27419592
31.28487954
31.29767987
31.34472519
31.38119312
31.4598028
31.59353666
31.88703576
32.49286401
33.63464778
35.53560279
37.10334604
36.5247842
34.64887191
33.33114295
32.47678037
31.94700444
31.62980615
31.47628103
31.35223036
31.31369494
31.29230523
31.27835564
31.13804782
31.14952197
31.16332654
31.18140705
31.23594999
31.29262985
31.41393639
31.62348342
32.13929433
33.33477215
36.34056883
45.76818439
54.81106218
50.32291163
39.23288451
35.17972397
33.2369819
32.22974745
31.6701925
31.43396645
31.25900254
31.2006634
31.1702476
31.15217552
31.01302084
31.02653135
31.04396226
31.06940436
31.13582585
31.2180652
31.39198881
31.70505563
32.51167509
34.55895521
40.97957749
71.50664584
94.51067237
49.60558238
38.40348092
34.43587573
32.67170416
31.7705495
31.41075438
31.17508874
31.09198882
31.04991094
31.0267573
30.89406989
30.91039387
30.93287226
30.96831579
31.04454485
31.15814141
31.39619345
31.83254786
32.95794489
35.84235116
45.03466514
92.1947158
194.5739035
64.41793781
42.71513252
35.97629883
33.2333619
31.91270806
31.40573728
31.10011377
30.98929638
30.93359582
30.90484763
30.77961682
30.79857851
30.82625518
30.8725172
30.96365122
31.11159213
31.41761958
31.98522396
33.39906706
36.8889178
47.30897069
98.48054428
243.1352658
77.02710847
47.023402
37.555801
33.80923009
32.07518065
31.41321477
31.03463597
30.89459023
30.82373388
30.78841387
30.6739776
30.69652324
30.73104722
30.79082594
30.89308918
31.07670217
31.45540819
32.15012291
33.80253302
37.6882859
48.75825404
107.2737641
239.5891874
84.14112397
50.25026404
38.86274121
34.33722347
32.23023736
31.42963533
30.97767996
30.80964912
30.72351818
30.68141059
30.57461478
30.60011393
30.64052353
30.71273983
30.83145501
31.05113513
31.50098082
32.31194087
34.14857844
38.30796029
49.99524425
119.049441
218.6166452
86.55896563
52.04726922
39.71635515
34.72432643
32.35513045
31.44649253
30.92953356
30.73442538
30.63365427
30.58430852
30.48429469
30.51369981
30.5621563
30.64825866
30.77612149
31.03029659
31.54335456
32.45609341
34.42533648
38.77295823
51.34092801
127.2554129
1260.774022
185.1622137
85.96203641
52.58261661
40.06638605
34.94428173
32.43608
31.45560851
30.88466771
30.66809031
30.55350886
30.49769987
30.39845248
30.43126883
30.48679451
30.58451647
30.73325541
31.02662524
31.61961914
32.61752762
34.7081004
39.27387882
53.11207152
168.3090191
675.6067887
172.3013472
84.02790239
52.10655515
40.0105645
35.02223218
32.4745332
31.45056742
30.83884856
30.60654277
30.47978613
30.41765573
30.31859482
30.35481557
30.41668092
30.52444499
30.68594768
31.00967704
31.65882996
32.75297591
34.96979418
39.67670818
54.31660251
309.6445335
474.4494831
159.652287
80.21443428
50.91805249
39.66770859
34.98672461
32.46247838
31.42782052
30.79103493
30.54678444
30.41007276
30.34313804
30.23904392
30.27839557
30.34594314
30.46344068
30.63790825
30.98722285
31.68534462
32.90662777
35.38244844
40.55361562
57.51062406
515.2481554
402.097947
144.4854353
74.77508147
49.18752899
39.17315142
34.85678698
32.41166306
31.3862799
30.7352914
30.48290422
30.33890624
30.26748707
30.16194743
30.2043724
30.2766506
30.40157711
30.58642928
30.95668763
31.69637754
33.04110033
35.98251942
42.41799955
68.2308512
916.2715659
298.4522575
124.2136032
68.15530957
47.24574507
38.7060132
34.68274474
32.32746032
31.32794833
30.67250784
30.41561517
30.26582608
30.19108057
30.08076936
30.12586523
30.20230286
30.33439489
30.52963602
30.91623819
31.69088874
33.10521377
36.54754681
45.39446727
109.2547297
858.4059347
216.946655
104.8402649
62.40975918
45.77916088
38.28392946
34.48233548
32.22020585
31.24980329
30.59661794
30.33773002
30.18534275
30.10819437
29.99977137
30.04736136
30.12721497
30.26412797
30.46635887
30.86544657
31.66842883
33.1396283
36.79790446
48.32751191
185.2706316
667.9452043
176.8505359
93.06818761
59.40317864
44.88440295
37.87163066
34.26349614
32.09503842
31.15639948
30.51106872
30.25280942
30.09918139
30.02101029
29.91174002
29.96122512
30.04411803
30.18620508
30.39617632
30.80456331
31.6298258
33.1495852
37.00024141
50.66286851
213.2962776
550.2560749
162.0514355
88.80015357
57.73477169
44.10355563
37.47897144
34.03777765
31.9575346
31.05020927
30.41386971
30.15724284
30.00366485
29.92533997
29.8241145
29.87514355
29.96031729
30.10511693
30.31893743
30.73427035
31.57740924
33.14006851
37.1848312
53.6936812
229.6218808
469.1099529
151.9357164
85.42157774
56.40238726
43.42450647
37.11060081
33.81183842
31.81171675
30.93364292
30.3092532
30.05610753
29.90365295
29.82574084
29.72787024
29.77974932
29.86687249
30.01529949
30.23502416
30.65555441
31.51308925
33.11317894
37.37367961
56.96532849
238.8695123
405.0112608
143.6291033
82.58335303
55.30218105
42.84144165
36.76930677
33.59002052
31.66057709
30.80901729
30.19490802
29.94498825
29.79422545
29.7172793
29.63409387
29.68646745
29.77469417
29.92391485
30.14479451
30.5694597
31.43888346
33.07378491
37.61053183
59.86331239
242.8498029
355.2320672
136.6853649
80.15796118
54.36102118
42.34238585
36.45689159
33.3753945
31.50670601
30.67840948
30.0767547
29.83142659
29.68290702
29.60717535
29.53024552
29.58255122
29.67175641
29.82347326
30.04917394
30.47713182
31.35703488
33.02780717
37.93646759
62.23231939
243.4874362
316.593887
130.7870739
78.05666327
53.5369244
41.9101541
36.17285681
33.16985852
31.35219146
30.54369644
29.95080983
29.70876644
29.56252063
29.48829638
29.43213351
29.48417041
29.57356869
29.72455247
29.94885875
30.37981664
31.26985109
32.98221591
38.34275615
64.11372903
241.1648094
286.3366197
125.7038023
76.21571445
52.80563803
41.5292069
35.91447753
32.97419135
31.19854071
30.40639211
29.82535313
29.58819744
29.44453873
29.37185894
29.32207061
29.37345757
29.46315737
29.61606385
29.845097
30.27871549
31.1793739
32.94322778
38.78117458
65.56124043
236.391894
262.2357695
121.2673168
74.58751072
52.15111317
41.188262
35.67811498
32.78822784
31.04668204
30.26778678
29.69268123
29.45810768
29.31671512
29.24569572
29.22254642
29.27324707
29.36252839
29.51345283
29.7384253
30.17485913
31.08724449
32.91469594
39.20581484
66.62213046
229.9291727
242.8204303
117.3570054
73.13589372
51.56140297
40.87957552
35.46033777
32.61129193
30.89713935
30.12873757
29.56485883
29.33514125
29.19625893
29.12679181
29.10748847
29.15723285
29.2463624
29.39907563
29.63005898
30.06907349
30.9947601
32.89747862
39.58968548
67.34315671
222.3958095
226.9587449
113.8792113
71.83160403
51.02660364
40.59754509
35.25823708
32.442507
30.75014902
29.99000311
29.42781914
29.19941628
29.06249123
28.99459249
29.00946499
29.05834926
29.14670981
29.29644123
29.52004709
29.96204215
30.90297127
32.88973531
39.92101987
67.77103029
214.2643415
213.7891637
110.7579487
70.65051443
50.53845759
40.33794213
35.06946667
32.28103526
30.60581642
29.85189198
29.30127274
29.07763058
28.94294523
28.8764249
28.88902352
28.93684249
29.02482922
29.17666613
29.40962263
29.85432349
30.81265211
32.88817378
40.19619115
67.95123771
205.8615399
202.6815354
107.9341163
69.57294473
50.0898323
40.0972522
34.89204563
32.12608854
30.46415981
29.71495142
29.16068342
28.9371466
28.80415125
28.73904158
28.79504675
28.8420013
28.92914937
29.0774378
29.29822503
29.74638129
30.72430649
32.8891894
40.41593323
67.91896961
197.43904
193.1592589
105.3596002
68.58192001
49.67413376
39.87232109
34.72424278
31.97694191
30.32516337
29.57918789
29.03969058
28.82102828
28.68993144
28.62596397
28.6681715
28.71402893
28.80059634
28.95114457
29.18745522
29.63865033
30.63820825
32.8897733
40.58384552
67.7166374
189.1973721
184.8535663
102.9915015
67.66187528
49.28520635
39.66027715
34.56451595
31.83289673
30.18879323
29.44520563
28.89399138
28.6744822
28.54491953
28.48221393
28.58178844
28.62685732
28.71266351
28.85975109
29.07610465
29.53156925
30.5544336
32.88765476
40.70466356
67.37970744
181.2499039
177.4926714
100.7929157
66.79907089
48.91750418
39.45851654
34.41146543
31.6932931
30.05507926
29.31270374
28.78376784
28.56868188
28.44048767
28.37864943
28.44683704
28.49073837
28.57558278
28.72379692
28.96679316
29.42572977
30.47303581
32.88123428
40.78305994
66.93463294
173.6605713
170.8831946
98.73521529
65.98215408
48.56626488
39.26477897
34.26388991
31.55760125
29.92428864
29.18278256
28.62695588
28.41099126
28.28421963
28.22350738
28.37242409
28.41568067
28.49991257
28.64668163
28.85775249
29.32202847
30.39439974
32.86958695
40.82387146
66.40609729
166.4787585
164.8835616
96.79749246
65.20230887
48.22755977
39.07715269
34.12075821
31.42528281
29.79732202
29.05547658
28.53625542
28.32211821
28.19613736
28.13601364
28.19985433
28.24170997
28.32466252
28.47171491
28.75421651
29.22225441
30.32002173
32.85251542
40.83223727
65.82384187
159.7678349
159.3976693
94.97411702
64.45893856
47.90073288
38.89494715
33.98167106
31.296169
29.6768383
28.93486915
28.33518877
28.12077162
27.99637653
27.93749088
91.20272734
235.3007578
109.5194599
97.71776356
300.0440671
244.6155343
105.8882347
289.479027
302.3404735
117.8147639
255.2680337
285.0617375
126.2419263
1827.962508
1340.217026
226.7759592
250.8210962
150.3758154
872.396627
1752.710814
707.4431138
220.3425813
224.0901258
66.78876335
54.22986652
98.69529351
49.41474384
890.1017982
271.5314627
183.1360555
71.92287004
55.80089267
46.87338096
82.82574898
78.40423357
3263.709196
2302.593245
240.4754967
90.4089996
77.19638036
48.47336435
88.06068289
83.38780359
101.1183855
281.0494708
260.765762
1673.225005
2421.895139
241.6793206
100.3304644
93.71739155
49.77604175
96.13515271
88.8918419
111.6579511
373.0286147
311.2098778
830.4695006
1172.509647
51.1215389
106.5178597
97.11667945
120.5451329
527.2070327
438.0968692
3927.721253
501.3226377
590.1454835
52.92130336
125.3446777
108.0004187
134.5854913
1040.276271
718.3366792
153.7486513
621.7578888
853.8204199
244.1635219
276.1883804
146.2744571
237.2340968
2238.229915
944.8731794
182.4072314
732.7733397
1495.507581
258.3388092
241.3189787
95.24910714
312.4125421
317.9244457
281.007545
310.237276
2457.73213
3260.241836
275.3428839
2197.135101
1834.24503
1548.771756
2192.706161
271.9368063
308.507667
284.4372056
102.1605807
355.5629428
392.7476375
319.7112191
352.6218524
1236.167411
1631.044467
298.5646118
1160.115695
865.6186731
1808.421075
1215.827096
301.0201245
434.3777429
375.9480912
113.0760878
449.7246694
538.8229037
395.1779166
446.3257091
610.5461105
792.7945683
709.0448557
535.6297879
120.7393574
4609.819777
706.5911057
1025.713178
543.1975712
692.4062582
4929.253966
457.1139136
492.806163
3665.329708
8547.003882
1045.937585
135.8291079
1068.217384
1598.402742
9260.931506
1032.82888
1578.54048
1122.105007
44.22977921
77.47086745
62.91236532
83.36188995
190.8732431
125.9323089
6666.491528
1001.440808
94.76922591
238.9096193
217.7077615
7695.282288
221.7633442
103.2382081
101.5948494
6860.444003
1218.205798
1391.649866
887.8551821
402.8229214
441.0706497
215.1698869
195.1588095
85.98517172
1589.424972
373.0226732
838.0566076
218.4815593
643.5243715
167.4902372
1429.656768
2006.95668
267.5241628
633.6533383
533.9271542
831.1597421
653.5963589
272.2605712
2892.366585
5422.713114
1465.144359
96.93514835
75.17503068
129.8926897
223.6832541
93.81937614
99.70614184
10459.01182
607.5248656
6831.685624
729.1037114
4587.575309
540.9999279
2654.15499
2616.713883
1979.447678
2031.736658
4132.193498
6833.422529
957.0983105
4787.69554
2673.055911
7654.388968
5275.340986
1007.056711
469.4857887
200.7096304
207.6407924
994.569585
1147.382818
6294.361878
764.6291498
246.9172042
258.3621156
232.8853167
242.51637
762.3250479
1495.469476
1592.740374
259.4453157
1070.048229
925.3278963
1500.23103
1068.439214
263.4183544
195.3133147
639.781801
314.729875
840.908445
673.1799398
209.7852956
866.8744591
1145.549888
1535.405977
1448.31588
308.8200378
1553.200823
308.8877224
295.7199791
1541.645364
1515.058661
1552.308471
1544.204902
299.6543372
2649.818613
2683.83776
1988.206326
587.9461743
574.9388664
587.4221845
589.8719013
1968.602234
1838.953334
523.0942032
477.3864493
567.3304195
536.9105837
1875.084311
372.617065
375.035479
333.4011569
335.411012
1336.73604
7881.188004
1369.332638
475.6983795
481.7453924
420.5594888
424.0455462
2480.831414
1632.403525
700.5317702
2181.606944
3884.552987
580.7070477
220.7138102
229.5554352
210.1541202
217.9669149
573.193765
3138.541213
744.6414199
755.3872199
574.6784244
578.6046834
6976.613402
2345.131405
848.2980865
952.9494814
263.1973992
271.2028174
1248.481407
2497.850677
3620.060842
4368.263224
1058.758804
7143.455886
4524.745602
6395.318056
1054.767025
1352.128367
5141.5839
3990.250722
6348.045347
3873.72892
4580.999449
53.86364201
120.9921682
126.8750731
174.6853271
4364.180368
8182.794869
495.2743801
201.3299854
215.6299139
1795.187286
4932.303978
5948.964183
739.430159
815.5418525
2128.00557
367.3984606
390.4428842
856.906126
219.9280683
151.6283395
326.76633
790.7657269
199.2735635
234.8691743
3081.921282
8510.376603
8865.869287
2463.056103
1807.833664
5467.030817
3985.185912
8931.617817
8622.790039
2293.714222
349.1271112
173.2804891
177.5719309
168.0075853
171.920665
343.6195815
192.6406865
198.6763565
465.4763331
967.6366161
419.7205434
435.3492766
7739.284798
3527.525064
810.6951983
1925.473579
7626.39531
8447.107978
1004.630016
377.5241854
312.5419681
458.1487792
400.1106912
1056.513118
2544.634152
9002.342448
8971.300746
3066.977376
297.5188268
163.2103325
166.7749121
737.5847385
727.5817319
384.8748607
3723.882618
3357.978144
1517.813729
1022.645834
509.5712049
533.9173788
1570.259284
570.2489196
584.1995006
542.5419327
563.5645407
1531.705264
401.2450123
185.4697424
190.7949253
179.0671506
183.7930305
397.3482177
459.9737335
1008.022833
1000.941069
1533.688608
1493.174882
520.4382391
404.8605311
769.1712185
739.197979
997.9197443
993.6883437
436.6288211
673.3427877
1553.506886
1199.555422
6936.728605
3934.765428
726.4603375
879.6152224
556.2262628
1561.320946
1540.054619
1560.85598
616.8558449
6114.748134
8539.196495
332.247386
361.8562557
440.9775663
454.3130105
1047.475236
3852.5221
2945.48519
943.3146435
1606.638454
7732.371834
3557.348118
3505.155531
15734.37361
1039.522522
1508.198907
3549.367239
4035.161513
3217.16136
7706.380815
7805.270964
2876.821361
3581.521627
7056.669424
1616.724445
1555.611139
604.0516239
2105.816176
1016.867676
2048.833858
662.0580242
6015.060646
4904.713906
1687.808483
6533.874862
7283.053003
5653.820389
4715.88039
2397.235591
5738.146212
6718.017339
4673.174164
5531.230816
6977.925936
3887.175934
4429.679702
3295.559351
3700.416644
6312.756869
10257.88689
2502.945573
1436.690748
4258.807084
2791.954005
1275.651081
754.9666349
2331.120627
9213.479129
11730.53522
2924.947728
2501.36558
8960.912408
9245.031763
6029.784764
5647.978753
1857.157148
8549.342023
8510.213954
6684.213254
8277.248064
8515.151087
2224.141495
8732.479429
6211.016361
5309.029316
5710.489768
3787.116491
1482.390756
1628.631935
6353.589245
1970.733479
2288.065455
1688.073614
1874.537995
6086.204919
5207.553439
2095.211821
2610.874256
396.4728143
414.4028332
887.6781762
739.7958018
379.4176708
392.0681612
1583.069135
1588.726521
1073.486614
447.9281008
464.4938456
426.3987182
443.0812812
1069.709954
1101.063179
503.9651359
538.1748449
470.3723964
494.0784962
1109.600159
785.3279051
399.3537979
421.4080577
1087.796855
1110.798727
5324.075797
5490.853278
1818.658817
8150.519801
8308.677432
10937.54908
5598.10862
4747.452326
8013.178997
5504.673702
1195.478244
3819.408697
5120.222881
1575.744186
614.9917451
675.5738469
594.9656194
605.3682996
1548.963629
717.2014566
723.6931173
694.967
714.8327871
1536.050111
560.8190978
569.5688076
545.2885314
557.7036277
1531.628035
1548.213328
583.5813353
591.7146469
572.4275731
580.8325098
1549.042482
8950.612444
9003.938589
2573.509174
2929.149018
9400.627167
8930.103926
988.3172956
989.5084182
969.291064
988.0299998
996.204846
1004.734493
990.1923006
994.6070788
733.9775586
740.7522418
725.6857862
731.7443021
774.0009908
930.8249394
744.2801033
753.6358433
3151.47214
3808.541084
2405.136402
2891.680839
8135.920463
5810.510822
6327.443794
4110.968763
5617.973982
1017.914865
1012.542087
463.6924605
1567.234768
1570.405566
1541.358908
1559.82647
1609.887078
510.5104722
1460.705779
1065.588654
970.3847677
787.8931971
408.515478
1045.417714
1461.466825
1004.870572
1054.65523
1512.911818
1531.943917
1478.797343
1504.814955
433.4870184
992.5860749
986.1735527
7353.666346
2753.187548
7380.482538
6611.173039
7365.430276
2998.837258
7046.638306
3683.794332
6847.253577
6089.888336
732.0189312
802.6517466
1589.150827
1565.832114
560.3223444
602.5311615
1643.90788
1590.971734
6878.959
1080.656706
463.9541719
499.0917036
6167.264832
6892.127803
1664.958695
7633.519171
6082.924049
4029.053018
1040.42523
7256.818326
5045.410111
7554.857552
5311.329112
1457.779705
86.4330809
51.05225827
40.89051193
7073.495754
7060.07367
204.9567079
102.1578645
103.2043753
7298.459955
2215.646313
4493.885862
3919.305635
520.0409292
431.4842859
239.9787024
632.8603036
377.1497496
987.109907
3644.714348
577.3034885
703.484697
67.65453567
83.51425987
193.5063683
772.0045662
1707.022405
2618.733449
271.5824588
153.2303713
157.1891428
147.8120415
151.8728491
268.7395067
1601.466073
1903.289563
4835.762853
1137.711435
991.5062891
548.1311067
364.086467
375.6029456
735.61924
2863.778271
3676.436782
1117.292027
158.4209805
162.0685546
294.2854261
363.0686358
703.6836003
682.3149724
662.5995563
602.1454293
344.30654
639.1448653
348.1072178
360.207273
5743.005572
5531.325088
4393.546625
1555.193794
1536.282848
1006.365422
5281.049732
6809.255228
6242.601694
3057.901974
1283.809564
1510.087463
1601.163758
1036.428868
1583.453112
1572.500446
1576.194742
7231.443797
7537.426845
5255.450167
5575.10212
6789.486694
3345.985925
2696.333855
1238.585917
1597.55519
289.6787617
223.0267852
447.10272
1607.02097
4508.452973
3623.262248
6789.077167
7099.219945
7175.549373
6211.924947
6904.365288
139.3443921
184.3746617
598.2867071
8131.204076
4943.492961
3592.088002
9918.039816
7854.062873
4428.644089
6205.667243
5863.646014
7867.558989
7576.970329
6281.702353
1330.398044
1446.037362
3484.704741
7778.36534
5322.221894
5711.166663
5784.303179
4522.197811
4847.384549
1538.873844
1973.970363
1594.131479
1071.668528
769.6413917
775.5353181
1469.336875
973.2936831
1012.121178
779.8449265
787.5485117
1074.027864
359.9187304
392.3551894
764.1845729
947.9081567
1555.442552
1188.58483
1652.64986
1702.221743
1155.36053
1842.690356
1393.113999
1437.543729
1034.284995
1034.485365
1554.654811
1508.831334
1516.763326
1464.085233
1480.003319
1538.347121
1023.901474
1024.23973
1025.492409
1026.968033
1522.407324
1550.763143
1030.653931
1031.719486
1024.951524
1025.77468
1545.882458
714.3078767
706.6225246
365.5204372
382.456121
724.8983391
716.7884243
577.2555953
568.5498956
327.3293431
1529.754753
1530.254103
1518.252255
1519.921668
1828.964693
1533.314393
1533.297096
341.9377577
592.2844026
580.8808723
8072.799879
8015.317999
5907.582434
6155.146143
7842.866079
8106.836711
8306.078189
1482.131917
3210.631918
2608.531046
333.9573287
344.2513149
614.2119042
558.3627262
322.905731
331.0702623
1035.963827
1036.260742
742.107876
757.2681004
1041.606058
1045.734436
6916.104714
1318.853584
885.632379
874.9766803
7634.167507
2034.227213
3931.939917
5707.549752
5135.350671
1637.50852
1620.720602
1047.541629
7003.187903
7504.714025
7196.745356
5976.591626
1104.591577
1675.27474
1628.034245
4532.785421
2749.29704
3162.442135
6963.584691
6883.994478
5927.479257
5671.562646
4339.915001
2033.833281
2721.350279
2851.263302
5312.724261
7098.991889
6386.919826
7189.118068
6963.420495
5696.401858
346.8865666
503.8317029
2054.079866
8563.486536
8335.616406
8756.410526
8694.243558
8684.315606
5288.547984
5283.336916
5284.47022
5284.592209
8724.64189
8895.549357
5321.251635
5380.353457
5065.615084
5239.234148
8969.518453
7977.087078
4852.468276
4357.398325
5253.491102
5140.264213
8212.433048
8972.697691
5527.873689
5585.836544
5438.72987
5480.202277
8979.810744
8933.577062
8785.495356
8870.883343
8639.54336
1006.946631
729.6388908
732.3673904
1522.098086
1004.740367
1007.339783
982.658673
999.8687046
1512.09323
6669.610502
6877.359598
6178.520926
6744.390307
1563.815181
1574.894467
1540.112986
1552.707057
1956.213136
959.2906372
1497.163318
1443.430074
1553.435775
1010.404026
1012.701316
1008.165328
1009.539969
1547.830922
1485.642809
1521.808455
1072.171791
1432.858687
1942.589413
7101.708548
6754.247669
5689.725099
6952.658855
807.5409987
1090.974565
13148.51489
1050.477288
744.5900299
746.2420445
1612.908356
7670.02169
8080.889521
10933.05199
5801.05631
5978.180442
1596.142848
1586.764332
1036.454644
1549.107668
4902.531191
8817.037517
5696.782383
6316.462519
4959.373536
2137.670785
7193.803762
4806.120653
7755.080291
7982.772859
6998.421785
5857.057439
6362.895659
1593.371227
1884.144709
2075.763311
1058.029526
1248.940835
1750.610558
1810.89733
1267.340337
1734.719885
2256.660818
7123.037925
7265.876449
7050.56394
6189.896506
6981.561388
6899.513688
6804.363553
4936.734593
6128.208307
5743.764615
6707.36323
6855.10345
5242.854387
5445.041182
5789.243848
6869.666136
5882.778433
4927.094135
5137.490075
7484.927041
5137.138847
7750.818278
3586.988411
5448.937671
7341.808946
8267.455028
7817.291778
9560.977378
5554.785389
5244.553362
7912.959522
5453.08762
9110.054334
9054.906087
5278.723127
5281.948288
5296.800674
5267.185126
9104.449141
5891.800356
3387.307321
3459.454909
8477.072969
8519.058177
7486.838597
8557.794635
8344.01389
8385.690521
8667.919211
8969.761663
7634.037979
4153.661569
4688.747735
3568.925808
3772.707574
6653.635288
7551.024909
6728.911465
4852.136216
7743.095657
7496.258013
7480.985541
5908.792654
7593.783932
7392.987936
4380.188251
4824.181897
7013.977836
1570.740524
1595.065558
829.4493341
903.1792852
1428.528493
1069.924959
789.708815
810.5538795
1649.737173
1626.003057
1040.84542
1754.275478
2089.586065
1108.307596
1670.1895
1668.735129
5303.284812
3546.168098
3495.781703
3895.93798
3771.500265
5589.597495
8765.504735
8174.894761
5281.779034
7985.287166
8328.403224
7625.451074
7938.291311
5214.845256
7847.433302
7688.084716
10336.48285
7352.928815
1078.165307
1069.926487
1511.503026
1555.861286
1040.536722
1036.120558
1499.358953
1505.63332
1487.927979
1494.669769
1024.972842
1024.438609
1539.011225
1527.521151
1026.256754
1025.476567
1028.025911
1028.889502
1548.983255
1549.036079
1026.905333
1027.574371
8987.769648
5745.885414
5806.529508
5628.865178
5681.898711
8964.344028
9008.042129
6497.790192
7557.898267
5906.567202
6087.75822
8961.465483
988.7806544
1491.58995
1484.812351
1500.831783
1496.582116
989.0386458
983.5266092
1460.809804
1446.562765
1478.381797
1470.509947
987.0383918
999.2649802
1528.936932
1522.757374
1538.328995
1532.127327
1000.604288
991.172813
1509.069553
1505.51509
1518.944602
1513.362251
992.4308002
1525.925844
1527.225098
736.1129689
1006.600936
1005.920862
1008.777793
1008.251799
738.7295131
1522.564448
1524.034363
1562.292726
1492.177528
792.3286423
1048.188753
1057.168987
1417.784948
1372.917064
861.551388
745.6527025
1011.468601
1011.622806
1014.660158
1018.643222
752.9846496
1538.396308
1532.155377
7938.993794
7829.975427
7952.897941
6451.597545
7144.257259
5984.792683
8227.749082
8298.309191
8269.931933
8274.4842
6114.896439
4609.639008
7316.764162
6561.979963
8045.268103
8149.584711
5194.046285
1021.880971
747.7707185
748.9298563
737.1428218
738.977098
1012.588758
1567.508036
1577.822592
1545.444226
1557.775921
1528.457027
1905.978232
1407.157811
863.8204761
939.8314178
771.2659458
790.7871602
1055.969732
1381.898893
1857.310579
1500.622108
1430.712022
1013.459226
1547.619794
1538.508605
1576.478809
1541.315816
1009.665182
1518.61923
1527.018918
1488.894709
1497.913662
7160.727417
5591.309632
5807.608211
4795.620792
5246.308648
7237.974706
7439.048679
7291.40007
6122.156221
6644.340165
7631.949037
6659.830917
5503.355008
5684.908171
4876.868362
5173.248866
6798.857039
1599.979261
1600.924867
1586.599412
1589.494954
1080.274417
1090.702493
782.0147438
1651.147539
1566.569197
1614.925099
1606.93854
1578.03415
1018.809484
1024.629301
1013.905872
1017.673075
1575.085415
1604.677594
1034.363883
1082.642427
1025.567212
1037.154334
1607.819723
6718.104031
767.2364688
770.116824
1080.847943
6154.819159
7461.775935
7428.235944
7863.119963
7673.654172
6620.197424
1617.008884
6885.026109
5608.882499
5899.977968
1046.32697
1614.64655
1602.4381
7175.81105
7503.691402
7382.099224
6269.58034
6729.969154
7918.637875
7706.259662
5607.433969
7319.139253
6567.178928
1969.757336
1599.598026
1094.48163
31.78364167
31.8056238
31.8766914
31.81474967
31.85304167
31.90051761
31.86743579
31.92302115
31.93696185
31.94203757
32.00785622
31.98112362
32.02507893
32.06775526
32.01664677
32.07963409
32.08851548
32.02955673
32.0830761
32.05250472
32.01142933
32.03816715
31.98070609
31.97189597
31.96259488
31.90401216
31.93116597
31.88870635
31.84382334
31.89804048
31.69074288
31.73688076
31.78505454
31.7565071
31.83518595
31.84227769
31.86680915
31.98638917
31.92696322
32.03085585
32.17388464
32.02920623
32.20842274
32.29558407
32.10012349
32.32585822
32.32187752
32.12428341
32.29606331
32.23220339
32.07927467
32.20083309
32.0840296
31.99414113
32.04480406
31.93154676
31.9043239
31.89753484
31.80911553
31.83065801
31.62532937
31.71445173
31.72580546
31.75452665
31.92261159
31.84329066
31.9944451
32.25663981
32.02784718
32.3526688
32.67755763
32.24458165
32.78628394
32.99837121
32.416071
33.0937534
33.06916206
32.42146157
32.9622359
32.77865895
32.31746644
32.69510539
32.41538828
32.13713701
32.32513643
32.08647744
31.95604806
32.01749263
31.84485242
31.81027801
31.5930837
31.76300709
31.71755982
31.84510142
32.19318289
31.96982576
32.35042845
32.98481878
32.3798231
33.25033605
34.31533672
32.87272285
34.65348916
35.44497323
33.44419952
35.78596388
35.60014621
33.35492278
35.14423316
34.35439906
33.03064786
34.06052085
33.26909535
32.56120051
33.03606087
32.48884956
32.16002334
32.34234213
31.99843034
31.86960001
31.61072251
31.91455938
31.79127989
32.06602775
32.74957763
32.30092033
33.08232672
34.6508836
33.28124237
35.44983729
39.71263199
34.93932048
41.65975212
49.82133377
37.02806385
51.03437719
46.59867571
36.68111706
43.7526477
38.90990241
35.05113986
37.68491156
35.18367725
33.61092878
34.58811561
33.31068324
32.65206328
33.00033339
32.31329561
32.0578707
31.68135943
32.16868734
31.96789069
32.41529779
33.60543885
32.93357262
34.2383298
37.64230567
35.2775227
39.75279703
59.57209109
41.95219729
52.58210625
61.80183232
48.28684946
80.79426863
76.0281311
54.94630851
59.11088703
50.77172699
46.64990975
46.40258047
38.88675328
35.90963588
37.45950351
34.68563597
33.60901493
34.08138584
32.8304854
32.42212325
31.79778338
32.49057002
32.23941112
32.84410942
34.59035955
33.84150469
35.54537061
40.85152574
38.50767844
42.18817002
46.25429611
44.66915002
75.97527956
89.98746702
83.62346126
133.779024
88.0177854
71.04535484
60.67797511
44.36196308
40.11644812
41.61198462
36.60087706
35.13957552
35.57354753
33.52411014
32.98839778
31.94580907
32.84059726
32.57860164
33.2914337
35.47924452
34.82501149
36.65384006
43.00610503
41.48795477
45.74863576
50.84821459
49.96723336
93.22227533
112.7013141
111.234916
220.7018745
126.9004189
112.9992095
74.36822483
50.14778345
45.81859872
46.04978908
38.64914456
37.11975327
37.17227655
34.28288167
33.7119286
32.10977317
33.17900224
32.92702546
33.70684778
36.20176254
35.6747729
37.50915905
44.38365438
43.39519326
47.74512926
53.30043866
52.7502249
99.29110869
131.4025275
128.1195504
245.6142434
147.1856716
141.9543968
82.85435143
54.56115993
51.39615098
49.56004444
40.40848844
39.14765973
38.56055563
34.96739465
34.45200255
32.27457449
33.48405849
33.25871017
34.06903267
36.77504138
36.3569025
38.16971083
45.42615699
44.65144914
49.13291887
55.17707152
54.63447888
108.7280128
148.3355234
145.3864231
232.7527182
150.0395497