/*--------------------------------*- C++ -*----------------------------------*\
| =========                 |                                                 |
| \\      /  F ield         | OpenFOAM: The Open Source CFD Toolbox           |
|  \\    /   O peration     | Version:  v1912                                 |
|   \\  /    A nd           | Website:  www.openfoam.com                      |
|    \\/     M anipulation  |                                                 |
\*---------------------------------------------------------------------------*/
FoamFile
{
    version     2.0;
    format      ascii;
    class       surfaceScalarField;
    location    "0.47";
    object      meshPhi;
}
// * * * * * * * * * * * * * * * * * * * * * * * * * * * * * * * * * * * * * //

dimensions      [0 3 -1 0 0 0 0];
oriented        oriented;


internalField   nonuniform List<scalar> 
25162
(
0
0
0
0
0
0
0
0
0
0
0
0
0
0
0
0
0
0
0
0
0
0
0
0
0
0
0
0
0
0
0
0
0
0
0
0
0
0
0
0
0
0
0
0
0
0
0
0
0
0
0
0
0
0
0
0
0
0
0
0
0
0
0
0
0
0
0
0
0
0
0
0
0
0
0
0
0
0
0
0
0
0
0
0
0
0
0
0
0
0
0
0
0
0
0
0
0
0
0
0
0
0
0
0
-8.389128972e-09
3.008749531e-08
-3.369759377e-07
0
1.718783037e-08
2.865040416e-07
0
0
0
0
0
0
0
0
0
0
0
0
0
0
0
0
0
0
0
0
0
0
0
0
0
0
0
0
0
0
0
0
0
0
0
0
0
0
0
0
0
0
0
0
0
0
0
0
0
0
0
0
0
0
0
0
0
0
0
0
0
0
0
0
0
0
3.941842797e-08
-3.359206375e-07
-3.525321774e-06
2.12701764e-06
1.35041903e-05
-1.938759853e-05
-3.078964695e-05
2.751091818e-05
1.777699918e-05
-5.127822279e-05
-3.072239282e-05
5.749697433e-05
-2.243702958e-06
-6.666453221e-05
3.878762109e-06
6.599465077e-05
-1.859911347e-05
-5.299409995e-05
3.365199962e-05
4.566058948e-05
-8.903725202e-06
-2.029177099e-05
2.45193171e-05
1.259164861e-05
0
-3.63199805e-07
5.503105179e-07
0
0
0
0
0
0
0
0
0
0
0
0
0
0
0
0
0
0
0
0
0
0
0
0
0
0
0
0
0
0
0
0
0
0
0
0
0
0
0
0
0
0
0
0
0
0
0
0
0
0
0
1.889807858e-06
-3.882008786e-07
-9.389706659e-06
2.856897442e-06
6.298663217e-05
-2.53619366e-05
-9.608003002e-05
3.624257329e-05
0.0001148432133
-7.275892933e-05
-0.0001498491812
8.492229731e-05
8.294162388e-05
-0.0001166532148
-0.0001025058721
0.0001247041983
-1.168079265e-05
-0.0001381950979
1.513691818e-05
0.0001386587957
-9.900989516e-05
-0.0001269177802
0.0001251331597
0.0001187150313
-0.0001114071497
-8.366047065e-05
0.0001504075956
6.972257169e-05
-4.424004182e-05
-2.887448228e-05
7.455801284e-05
1.778155502e-05
0
-3.686109887e-07
1.486923386e-06
0
0
0
0
0
0
0
0
0
0
0
0
0
0
0
0
0
0
0
0
0
0
0
0
0
0
0
0
0
0
0
0
0
0
0
0
0
0
0
0
0
0
0
0
0
-6.293926686e-07
1.476525531e-08
7.117655517e-05
-2.182582121e-06
-0.000100675564
4.71924626e-06
0.0002160721467
-1.604944145e-05
-0.0002584980278
1.995111456e-05
0.0002592153848
-3.333761133e-05
-0.0002935531936
3.824021915e-05
0.0001581244173
-5.243565186e-05
-0.0001737478825
5.649681944e-05
-2.648430472e-05
-6.532912381e-05
2.997602038e-05
6.707189157e-05
-0.0002039831299
-6.822158699e-05
0.0002274583296
6.682881687e-05
-0.0002795686932
-5.522165274e-05
0.0003222718565
4.954431701e-05
-0.0002033097469
-2.262895181e-05
0.0002523191739
1.986601794e-05
-4.604199849e-05
-6.298717958e-06
7.295812762e-05
2.915526702e-06
0
0
0
0
0
0
0
0
0
0
0
0
0
0
0
0
0
0
0
0
0
0
0
0
0
0
0
0
0
0
0
0
0
0
0
0
0
0
0
0
0
0
1.847838315e-05
1.230945579e-06
-2.964066854e-05
-5.292669185e-06
0.0002067904734
3.363607661e-05
-0.0002402108682
-4.723511215e-05
0.0003863856202
9.600579009e-05
-0.0004204296605
-0.0001130003214
0.0003851189427
0.0001405284584
-0.000412030257
-0.0001415257677
0.0002070867404
0.0001419145597
-0.0002150592923
-0.0001396479611
-3.680073893e-05
0.0001379285644
3.741431488e-05
-0.0001374984721
-0.0002822542584
0.0001358179768
0.0002908568885
-0.00013167525
-0.0004513324003
0.0001262302722
0.0004753391526
-0.0001099520724
-0.0003948013123
6.988710009e-05
0.0004384523031
-5.886825024e-05
-0.0001718171824
2.804649769e-05
0.0002063112656
-1.9300027e-05
1.556356499e-06
-4.521893885e-06
7.984361848e-06
-2.738643852e-08
0
0
0
0
0
0
0
0
0
0
0
0
0
0
0
0
0
0
0
0
0
0
0
0
0
0
0
0
0
0
0
0
0
0
0
-5.54479057e-07
-2.157404496e-09
-9.295136196e-08
6.553076942e-05
1.402464154e-05
-7.842658661e-05
-3.178279621e-05
0.0003209475619
0.0001192933892
-0.0003437952141
-0.0001556825551
0.0005025258856
0.0002660151759
-0.0005217077003
-0.0002970067865
0.0004556628003
0.0003621728727
-0.0004601778937
-0.0003742038319
0.0002306694584
0.0003860212547
-0.000121760106
-0.0001235443508
-0.0001745027722
-0.000196883484
0.0001720674325
-1.091402639e-05
1.099116217e-05
-0.0001721445682
0.0001821086793
-0.0003115334836
-0.0003809424129
0.000200645502
0.0001598537564
0.0001498679589
0.0003510564949
-0.0005233017595
0.0005338340537
-0.0003351409063
-0.0005435252511
0.0002621701558
0.0005656974652
-0.0002278521981
-0.0002994474551
0.0001197390373
0.0003303021517
-8.853611846e-05
1.834739503e-05
-3.692914751e-05
4.818320041e-05
-5.933029904e-06
0
0
0
0
0
0
0
0
0
0
0
0
0
0
0
0
0
0
0
0
0
0
0
0
0
0
0
0
0
0
0
0
0
2.323550498e-06
0
-4.976753749e-06
-1.100864291e-06
-1.848250342e-06
0.0001046320743
3.597270984e-05
-0.0001077632355
-7.04435397e-05
0.0003909245014
0.000223408058
-0.0003967700482
-0.0002834402465
0.0005591551415
0.0004571208631
-0.0005633538257
-0.0005051817868
0.0004698069458
0.0005923609242
-0.0004702599813
-0.000598089525
0.0001207289495
0.0002961940799
-0.0001213677081
-0.0002955553213
0.0002928763761
-0.0001433031998
0.0001428720353
-0.0002924452116
0.0005912474117
-0.000547797577
0.0005494202769
-0.0005775065445
-0.0006246950188
0.0004718191235
0.0006334224875
-0.000420187736
-0.0003947604479
0.0002443913383
0.0004051144729
-0.0001870015346
5.07055032e-05
-7.471108018e-05
8.645872718e-05
-2.237258772e-05
0
0
0
0
0
0
0
0
0
0
0
0
0
0
0
0
0
0
0
0
0
0
0
0
0
0
0
0
0
0
0
0
0
6.4650855e-06
0
-8.154331508e-06
-4.057735195e-06
-4.858146935e-06
0.0001237860649
6.048791681e-05
-0.0001271571961
-0.000111522412
0.0004181404558
0.0003286179905
-0.0004224347088
-0.000412076845
0.0005765031421
0.0006472757417
-0.0005790614218
-0.0007096448288
0.0004713211068
0.0008132942461
-0.0004715032923
-0.0008166043094
0.0001195138112
0.0004017644419
-0.0001194946845
-0.0004017835686
0.0004040862262
-0.0001420055861
0.0001417901091
-0.0004038707491
0.0008197414661
-0.00054913073
0.0005486916951
-0.0008088362414
-0.0006565364349
0.0006819244209
0.0006607090564
-0.0006139310928
-0.0004410462624
0.0003723199076
0.0004483446925
-0.0002902290241
8.655864628e-05
-0.0001013483938
0.0001062243312
-4.216145391e-05
0
0
0
0
0
0
0
0
0
0
0
0
0
0
0
0
0
0
0
0
0
0
0
0
0
0
0
0
0
0
0
0
0
9.788384727e-06
0
-1.2024458e-05
-7.687287045e-06
-8.972179987e-06
0.0001355051603
8.578662135e-05
-0.000138862628
-0.0001532925146
0.0004329487137
0.0004337385726
-0.0004371138149
-0.0005399647396
0.0005852475074
0.0008353472371
-0.0005876915953
-0.000912242237
0.0004718144464
0.001034502218
-0.0004719775408
-0.001036809356
0.0001192448626
0.0005113665335
-0.0001193794523
-0.0002537745539
-0.0002574573899
0.0005148574738
-0.0001408704655
0.0001406298171
-0.0005146168253
0.001039939629
-0.0005473992341
0.0005469196768
-0.001026408189
-0.0006566882186
0.0008660826849
0.0006538561838
-0.0007799142085
-0.000443034687
0.0004720424754
0.0004399024552
-0.0003676812837
0.0001087275854
-0.0001028796784
0.0001013466144
-5.256312383e-05
0
0
0
0
0
0
0
0
0
0
0
0
0
0
0
0
0
0
0
0
0
0
0
0
0
0
0
0
0
0
0
0
0
1.445246327e-05
0
-1.722517613e-05
-1.368365873e-05
-1.55913292e-05
0.0001493036293
0.0001173746208
-0.000152958683
-0.0002030442571
0.0004497978446
0.0005500530977
-0.0004541609519
-0.0006793622083
0.0005950634937
0.001033307159
-0.000597577411
-0.001123402094
0.0004722201476
0.00125880105
-0.0004722853283
-0.00125986407
0.0001190378659
0.0006230586932
-0.0001190462573
-0.0003097602253
-0.0003132900765
0.0006258635951
-0.0001395202932
0.000139201897
-0.0006255451989
0.001258331419
-0.0005440129074
0.0005424574597
-0.001231133272
-0.0006312333391
0.001010488311
0.0006182491725
-0.0009023949186
-0.0004045936062
0.0005250471738
0.0003935082551
-0.0004008439133
0.0001044240381
-7.986747325e-05
7.491644119e-05
-4.478261375e-05
0
0
0
0
0
0
0
0
0
0
0
0
0
0
0
0
0
0
0
0
0
0
0
0
0
0
0
0
0
0
0
0
0
2.055290215e-05
0
-2.178279819e-05
-2.290655165e-05
-2.438052269e-05
0.0001648232819
0.0001560833252
-0.0001694330448
-0.0002614754069
0.0004680371898
0.0006773728416
-0.0004733285228
-0.0008296001291
0.0006055102124
0.001238895788
-0.000608488173
-0.00134034792
0.0004724151236
0.001482044181
-0.0004725666743
-0.0014820254
0.0001188488851
0.0007341499913
-0.00011879533
-0.0003652292868
-0.0003689742597
0.0007348770383
-0.0001376781056
0.0001374645363
-0.000734663469
0.001455792182
-0.0005357172067
0.0005321639539
-0.001403060713
-0.0005802176058
0.001098228262
0.0005694032231
-0.0009678528529
-0.0003427612785
0.0005247523777
0.0003182078685
-0.0003856242695
7.948069675e-05
-4.967220784e-05
4.225997367e-05
-2.580315945e-05
0
0
0
0
0
0
0
0
0
0
0
0
0
0
0
0
0
0
0
0
0
0
0
0
0
0
0
0
0
0
0
0
0
3.022565821e-05
0
-3.906005281e-05
-4.012182977e-05
-4.69930349e-05
0.0001835621541
0.0002096633766
-0.0001951734192
-0.000336618745
0.0004911205656
0.0008248559946
-0.000498776013
-0.00099835598
0.0006182462711
0.001453359438
-0.0006194723891
-0.001567080604
0.0004726032108
0.001704906173
-0.0004732075388
-0.0008452124623
-0.0008590893822
6.125045759e-05
0.0004203961759
-6.13655664e-05
-0.0004202810671
-1.091851626e-06
0.0002096954921
6.563026865e-07
-0.000419870124
0.0002106101808
0.0008415577412
-0.0001362365906
0.0002877603176
-0.001696678995
0.0008550720209
-0.000151474494
-0.0005189590474
0.001614975818
0.0005093821964
-0.001526515245
-0.0005169801789
0.001130442043
0.000497124718
-0.0009659934634
-0.0002576754799
0.0004676347451
0.0002406057219
-0.0003230738866
3.642160639e-05
-1.681350484e-05
1.31164345e-05
-3.571189428e-06
0
0
0
0
0
0
0
0
0
0
0
0
0
0
0
0
0
0
0
0
0
0
0
0
0
0
0
0
0
0
0
0
0
4.420298547e-05
0
-3.665859343e-05
-5.946566449e-05
-5.571403685e-05
0.0002126617275
0.0002672901512
-0.0002067452722
-0.0004173546282
0.0005176996939
0.000974345495
-0.0005099173102
-0.001169698615
0.0006280824739
0.001673481737
-0.0006226357651
-0.001790851926
0.0004663989786
0.001928804942
-0.0004663989786
-0.0009576709083
-0.0009711340335
5.943680919e-05
0.0009576709083
-0.0001149318165
5.54950073e-05
-0.0004768733472
-0.0004807975611
-1.120987227e-05
0.00047687335
1.120986811e-05
-0.0009576709083
0.0004807975625
0.001928804942
-0.0002904548042
0.0002903473623
-0.001924770246
-0.0004832057188
0.001706808374
0.0004728715977
-0.001580360988
-0.0004301269659
0.001070362459
0.0004114675344
-0.0008905345547
-0.0001749133451
0.000361964817
0.0001522220248
-0.0002296285414
5.489817242e-06
-2.486580912e-06
1.122830233e-06
0
0
0
0
0
0
0
0
0
0
0
0
0
0
0
0
0
0
0
0
0
0
0
0
0
0
0
0
0
0
0
0
0
0
2.314302721e-05
0
-8.60912877e-06
-2.98109195e-05
-1.906320832e-05
0.0001646193652
0.0002076682569
-0.0001440892509
-0.0003485281371
0.0004521769436
0.0009047568221
-0.000422280934
-0.00110978897
0.0005795898134
0.001676437076
-0.000555605359
-0.001827071178
0.0004609670269
0.002106331593
-0.0004531967514
-0.002140088845
0.0001149318165
0.002151915632
-0.0002141004087
-0.002151915632
9.91685922e-05
-3.818775375e-05
0.002151915632
3.818775374e-05
-0.002151915632
-0.0002868570798
0.00211768941
0.0002817713023
-0.00206249957
-0.0004307378798
0.001713653021
0.0004105584056
-0.001542777561
-0.0003306978081
0.0009415643844
0.0003048403087
-0.0007369908203
-9.164388318e-05
0.0002244262385
7.450404198e-05
-0.0001174665347
0
0
0
0
0
0
0
0
0
0
0
0
0
0
0
0
0
0
0
0
0
0
0
0
0
0
0
0
0
0
0
0
0
0
0
0
0
2.1180682e-07
0
0
-1.778738151e-07
0
7.423051588e-05
7.647662679e-05
-5.182582272e-05
-0.0001709305981
0.0003075623834
0.0006226883681
-0.0002636728978
-0.0008084276275
0.0004539827368
0.001377012982
-0.0004111530383
-0.001550084518
0.0004027818343
0.00196002548
-0.0003764049746
-0.002054059023
0.0002056251027
0.002216480621
-0.0001965576546
-0.002237783866
-3.549798193e-05
0.002225125627
3.302144132e-05
-0.002194030111
-0.0002471188228
0.001991588973
0.0002288975439
-0.001881196806
-0.0003258442567
0.001422557505
0.0002908252166
-0.001236711793
-0.0002089198945
0.0006554278566
0.0001737935203
-0.0004770185105
-2.991992237e-05
8.634617323e-05
1.760486239e-05
-2.350210227e-05
0
0
0
0
0
0
0
0
0
0
0
0
0
0
0
0
0
0
0
0
0
0
0
0
0
0
0
0
0
0
0
0
0
0
0
0
0
0
0
0
0
0
5.722976754e-06
1.87901091e-07
-9.566365786e-07
-1.40815817e-05
0.0001314387658
0.000239373062
-9.211791578e-05
-0.0003629586959
0.0002660448221
0.0008031072058
-0.0002160545673
-0.0009547776629
0.000273614598
0.001360395181
-0.0002341821189
-0.001468203796
0.000152686133
0.00168319041
-0.0001339035564
-0.001716163778
-2.254997421e-05
0.001695720291
1.868481925e-05
-0.001648952717
-0.0001596470601
0.001392202517
0.0001340906962
-0.001271191456
-0.0001766140603
0.0008358686292
0.0001391897845
-0.0006801901064
-7.47298672e-05
0.0002562886553
4.793477703e-05
-0.0001489972042
-2.428043131e-07
6.239500653e-07
0
0
0
0
0
0
0
0
0
0
0
0
0
0
0
0
0
0
0
0
0
0
0
0
0
0
0
0
0
0
0
0
0
0
0
0
0
0
0
0
0
0
0
0
0
0
0
0
1.122219619e-05
6.723615248e-06
-1.782222165e-06
-3.107261264e-05
8.222541299e-05
0.0002133731414
-4.849166135e-05
-0.0002962249974
0.000116517335
0.0005523555043
-8.203668242e-05
-0.0006282025276
7.354575766e-05
0.0007890385925
-5.456144429e-05
-0.0008145938301
-8.420676611e-06
0.0007959648452
5.819336758e-06
-0.0007584340698
-6.187707835e-05
0.0005673859671
4.204478839e-05
-0.0004847498844
-4.561131992e-05
0.0002250278722
2.429945007e-05
-0.0001481401058
-2.268048525e-06
8.382567057e-06
6.273947525e-09
-9.00067993e-08
0
0
0
0
0
0
0
0
0
0
0
0
0
0
0
0
0
0
0
0
0
0
0
0
0
0
0
0
0
0
0
0
0
0
0
0
0
0
0
0
0
0
0
0
0
0
0
0
0
0
0
0
0
0
2.760545847e-07
0
0
-1.183478071e-06
1.112625726e-05
3.223117435e-05
-1.769843236e-06
-4.991717197e-05
1.148727916e-05
9.740076155e-05
-3.837286638e-06
-0.0001058849369
-9.694219858e-07
9.878186253e-05
2.787177732e-07
-8.624640991e-05
-4.324636257e-06
3.427578533e-05
3.581298212e-07
-1.88605587e-05
0
0
0
0
0
0
0
0
0
0
0
0
0
0
0
0
0
0
0
0
0
0
0
0
0
0
0
0
0
0
0
0
0
0
0
0
0
0
0
0
0
0
0
0
0
0
0
0
0
0
0
0
0
0
0
0
0
0
0
0
0
0
0
0
0
0
0
0
0
0
0
0
0
0
0
0
0
0
0
0
0
0
0
0
0
0
0
0
0
0
0
0
0
0
0
0
0
0
0
0
0
0
0
0
0
0
0
0
0
0
0
0
0
0
0
0
0
0
0
0
0
0
0
0
0
0
0
0
0
0
0
0
0
0
0
0
0
0
0
0
0
0
0
0
0
0
0
0
0
0
0
0
0
0
0
0
0
0
0
0
0
0
0
0
0
0
0
0
0
0
0
0
0
0
0
0
0
0
0
0
0
0
0
0
0
0
0
0
0
0
0
0
0
0
0
0
0
0
0
0
0
0
0
0
0
0
0
0
0
0
0
0
0
0
0
0
0
0
0
0
0
0
0
0
0
0
0
0
0
0
0
0
0
0
0
0
0
0
0
0
0
0
0
0
0
0
0
0
0
0
0
0
0
0
0
0
0
0
0
0
0
0
0
0
0
0
0
0
0
0
0
0
0
0
0
0
0
0
0
0
0
0
0
0
0
0
0
0
0
0
0
0
0
0
0
0
0
0
0
0
0
0
0
0
0
0
0
0
0
0
0
0
0
0
0
0
0
0
0
0
0
0
0
0
0
0
0
0
0
0
0
0
0
0
0
0
0
0
0
0
0
0
0
0
0
0
0
0
0
0
0
0
0
0
0
0
0
0
0
0
0
0
0
0
0
0
0
0
0
0
0
0
0
0
0
0
0
0
0
0
0
0
0
0
0
0
0
0
0
0
0
0
0
0
0
0
0
0
0
0
0
0
0
0
0
0
0
0
0
0
0
0
0
0
0
0
0
0
0
0
0
0
0
0
0
0
0
0
0
0
0
0
0
0
0
0
0
0
0
0
0
0
0
0
0
0
0
0
0
0
0
0
0
0
0
0
0
0
0
0
0
0
0
0
0
0
0
0
0
0
0
0
0
0
0
0
0
0
0
0
0
0
0
0
0
0
0
0
0
0
0
0
0
0
0
0
0
0
0
0
0
0
0
0
0
0
0
0
0
0
0
0
0
0
0
0
0
0
0
0
0
0
0
0
0
0
0
0
0
0
0
0
0
0
0
0
0
0
0
0
0
0
0
0
0
0
0
0
0
0
0
0
0
0
0
0
0
0
0
0
0
0
0
0
0
0
0
0
0
0
0
0
0
0
0
0
0
0
0
0
0
0
0
0
0
0
0
0
0
0
0
0
0
0
0
0
0
0
0
0
0
0
0
0
0
0
0
0
0
0
0
0
0
0
0
0
0
0
0
0
0
0
0
0
0
0
0
0
0
0
0
0
0
0
0
0
0
0
0
0
0
0
0
0
0
0
0
0
0
0
0
0
0
0
0
0
0
0
0
0
0
0
0
0
0
0
0
0
0
0
0
0
0
0
0
0
0
0
0
0
0
0
0
0
0
0
0
0
0
0
0
0
0
0
0
0
0
0
0
0
0
0
0
0
0
0
0
0
0
0
0
0
0
0
0
0
0
0
0
0
0
0
0
0
0
0
0
0
0
0
0
0
0
0
0
0
0
0
0
0
0
0
0
0
0
0
0
0
0
0
0
0
0
0
0
0
0
0
0
0
0
0
0
0
0
0
0
0
0
0
0
0
0
0
0
0
0
0
0
0
0
0
0
0
0
0
0
0
0
0
0
0
0
0
0
0
0
0
0
0
0
0
0
0
0
0
0
0
0
0
0
0
0
0
0
0
0
0
0
0
0
0
0
0
0
0
0
0
0
0
0
0
0
0
0
0
0
0
0
0
0
0
0
0
0
0
0
0
0
0
0
0
0
0
0
0
0
0
0
0
0
0
0
0
0
0
0
0
0
0
0
0
0
0
0
0
0
0
0
0
0
0
0
0
0
0
0
0
0
0
0
0
0
0
0
0
0
0
0
0
0
0
0
0
0
0
0
0
0
0
0
0
0
0
0
0
0
0
0
0
0
0
0
0
0
0
0
0
0
0
0
0
0
0
0
0
0
0
0
0
0
0
0
0
0
0
0
0
0
0
0
0
0
0
0
0
0
0
0
0
0
0
0
0
0
0
0
0
0
0
0
0
0
0
0
0
0
0
0
0
0
0
0
0
0
0
0
0
0
0
0
0
0
0
0
0
0
0
0
0
0
0
0
0
0
0
0
0
0
0
0
0
0
0
0
0
0
0
0
0
0
0
0
0
0
0
0
0
0
0
0
0
0
0
0
0
0
0
0
0
0
0
0
0
0
0
0
0
0
0
0
0
0
0
0
0
0
0
0
0
0
0
0
0
0
0
0
0
0
0
0
0
0
0
0
0
0
0
0
0
0
0
0
0
0
0
0
0
0
0
0
0
0
0
0
0
0
0
0
0
0
0
0
0
0
0
0
0
0
0
0
0
0
0
0
0
0
0
0
0
0
0
0
0
0
0
0
0
0
0
0
0
0
0
0
0
0
0
0
0
0
0
0
0
0
0
0
0
0
0
0
0
0
0
0
0
0
0
0
0
0
0
0
0
0
0
0
0
0
0
0
0
0
0
0
0
0
0
0
0
0
0
0
0
0
0
0
0
0
0
0
0
0
0
0
0
0
0
0
0
0
0
0
0
0
0
0
0
0
0
0
0
0
0
0
0
0
0
0
0
0
0
0
0
0
0
0
0
0
0
0
0
0
0
0
0
0
0
0
0
0
0
0
0
0
0
0
0
0
0
0
0
0
0
0
0
0
0
0
0
0
0
0
0
0
0
0
0
0
0
0
0
0
0
0
0
0
0
0
0
0
0
0
0
0
0
0
0
0
0
0
0
0
0
0
0
0
0
0
0
0
0
0
0
0
0
0
0
0
0
0
0
0
0
0
0
0
0
0
0
0
0
0
0
0
0
0
0
0
0
0
0
0
0
0
0
0
0
0
0
0
0
0
0
0
0
0
0
0
0
0
0
0
0
0
0
0
0
0
0
0
0
0
0
0
0
0
0
0
0
0
0
0
0
0
0
0
0
0
0
0
0
0
0
0
0
0
0
0
0
0
0
0
0
0
0
0
0
0
0
0
0
0
0
0
0
0
0
0
0
0
0
0
0
0
0
0
0
0
0.0003883818425
-0.0003884151887
0.0001195471574
0.0001269536931
-0.0003893525122
-0.0001271512469
0.0001968889266
0.0001926611394
-0.0001295936389
0.0002941426671
0.0001283273479
0.0004975052951
0.0001191649543
-0.0002471166824
-0.0002503087044
0.0001250619421
-0.0005014236481
-0.0001253669037
0.0002525840091
0.0002491446004
0.0001262626351
0.0002041869527
0.0002005903314
0.0006091039482
0.0001189978274
-0.0003028648025
-0.0003061991071
0.0001239714259
-0.0006114368641
-0.0001236597721
0.0003071821129
0.0003039430975
0.0001248241019
0.0002589743511
0.0002561209629
0.0007200547805
0.0001187684713
-0.0003582863002
-0.0003616880664
0.0001215303602
-0.000720656894
-0.0001221093832
0.0007212359171
0.0006262534481
0.0001235815729
0.0004173093172
-0.0004173124298
6.125357018e-05
-0.0002091930677
-7.600756058e-07
6.941859748e-07
0.0002092589574
0.0002083258393
-0.0004169814166
-1.629342124e-06
0.0001198600421
-0.0008288886552
-0.0001199932461
0.0008290218592
0.0007352569195
0.0001211504789
0.000473835515
-0.000473835515
5.94368092e-05
-0.0004738355228
-3.081649236e-07
3.082124357e-07
0.0004738354753
0.0002099258093
-9.903928203e-07
-0.0009437532805
0.0004326600957
1.841396713e-05
7.633822589e-06
0.0002089905718
-0.001847919177
0.0009406649447
0.0009212117496
-0.0001043742936
-0.0001185737955
0.0008417139747
0.0001197038086
0.0002818783543
-0.0002816129856
0.0001204635808
5.183559649e-06
0.0001721899491
-5.306076324e-06
-0.0002802217826
-0.0001288770283
0.0002795051721
-0.0001296896133
0.0001795973593
0.0001322009333
1.759981199e-05
-8.555295655e-05
-1.760574188e-05
8.555888644e-05
-0.0001466350919
-3.589975339e-05
0.0001469684478
3.556639741e-05
-0.0003891806998
-0.0001421773985
0.0004867812193
-0.0007621757889
-0.0004879726778
0.0007636240488
-0.0004903540688
0.0005963339095
0.0004881230017
0.0009787023785
-0.0009813287871
0.0004716980808
-0.0001348590449
0.0001348689701
0.0004974953699
0.00013510167
0.0004017096075
-0.0001350468356
1.944380035e-05
-0.0001127318837
-1.937192751e-05
0.0001126600108
-1.777526011e-05
-0.0001000029436
0.0001000778971
1.770030659e-05
-0.0005012470443
-0.0001410470692
0.0004847298998
-0.0009861625728
-0.0004853151091
0.0009867842908
0.0008204181324
0.0004862072677
0.001202951427
-0.001204331439
0.0004721547765
-0.0001345994415
0.0001346103487
0.000609093041
0.0005113516396
-0.000134844151
-0.0001192252342
0.0005537265826
0.0001192425961
-0.0002750783663
-0.0002786655782
-3.460385323e-05
-0.0001397456907
3.450135588e-05
0.0002786475247
-0.0001387993367
3.447920735e-05
-0.0001262897807
0.000253720889
-3.455207722e-05
-0.0001273582385
1.709497617e-05
-0.0001408222868
-1.718816861e-05
0.0001409154792
-1.806916987e-05
-0.000127402461
0.0001270413283
1.843030258e-05
-0.0006113759234
-0.0001395812339
0.0004817860331
-0.0012032979
-0.0004828585407
0.001206441247
0.001040688257
0.0004841260923
0.001426045831
-0.001426183409
0.0004721821791
-0.0001343498679
0.0001343658903
0.0007200387581
0.0006230121861
-0.0001345529344
-0.0001187140129
0.0006647871538
0.0001188888911
-0.0003307902576
-0.0003341717744
-1.677776117e-05
-0.0001676256322
1.679249656e-05
0.0001676108968
3.442496736e-05
-0.0001544795578
0.0003098129475
-3.437180882e-05
-0.0001553865482
3.197399762e-05
-0.0003350476822
-3.213936769e-05
0.0003352130522
-3.281243981e-05
-0.0003115031236
3.211911564e-05
0.0001567015119
0.0001554949359
0.001649253902
0.000472713364
-0.000817745077
-0.0008316189784
-0.000134334003
-0.000414168889
0.0001341789904
0.0008316332188
0.000734140156
-0.0001343400326
-6.127576003e-05
0.0003898664273
-0.0003899163512
6.132568397e-05
-1.685816916e-05
-0.0001954251566
1.69067513e-05
0.0001953765745
1.689929477e-05
-0.0001821367374
0.0001820989503
-1.686150768e-05
0.0001970695432
1.591034681e-06
-0.0001965449917
-2.11558617e-06
3.063900146e-05
-0.0003901120742
-3.058128125e-05
0.0003900543539
-3.145107289e-05
-0.0003661019255
0.000366134178
3.141882047e-05
0.001812993322
0.0004678673401
-0.0008707084034
-0.0009437532805
-0.0001307050715
-0.0004699177655
0.0001307050715
0.0009437532805
-0.0004247181714
0.0008451099569
-0.0001343296125
-6.124612588e-05
0.0004452564283
-0.0004452170634
6.120676101e-05
-1.671049245e-05
-0.0002226481754
1.647881476e-05
0.0002228798531
1.67055057e-05
-0.0002093437851
0.0002093446513
-1.670637181e-05
0.001055081374
-0.001055081374
0.0001149318165
-0.001055081374
-4.558303338e-06
4.558303351e-06
0.001055081374
0.0004768733273
-3.081422439e-07
3.065382255e-05
0.0001719155161
-3.081470978e-05
-8.532536564e-05
-8.642926327e-05
-3.067359814e-05
0.000195779423
3.062470205e-05
-9.75254736e-05
-9.820505328e-05
0.0001470354236
3.33933917e-05
-3.380987402e-05
-0.0001466189412
0.0001688834994
-0.0001690050311
3.077535421e-05
-9.911007716e-05
-1.780437695e-05
9.9139194e-05
-8.618165988e-05
8.626539389e-05
1.751607798e-05
-0.0001276952206
-0.0003486397467
0.0001273449866
0.0001766053712
0.0001723846096
-3.869551076e-05
8.687591378e-05
3.838953812e-05
-0.000172751601
1.867421529e-05
-9.909483055e-05
-1.86894619e-05
-0.0001253935826
3.43800595e-05
0.0002502576238
-0.0001247648933
-0.000226351496
3.441498382e-05
0.0002263643902
-3.442787798e-05
0.0001193490175
0.00045638972
-0.0001193440155
-0.000456394722
3.046363983e-05
-3.05811923e-05
-0.0001127345221
-0.0001134994214
-1.583292988e-05
-0.0001254008937
1.584024101e-05
0.0001990507854
-3.076146991e-05
-9.89726271e-05
-9.999028653e-05
0.0002231170229
3.053894382e-05
-0.0001112439709
-0.000111948356
-0.0001262988758
-1.768311377e-05
0.0001259128197
-0.0001140548159
0.0001139044766
1.959413968e-05
-6.490068249e-05
-0.0002284611541
0.0002285194538
6.484238279e-05
-2.022026489e-05
2.02418341e-05
-0.0001140763851
1.876036279e-05
-0.0001265350769
-1.85241617e-05
1.861594577e-05
-9.994467409e-05
-0.0001128178
-2.01343486e-05
-0.0002246312322
-6.490999128e-05
0.0002246405409
-0.0001535168446
3.436248248e-05
0.0003061860905
-0.0001526067611
-0.0001407139728
0.0002823943449
-3.453650263e-05
-0.0001417477227
0.0005678535169
-0.0001190581209
-0.0002823210894
-0.0002856995407
1.593452033e-05
-1.592923119e-05
-0.0001407192619
-1.571005547e-05
-0.000153530343
1.572355392e-05
-1.583468328e-05
-0.0001262880273
-0.0001396859596
1.587478927e-05
-0.0003076164022
-3.277449058e-05
0.0001542247362
0.0001533537168
-0.0001415962847
0.0001415754437
1.711581717e-05
-0.0001239466077
-0.0005697785199
0.0001239321198
0.0002864157452
0.0002833772626
-3.707585702e-05
0.0001420470095
3.682965362e-05
-0.0002833970908
3.659257997e-05
-0.0003075529698
-3.665601241e-05
1.899201928e-05
-0.0001276341175
0.000139725369
-0.0002801847072
-1.817582921e-05
-1.926297631e-05
-0.0005561124287
-0.0001244699625
0.0002800025022
0.0002766332814
-0.0001812381338
1.695368673e-05
0.0001811837418
-0.0001684633534
0.0001684117791
-1.672618691e-05
0.0006781718237
-0.0001188824569
-0.0003374291034
-0.0003405742764
1.585448241e-05
-1.586165398e-05
-0.0001684561818
-1.599688584e-05
-0.000181277359
1.603611109e-05
-1.569010291e-05
-0.0001544995104
-0.0001676809035
1.590975374e-05
-0.0003628591851
-3.152397689e-05
0.0003629320891
-0.0003387801592
0.0003388027603
3.195139653e-05
-0.0002090039666
1.670050189e-05
0.0002090089704
-0.0001963294605
0.0001963583975
-1.688710615e-05
0.0003932370265
-6.126711793e-05
-0.0003932456686
4.41185436e-07
-0.0001966599453
0.0001960719158
1.468440612e-07
1.585404271e-05
-1.584275168e-05
-0.0001963407516
-1.561942812e-05
-0.0002089765322
1.55919937e-05
-1.597598797e-05
-0.0001821576353
-0.0001954209327
1.584981881e-05
-5.504363601e-07
0.000198061165
5.679732751e-05
-0.0008291513928
-5.684930525e-05
0.0004160646015
0.000413138769
-0.0003932203156
0.0003931411486
3.071816846e-05
1.583494e-06
-0.0001966524046
-0.0004777058766
-3.310554459e-05
0.0004756469875
1.85591674e-05
1.660526622e-05
-0.0002235683193
0.0002236248777
-1.676705089e-05
0.0004485859637
-6.133457741e-05
-0.0004484975122
6.428968683e-06
-0.000443922472
0.0004443279754
-6.834472067e-06
1.442481082e-05
-1.454197271e-05
-0.0002234511574
-2.784569833e-05
-0.0004775519885
1.556628906e-05
1.212552122e-05
-1.567764016e-05
-0.0002092855731
1.423171302e-05
-0.0002224550776
-0.000440852676
5.775842184e-06
0.0004415058025
0.0007580796379
-0.0007617888517
0.0004711367122
0.0001351567593
0.0003883267532
0.0001362437406
0.0002958501595
-0.0001358998202
-0.0001199972736
0.0003345684137
-0.0003345147596
0.0001199436195
-3.458901719e-05
3.460186118e-05
0.0001688706554
3.526877442e-05
0.000147554563
-3.578791385e-05
1.713368458e-05
-7.772364501e-05
-4.957304968e-06
6.554726539e-05
-7.461389878e-05
-1.144237524e-05
7.560354112e-05
1.045273289e-05
0.0004427191664
-0.0004427903834
0.0001194202345
3.443438895e-05
0.0002230976178
3.455831672e-05
0.0001990520633
-3.455959463e-05
5.121332147e-05
-0.0001627626134
-2.202197451e-05
0.0001335712664
-0.000720348171
-0.0001379868287
0.0004807325314
-0.001409739151
-0.0004813636685
0.001426824502
0.001262147689
0.0004819913242
4.908690579e-05
-0.0001894630504
-1.618269958e-05
0.0001565588442
1.546546043e-05
-0.0003765863106
-1.573271758e-05
0.0001888366567
0.000188016911
-8.481495959e-06
-0.0001827305943
0.0001827078639
8.504226381e-06
-1.220945041e-06
-0.000440457559
8.258279819e-07
5.996292979e-05
-0.0008810155505
-5.834672887e-05
0.0008793993496
-0.0008420765623
5.680331921e-05
0.0004225754705
0.0004194951
3.453485071e-05
0.000195802889
0.0001719271559
-3.460065696e-05
0.0003464507875
-0.0001197579627
-0.0003466900984
7.53994292e-06
9.296991364e-05
-7.327556664e-06
-9.318229989e-05
7.541787496e-05
1.094385251e-05
-9.920620492e-06
-7.644110698e-05
7.886823142e-05
-9.039960766e-06
-7.910730552e-05
9.279034862e-06
-4.077419654e-05
3.955125343e-05
-0.0001454121488
8.434056776e-05
-0.000169572197
-3.901683805e-05
-0.0003343060279
-0.0001269634541
0.0001686350178
0.0001649392436
-0.0001821813211
-8.633716076e-06
0.0001823335412
-1.0489942e-05
-0.0001762397648
0.0001767483867
9.981320044e-06
-0.0001229775817
-0.0006795166238
0.0006798663702
0.0001226278353
-3.607633543e-05
3.591812103e-05
-0.0003386219448
3.544029375e-05
-0.0003627277288
-3.557175006e-05
3.636538685e-05
-0.0003112759305
-0.0003350307373
-3.609328027e-05
-0.000666601072
-0.0001231631238
0.0006667866141
-1.329168287e-06
-0.0002038328953
0.0002044956977
6.663659541e-07
0.0002147438088
-4.644897309e-06
-0.0002146253404
4.526428939e-06
-4.670480476e-06
-0.0004292166003
4.440595598e-06
0.0002149111669
0.0002145353183
-0.000111829873
1.709973344e-06
0.0001118501193
-1.730219625e-06
0.0002505835502
6.253842032e-05
-3.418619684e-05
-3.406303415e-05
-0.0001195413136
-0.0001253314259
0.0001420596965
-0.0001451483259
3.648202113e-05
-0.0001426731928
-3.603402389e-05
0.0001428074633
-0.0002426082711
-7.145463968e-05
0.0001231532897
0.0001139589522
3.794232455e-05
3.900834431e-05
-5.089551841e-06
5.266802013e-06
-0.0001120071232
-9.835249468e-05
0.0001154861793
-3.492894696e-05
-0.0001599322808
3.468949515e-05
8.04763842e-05
7.969534844e-05
-1.214404095e-05
-5.951070032e-06
-8.02573837e-05
-1.158384201e-05
1.11242748e-05
-7.415433156e-05
-7.940126672e-05
-1.046641923e-05
-0.0001557869766
-3.438706849e-05
7.818356923e-05
7.706152892e-05
-1.694444332e-05
-0.0001066539499
0.0001066670574
1.693133578e-05
-0.0001060573299
-1.702456688e-05
0.0001061374535
-1.690805518e-05
-0.0001349168227
0.0001348330835
1.699179439e-05
-0.0001345071467
-1.712868109e-05
0.0001347277726
-0.0001677661615
1.046715292e-05
-9.290654165e-06
0.0001665896627
-0.0001661650346
0.000210869829
6.508527081e-06
-3.241122962e-05
-0.0003245520797
0.0003245650403
3.239826901e-05
-1.285095916e-05
1.057337291e-05
-0.0001638874483
1.139883529e-05
-0.0001680995358
-1.106546092e-05
-1.152460775e-05
2.232268144e-05
-0.0001536361044
0.0001428380307
-0.0001618635936
-1.37499789e-05
-0.000321331549
-3.246957984e-05
0.0001610805548
0.0001603093444
-0.0001893673156
1.66803812e-05
0.00018934317
-1.665623558e-05
4.583140232e-05
0.0003791117844
-4.584611198e-05
-0.0003790970747
-4.581521694e-05
0.0003898835739
-0.0003899329552
4.586459828e-05
1.464536717e-05
-0.0003901114514
-1.480743331e-05
0.0003902735176
-0.0003799142359
1.516905121e-05
0.0001905963544
0.0001896142908
0.0002431038705
-7.433035158e-07
-0.0001932736612
1.693677834e-05
-0.0002167845448
0.0002168048252
-1.695705866e-05
4.578345335e-05
0.0004345762703
-4.584002656e-05
-0.000434519697
-4.58479474e-05
0.0004451852221
4.56589536e-05
-0.0002220205163
-0.000222975712
4.582834448e-05
0.0004202411922
-4.590657418e-05
-0.0004201629625
0.0004310688421
-0.0004310588227
4.577343395e-05
-0.0002155789828
1.684759437e-05
0.0002156681668
8.633486683e-05
8.337248399e-06
1.14271302e-05
-0.0001060992454
9.176414831e-05
7.486224607e-06
-9.171043e-05
-3.071713754e-05
0.0001823096144
3.06702502e-05
-9.055356639e-05
-9.170916063e-05
-9.053126471e-06
9.020976727e-06
9.179629805e-05
9.011795482e-06
8.606243364e-05
-8.739362287e-06
-7.372813347e-06
2.451935769e-06
9.805068167e-05
-9.31298041e-05
9.294874633e-05
-9.031959166e-06
0.0001859768734
-3.049576563e-05
-9.277673354e-05
-9.34215118e-05
-3.11157759e-05
0.000157826982
-0.0001578899334
3.117872722e-05
-9.547876797e-06
9.442850806e-06
7.897325741e-05
1.36192603e-05
7.302585006e-05
-1.12272354e-05
-8.519463988e-05
9.130906915e-06
8.507552845e-05
-7.942584971e-05
7.956668912e-05
-9.688716201e-06
0.0001600790992