/*--------------------------------*- C++ -*----------------------------------*\
| =========                 |                                                 |
| \\      /  F ield         | OpenFOAM: The Open Source CFD Toolbox           |
|  \\    /   O peration     | Version:  v1912                                 |
|   \\  /    A nd           | Website:  www.openfoam.com                      |
|    \\/     M anipulation  |                                                 |
\*---------------------------------------------------------------------------*/
FoamFile
{
    version     2.0;
    format      ascii;
    class       volVectorField;
    location    "0.47";
    object      U;
}
// * * * * * * * * * * * * * * * * * * * * * * * * * * * * * * * * * * * * * //

dimensions      [0 1 -1 0 0 0 0];


internalField   nonuniform List<vector> 
12556
(
(99.99867559 0.003185240619 -3.870801185e-21)
(99.99828906 0.01060795323 2.984265129e-25)
(99.99720189 0.02199644202 -3.862431019e-21)
(99.99539518 0.03990021197 -3.835690738e-21)
(99.9997932 0.03106186953 3.694139972e-21)
(99.99772845 0.05049703049 0)
(99.996543 0.08046741631 0)
(99.99620222 0.1214432045 -6.436427142e-21)
(99.99517667 0.1752147225 7.476500342e-22)
(99.99452051 0.2399083954 -4.825514885e-21)
(99.99477766 0.3075425018 6.485414116e-22)
(99.99639337 0.3639095469 0)
(99.9991317 0.3929874311 0)
(100.0023783 0.3848012707 1.162911421e-21)
(100.0044567 0.3442120501 -1.646939514e-21)
(100.0052649 0.2852132596 9.160906235e-22)
(100.0050155 0.2222507377 0)
(100.0044782 0.1652640398 1.454719185e-21)
(100.0041402 0.1169686754 5.965898316e-21)
(100.0022145 0.0820073735 -1.662874688e-21)
(100.0088112 0.09342324967 -1.4423651e-20)
(100.0060403 0.05766900418 0)
(100.0044194 0.03066679587 -1.807429395e-21)
(100.0042406 0.009659526163 -1.272235708e-20)
(99.98820503 0.008449728148 1.551221606e-20)
(99.98373902 0.02851847985 3.873155645e-21)
(99.97367064 0.05973853545 2.704198121e-20)
(99.95642233 0.1091523784 -1.158143282e-20)
(99.95948763 0.1464513386 3.72295731e-21)
(99.93324338 0.2405726766 -4.675048722e-23)
(99.89909909 0.3835911115 0)
(99.88079498 0.5119333266 -6.487533033e-21)
(99.84356734 0.7471866233 -5.982267921e-21)
(99.81582287 1.03882746 -1.032371843e-20)
(99.8139561 1.354598578 -4.210030111e-21)
(99.85315597 1.630407163 -7.706898871e-21)
(99.9326127 1.783434937 -1.393676198e-22)
(100.0239369 1.763872753 3.737425506e-22)
(100.0966233 1.587220953 -5.413791179e-22)
(100.1314883 1.316668829 4.703525304e-21)
(100.134016 1.025125846 -9.023451289e-21)
(100.1148683 0.763956709 0)
(100.1194218 0.5715450068 -2.523361271e-20)
(100.0846337 0.3888085773 4.853106595e-20)
(100.0826031 0.2661751164 1.396547014e-20)
(100.0576695 0.1637818455 2.873101156e-20)
(100.0430279 0.08738632381 -2.881616966e-20)
(100.0375608 0.02758029725 1.453063667e-20)
(99.96855541 0.01076584313 -1.547769142e-20)
(99.95595981 0.03723671264 -3.1088579e-20)
(99.9286093 0.08025164721 -6.965499643e-20)
(99.88283939 0.1505803205 9.266012787e-20)
(99.86074781 0.2293573999 -7.647254478e-21)
(99.78212309 0.3881659943 -7.424186006e-21)
(99.67697825 0.6320585894 -1.287793245e-20)
(99.61845294 0.8975391004 0)
(99.4988526 1.34458467 2.481415382e-20)
(99.40641877 1.917550609 0)
(99.40563835 2.557748706 -1.824292363e-20)
(99.5553665 3.138642012 1.031123329e-19)
(99.85216907 3.486704601 -4.729206209e-21)
(100.1967939 3.456393225 1.481920371e-20)
(100.449926 3.073146136 0)
(100.5562866 2.51076431 7.190997526e-21)
(100.5390783 1.918464363 -9.673203801e-21)
(100.4577045 1.395375406 -2.252382145e-20)
(100.3942592 0.9730978536 -1.514312609e-19)
(100.2869471 0.6532755559 -3.350350351e-20)
(100.2280893 0.4022412655 -1.430612941e-20)
(100.1616423 0.2457399287 3.249733103e-20)
(100.1214019 0.1311431061 -3.650031439e-21)
(100.1039858 0.04122952074 0)
(99.94610735 0.008379682133 -7.805632292e-21)
(99.92201348 0.03130311865 5.46356136e-20)
(99.87056436 0.07476595897 -1.563244198e-20)
(99.78635047 0.1493038546 0)
(99.71953523 0.2591454149 0)
(99.56640975 0.4616441881 -6.013021815e-20)
(99.35289501 0.7837382641 -1.202440194e-19)
(99.18335527 1.174770471 2.819233661e-20)
(98.90274386 1.824382638 4.129563787e-20)
(98.67152954 2.680059813 -4.395887234e-20)
(98.60911341 3.718307327 3.783389477e-19)
(98.88725845 4.792449592 4.480066298e-19)
(99.60234712 5.505834696 -2.460908829e-20)
(100.4868429 5.462251408 0)
(101.0985549 4.721102686 2.030653035e-19)
(101.2946222 3.697180413 0)
(101.2165916 2.728168152 0)
(101.0150404 1.92886831 0)
(100.8149721 1.279364429 5.486703542e-20)
(100.5908654 0.8394938953 -4.2320085e-20)
(100.4310338 0.4804217246 -3.658991216e-20)
(100.3069797 0.289842275 1.85152684e-20)
(100.2299243 0.1529078569 -3.715182368e-21)
(100.194822 0.04768985021 0)
(99.93212918 0.0002057527622 0)
(99.89471625 0.007069516767 0)
(99.81555279 0.03699163115 7.901071377e-21)
(99.68533982 0.09766239628 1.192206639e-20)
(99.56421755 0.2223967898 1.969831951e-20)
(99.3134586 0.4366277887 0)
(98.96139527 0.78124313 0)
(98.61912419 1.265654867 2.970131651e-19)
(98.10491617 2.056184249 4.881583353e-19)
(97.59702574 3.17160469 0)
(97.25908547 4.738840624 -4.286117749e-19)
(97.56358808 6.679411448 8.566174069e-20)
(99.03244757 8.203370785 0)
(101.0498969 8.118978382 2.535101457e-20)
(102.2874324 6.649468815 2.728968315e-19)
(102.5232287 4.846900261 9.202031448e-20)
(102.2189648 3.362394262 -1.991950607e-19)
(101.7817126 2.283873367 -4.413426737e-22)
(101.357342 1.436059064 -9.031217625e-20)
(100.9712621 0.9164160269 7.514671309e-21)
(100.6657276 0.4796053133 0)
(100.4704007 0.284539483 3.785688302e-21)
(100.3484751 0.1462551772 -2.842864102e-21)
(100.2918033 0.0449610945 -9.42981233e-22)
(99.93912352 -0.01409824669 0)
(99.88816098 -0.03660869275 0)
(99.78164632 -0.03693511957 -1.582032466e-20)
(99.60342533 -0.00733957949 3.225016019e-20)
(99.42080824 0.1088560584 0)
(99.0647727 0.2928708007 0)
(98.55205219 0.6069625403 2.519905226e-20)
(98.00447106 1.109672017 -1.313432806e-19)
(97.19950476 1.888687608 -5.681284725e-19)
(96.20087644 3.133634906 5.783048041e-19)
(95.13202853 5.250598927 0)
(94.84466873 8.75951242 0)
(97.71553181 12.4795337 0)
(102.4710326 12.03529803 1.084610177e-19)
(104.5588935 8.773355876 -9.68817288e-19)
(104.4501452 5.782810627 0)
(103.5865512 3.694492522 0)
(102.7064147 2.355181131 0)
(101.9767613 1.390574824 2.320123554e-20)
(101.3837717 0.8505951379 -1.553505609e-20)
(100.9023988 0.3881636777 0)
(100.6254162 0.2217929712 0)
(100.4546853 0.1069949479 -9.561045849e-22)
(100.374751 0.03191570738 -2.86897689e-21)
(99.97906539 -0.03414937846 3.872534245e-21)
(99.91599821 -0.09812016948 -3.901803131e-21)
(99.7860893 -0.1441890731 7.961315264e-21)
(99.56618266 -0.1651657844 -2.910544709e-20)
(99.31663341 -0.08177184349 6.199302836e-23)
(98.86733931 0.03104390288 2.489537293e-20)
(98.20763097 0.2557040178 -4.275394697e-20)
(97.47367765 0.6652074121 2.889217311e-19)
(96.35066385 1.284583362 3.178530456e-19)
(94.7389167 2.33992558 0)
(92.33366091 4.358293456 -9.526198756e-19)
(88.905486 9.493330658 -4.069585213e-19)
(93.41516584 20.56423261 0)
(107.3040068 17.84476343 0)
(108.751197 10.41705051 -1.582014512e-19)
(107.1600054 5.964315879 3.456428593e-19)
(105.2479373 3.45399106 5.696006986e-19)
(103.709667 2.039371951 5.211335999e-20)
(102.5781146 1.08553627 0)
(101.7741128 0.6119174002 8.456117424e-21)
(101.1006971 0.2056119371 2.508048568e-21)
(100.7423008 0.09692847519 -2.968321829e-21)
(100.5257285 0.03466132289 -3.381420832e-21)
(100.4232536 0.008584048935 8.143218113e-21)
(100.062188 -0.05876199045 -3.872949464e-21)
(99.99001708 -0.173627997 3.903212021e-21)
(99.84334632 -0.2772165476 -4.955130285e-21)
(99.59377523 -0.3637899082 -3.333905845e-21)
(99.2879721 -0.3360979398 1.42107809e-20)
(98.76856629 -0.3268385077 8.468663006e-21)
(98.00618412 -0.249662404 3.143624257e-20)
(97.14487645 -0.02017763268 -3.771596172e-19)
(95.79568671 0.2819570803 0)
(93.77400976 0.7642744568 7.675936048e-19)
(90.41292132 1.444148364 -1.315047099e-20)
(83.74573726 2.388123477 5.699696369e-19)
(120.6556774 21.61831855 -3.419863065e-19)
(114.9213647 9.175450392 1.654047814e-18)
(110.2360695 4.624841921 0)
(106.8801035 2.406729303 1.80735226e-19)
(104.6194577 1.262218044 0)
(103.0450586 0.5141939393 -4.481434518e-21)
(102.0704335 0.2142141535 1.910519504e-20)
(101.2157605 -0.063235675 -3.057822552e-21)
(100.7916527 -0.08163015068 2.50355839e-21)
(100.5390614 -0.06623799555 -4.777359902e-22)
(100.4176553 -0.02397086523 -7.654157634e-21)
(100.1959111 -0.08615867374 -1.869904347e-21)
(100.1186986 -0.2576253175 -1.405513527e-21)
(99.96372787 -0.4255787909 -4.816328496e-22)
(99.69969652 -0.5864686635 1.460284594e-21)
(99.35347586 -0.6303057959 -2.701509688e-23)
(98.79969956 -0.7425389828 0)
(97.99745319 -0.8406436044 -1.578248239e-20)
(97.08747663 -0.8290472824 3.072401309e-19)
(95.68535582 -0.887850506 -5.311548245e-19)
(93.68461434 -1.017762693 -3.665156353e-19)
(90.78139 -1.550641292 2.194812732e-19)
(87.33242379 -3.351935829 4.714861829e-19)
(133.588829 8.127784134 -2.174166523e-18)
(119.5784891 3.408854621 -6.988123961e-20)
(112.4394746 1.512121955 1.193863836e-19)
(107.9865567 0.5556454382 -1.77908209e-19)
(105.1912963 0.08570553641 8.039800551e-20)
(103.2777154 -0.2619733824 -4.581993685e-21)
(102.197803 -0.3114769906 1.074728747e-20)
(101.2139297 -0.392678847 1.050299033e-21)
(100.7499501 -0.2978297095 0)
(100.4756737 -0.1871527498 3.861180412e-21)
(100.3419534 -0.06311668012 3.816908594e-21)
(100.3838266 -0.1142330456 3.68567692e-21)
(100.3060588 -0.3436356742 5.491358494e-23)
(100.1519682 -0.577176396 0)
(99.88980173 -0.8144240982 1.922019703e-22)
(99.52252774 -0.9371359931 -1.955294683e-21)
(98.97112616 -1.172363894 2.08418145e-21)
(98.19077327 -1.443133169 -3.611819054e-20)
(97.30486105 -1.635951985 -3.030698594e-19)
(95.98616591 -1.990797154 -1.756849843e-19)
(94.20598562 -2.503594477 -2.358001562e-20)
(91.90318678 -3.399026886 2.058746595e-19)
(89.67726914 -4.726366099 3.494567343e-19)
(132.0717483 -7.255908198 -1.094840094e-18)
(119.74032 -3.811570793 -1.464194419e-18)
(112.7004547 -2.387802089 1.214347259e-19)
(108.1309696 -1.690960236 -9.045665203e-20)
(105.2353938 -1.30000175 1.399455362e-21)
(103.2036172 -1.134858053 3.886776144e-20)
(102.1111831 -0.9019490205 0)
(101.0748836 -0.747037349 -1.029824044e-21)
(100.6030535 -0.5297146016 -4.275987262e-21)
(100.3242039 -0.3166273621 4.771465418e-22)
(100.1864594 -0.1051273645 0)
(100.6253651 -0.1409511195 -1.815614328e-21)
(100.5512609 -0.4252773146 1.831916546e-21)
(100.4064186 -0.7202240668 1.788735397e-21)
(100.162582 -1.029776148 -1.67300944e-21)
(99.79120426 -1.230544869 -1.931032931e-21)
(99.27433589 -1.576147118 0)
(98.56183614 -1.997444501 -3.659111851e-20)
(97.74831113 -2.360883591 -3.284720553e-19)
(96.56892843 -2.928204076 1.608634998e-19)
(95.00865623 -3.662428013 0)
(93.02445205 -4.672264167 -5.489493072e-19)
(91.09977482 -5.741401635 -3.568262135e-19)
(124.175886 -16.12652314 8.23262357e-19)
(116.412182 -9.315871106 -2.9137896e-19)
(111.1090745 -5.752713781 -1.608454731e-19)
(107.2869095 -3.758519565 -8.372689892e-21)
(104.7197523 -2.623952942 -2.941616665e-19)
(102.8125949 -1.971244641 0)
(101.8066437 -1.476771737 -2.551010713e-20)
(100.796021 -1.087488468 -1.293534392e-20)
(100.3489585 -0.7532596304 9.735132666e-22)
(100.0826624 -0.4421137681 -3.093468551e-21)
(99.94923118 -0.1459841968 4.526816528e-22)
(100.9160014 -0.1645231855 6.666114415e-21)
(100.8492595 -0.4968544868 0)
(100.7200772 -0.8429680793 -1.785243283e-21)
(100.5061137 -1.222183911 0)
(100.1420589 -1.489496051 0)
(99.68939099 -1.922747961 -5.752443167e-21)
(99.07534972 -2.463561325 -3.980119283e-21)
(98.36309476 -2.959827276 1.379016063e-19)
(97.34634254 -3.680556981 -6.151636014e-19)
(95.9814609 -4.580609162 1.639994074e-20)
(94.16390853 -5.743340457 -5.01926582e-19)
(92.25148652 -6.878675865 -8.426212376e-20)
(115.4272371 -19.56952794 -1.670632451e-20)
(111.6590229 -12.17901516 4.457412183e-19)
(108.4607914 -7.872718893 0)
(105.7614559 -5.249289102 -4.50818494e-19)
(103.7695521 -3.672881317 -2.819969028e-19)
(102.1592385 -2.661248746 2.046148789e-21)
(101.3156826 -1.969075418 -3.116352602e-20)
(100.3943013 -1.383804227 7.649318725e-21)
(99.99827308 -0.9467253701 0)
(99.75818237 -0.5524118331 3.562270331e-21)
(99.63608057 -0.1820950635 0)
(101.2482943 -0.1842821385 6.657605099e-21)
(101.1912002 -0.557258611 1.051634342e-19)
(101.0808166 -0.9448925943 -2.11938951e-19)
(100.9000708 -1.377849609 -6.279136957e-22)
(100.5773614 -1.694435569 -1.679760616e-21)
(100.1932833 -2.191629972 0)
(99.69629212 -2.817388089 0)
(99.10036984 -3.404709958 -1.280548523e-19)
(98.27080028 -4.231694891 0)
(97.12702031 -5.276079183 -2.880971381e-19)
(95.53278861 -6.691512523 -2.93982734e-19)
(93.70462107 -8.171291932 0)
(103.5807199 -28.87096468 0)
(107.1903438 -18.36009778 4.523949052e-19)
(106.9925786 -12.65431934 -4.462612059e-20)
(105.5836713 -8.679416308 0)
(103.958101 -6.040156307 -3.154442075e-19)
(102.5806628 -4.342297385 -1.279576976e-19)
(101.3390685 -3.138520786 -6.250286831e-20)
(100.691459 -2.332628166 0)
(99.90400931 -1.613548782 0)
(99.57119776 -1.095634344 1.11898745e-20)
(99.36519171 -0.6398331923 2.060701715e-21)
(99.25923612 -0.2108806894 -6.687083725e-21)
(101.6123186 -0.1983300521 0)
(101.5662954 -0.6008026007 0)
(101.477813 -1.017266675 0)
(101.3324631 -1.480618804 0)
(101.0534283 -1.845461617 0)
(100.7400423 -2.389828407 0)
(100.3572296 -3.06827459 5.236108245e-20)
(99.89947088 -3.700998629 -2.864473907e-20)
(99.27056666 -4.58149331 0)
(98.4016157 -5.711969881 0)
(97.23581368 -7.368813889 5.963798449e-20)
(95.99344968 -9.816830584 6.504239587e-20)
(96.52159274 -18.67561114 -3.937382114e-20)
(102.1586226 -15.09566559 0)
(103.3731043 -11.51998518 -4.371012145e-20)
(103.0559449 -8.477859416 0)
(102.2081237 -6.218816563 -6.318147994e-19)
(101.3333806 -4.635992595 -1.022861348e-19)
(100.4534435 -3.397028177 -8.720677817e-20)
(99.9943725 -2.558060053 -3.280241749e-20)
(99.35971794 -1.758424199 -1.822905348e-20)
(99.09125341 -1.196947165 1.79839993e-20)
(98.92250256 -0.7008095581 0)
(98.83498968 -0.2309484167 1.794701235e-20)
(101.997894 -0.2065889448 0)
(101.9637528 -0.626666412 0)
(101.8993325 -1.059729418 0)
(101.7910254 -1.53367906 0)
(101.5554651 -1.92498734 0)
(101.323536 -2.487036107 0)
(101.0522656 -3.164180222 2.333306973e-20)
(100.7249622 -3.823363111 5.941263843e-19)
(100.2985239 -4.690594503 8.280656654e-19)
(99.72627114 -5.772505464 0)
(99.13512777 -7.268022274 1.094357732e-19)
(98.78880382 -9.469395315 2.908908907e-19)
(97.93282147 -11.92452827 0)
(100.1045776 -11.53357482 0)
(101.0788867 -9.742647725 -6.860390992e-21)
(101.1206193 -7.71589183 -2.881494394e-19)
(100.6996716 -5.978099672 -3.404098672e-19)
(100.1719015 -4.642713628 -2.335281442e-20)
(99.57795608 -3.471665584 0)
(99.28452768 -2.658879364 0)
(98.79003585 -1.824423494 -3.399422006e-20)
(98.58194904 -1.25055574 1.67762956e-20)
(98.45013035 -0.7343454016 7.019144185e-22)
(98.38101781 -0.2420159504 -1.236797096e-20)
(102.3942374 -0.2093037223 0)
(102.3713579 -0.6351150459 0)
(102.3297816 -1.072842098 0)
(102.2563169 -1.542788899 0)
(102.0619902 -1.944616275 0)
(101.902481 -2.498506467 0)
(101.7277051 -3.143282097 0)
(101.5060252 -3.800307526 0)
(101.2472266 -4.599807165 -8.219135904e-20)
(100.8906101 -5.540082237 0)
(100.6317535 -6.681944297 0)
(97.66121665 -7.598540429 -1.170953586e-19)
(98.7659734 -9.034229969 1.020520627e-19)
(99.41331046 -8.983566813 -2.804729772e-20)
(99.76021774 -8.06495515 -6.329434687e-19)
(99.74287799 -6.770946274 -2.333396494e-19)
(99.48677666 -5.509918627 0)
(99.15862605 -4.440143402 0)
(98.77685927 -3.406040988 -2.880906411e-20)
(98.59906709 -2.651116067 4.372486701e-20)
(98.22172084 -1.824307331 1.058660173e-20)
(98.06609763 -1.261715616 1.805440525e-20)
(97.96692621 -0.742845345 -2.05108415e-20)
(97.91417152 -0.2448239341 0)
(102.7911826 -0.2071866857 0)
(102.7780765 -0.6283268374 0)
(102.7558594 -1.060206193 0)
(102.7120377 -1.514550383 0)
(102.5547418 -1.913487685 0)
(102.4546216 -2.439986434 0)
(102.3548988 -3.030856536 0)
(102.2135149 -3.646870041 6.39298199e-20)
(102.0555389 -4.363689034 -6.570481296e-20)
(101.8152386 -5.131537334 2.980047243e-20)
(101.6649656 -5.943038924 -1.410406491e-20)
(95.43483864 -6.036202467 -3.019372815e-19)
(99.22143528 -7.239602775 0)
(99.09097364 -7.219960242 0)
(98.96426917 -6.684260216 -2.318080775e-19)
(98.78147512 -5.854445172 0)
(98.54910856 -4.966232318 0)
(98.32037936 -4.12780391 0)
(98.064477 -3.239709751 0)
(97.96212186 -2.561508044 0)
(97.67602255 -1.772907811 3.670351538e-20)
(97.56213059 -1.237831714 -3.433864713e-20)
(97.48889299 -0.7301167894 -2.317863839e-21)
(97.44923012 -0.2409606377 2.325528712e-21)
(103.1799099 -0.2011332576 0)
(103.174794 -0.6091841967 0)
(103.1678138 -1.026698003 0)
(103.1472952 -1.4564971 0)
(103.0210705 -1.84147117 0)
(102.9649149 -2.328663903 0)
(102.9161898 -2.856593227 0)
(102.8240906 -3.40359774 0)
(102.714291 -4.014523413 2.718579615e-20)
(102.4942347 -4.628427716 -2.432766162e-20)
(102.3673636 -5.220030654 6.040306122e-19)
(94.98605865 -5.201525666 2.132787635e-19)
(99.38607291 -5.984308111 -8.504821517e-20)
(98.85160031 -5.944281579 1.180843623e-21)
(98.43122192 -5.600564722 0)
(98.10493389 -5.053270397 8.987823207e-24)
(97.83835303 -4.41568756 0)
(97.63835856 -3.759776122 0)
(97.44559432 -3.009786003 0)
(97.38587623 -2.414045485 0)
(97.1652428 -1.682863092 0)
(97.0818625 -1.185439202 0)
(97.02818886 -0.7015125934 0)
(96.99827183 -0.2324519098 0)
(103.5535342 -0.192049071 0)
(103.5545731 -0.5806068578 0)
(103.5587225 -0.9773790843 0)
(103.5550452 -1.376910292 0)
(103.4527016 -1.740044325 0)
(103.4256432 -2.182163501 0)
(103.4062727 -2.646158358 0)
(103.3372792 -3.120149076 0)
(103.2365964 -3.617087311 0)
(102.996217 -4.098312137 -4.538808067e-21)
(102.697135 -4.518722532 -5.791899703e-20)
(95.99489578 -4.621354006 -2.801285201e-22)
(99.42858784 -5.020588039 -1.826691068e-22)
(98.6691756 -4.978565786 1.968334392e-20)
(98.06904183 -4.747784274 0)
(97.62261813 -4.366922659 0)
(97.29778645 -3.892315135 0)
(97.08787624 -3.376297253 0)
(96.91791924 -2.749294793 0)
(96.87596797 -2.234359325 0)
(96.69677483 -1.569181836 0)
(96.63320145 -1.114331217 0)
(96.59234814 -0.6611589686 0)
(96.56990223 -0.219613952 0)
(103.9070614 -0.1808203657 0)
(103.9124586 -0.5454315769 0)
(103.9238483 -0.9171371713 0)
(103.9309937 -1.283607845 0)
(103.8456594 -1.620134264 0)
(103.8349202 -2.015605918 0)
(103.8281152 -2.421241525 0)
(103.7633795 -2.824465583 0)
(103.6485564 -3.226708588 0)
(103.3764627 -3.598413096 0)
(102.8778673 -3.892967957 0)
(96.7265826 -4.016301648 0)
(99.46849768 -4.252800066 0)
(98.55684808 -4.221021042 0)
(97.81854756 -4.055239668 0)
(97.26866232 -3.776287096 0)
(96.88146391 -3.415360705 0)
(96.64248607 -3.005152539 0)
(96.47166099 -2.481544269 0)
(96.42983599 -2.040402936 0)
(96.27347268 -1.443444338 0)
(96.22080098 -1.032359016 0)
(96.18707285 -0.6139158924 0)
(96.16921736 -0.2043432594 0)
(104.2372126 -0.1682690849 0)
(104.2453297 -0.5062702527 0)
(104.2605025 -0.8503672225 0)
(104.2732281 -1.183198977 0)
(104.1991399 -1.490839889 0)
(104.1945826 -1.841229013 0)
(104.187238 -2.194735386 0)
(104.1159255 -2.534411684 0)
(103.9747301 -2.860570388 0)
(103.6645581 -3.150403361 0)
(102.9826332 -3.362706085 0)
(97.24469686 -3.485827543 0)
(99.49327641 -3.632908675 -2.843807048e-35)
(98.4746505 -3.605716048 0)
(97.63444893 -3.481317666 0)
(97.00154957 -3.270418513 0)
(96.55593233 -2.99032988 0)
(96.28025785 -2.6609915 0)
(96.09451346 -2.222146541 0)
(96.04175062 -1.845074476 0)
(95.89482264 -1.314068334 0)
(95.84606382 -0.9456441879 0)
(95.81494172 -0.5634622041 0)
(95.79949111 -0.1879558993 0)
(104.5421872 -0.155095499 0)
(104.5516415 -0.4653502361 0)
(104.5677609 -0.7808151945 0)
(104.5817527 -1.080771549 0)
(104.514581 -1.359183557 0)
(104.5086162 -1.667813593 0)
(104.4918269 -1.974737899 0)
(104.4076235 -2.260119616 0)
(104.2348713 -2.525773318 0)
(103.8858757 -2.754440615 0)
(103.0438672 -2.909878448 0)
(97.65045904 -3.030754983 0)
(99.50289916 -3.123001119 0)
(98.41048581 -3.09782293 0)
(97.49429423 -3.001055445 0)
(96.79506878 -2.837381118 0)
(96.29758585 -2.616064906 0)
(95.9843755 -2.349128035 0)
(95.77478084 -1.979768074 0)
(95.7049886 -1.656722897 0)
(95.55831773 -1.186970613 0)
(95.50836022 -0.8587556106 0)
(95.47652164 -0.5125599949 0)
(95.46177247 -0.1713639085 0)
(104.8214326 -0.1418534966 0)
(104.831121 -0.424416354 0)
(104.8460363 -0.7114304085 0)
(104.8579971 -0.9801570648 0)
(104.7943279 -1.230246641 0)
(104.7818104 -1.501167638 0)
(104.7499779 -1.765986574 0)
(104.6493668 -2.007021156 0)
(104.4440624 -2.224426545 0)
(104.0584402 -2.406882451 0)
(103.0789029 -2.521942927 0)
(97.96964838 -2.640423641 0)
(99.5025982 -2.697094702 -3.530926199e-35)
(98.3586173 -2.673357719 0)
(97.38458775 -2.596073835 0)
(96.63220466 -2.466326165 0)
(96.08967606 -2.288678797 0)
(95.74037906 -2.069943652 0)
(95.50321408 -1.757739731 0)
(95.41288157 -1.480275415 0)
(95.26043487 -1.066100545 0)
(95.20580007 -0.7748603969 0)
(95.17096921 -0.463149627 0)
(95.15566642 -0.1552018441 0)
(105.0753729 -0.1289602548 0)
(105.0844468 -0.3847517392 0)
(105.0966193 -0.6443639295 0)
(105.1042009 -0.8840783186 0)
(105.0414772 -1.10749367 0)
(105.0190895 -1.344742261 0)
(104.9696259 -1.572571895 0)
(104.8502266 -1.777018797 0)
(104.6136671 -1.955994403 0)
(104.1945912 -2.10309238 0)
(103.098471 -2.188964867 0)
(98.22172931 -2.304928706 0)
(99.49580092 -2.337960429 0)
(98.31571695 -2.315499162 0)
(97.29685549 -2.252604358 0)
(96.50156988 -2.148008641 0)
(95.92024616 -2.003517689 0)
(95.53737262 -1.822497072 0)
(95.27175041 -1.557407811 0)
(95.15930651 -1.318386503 0)
(94.99731056 -0.9538793906 0)
(94.93579132 -0.6960043275 0)
(94.89650208 -0.4165147258 0)
(94.87975937 -0.1398945029 0)
(105.3051139 -0.1167182151 0)
(105.3129406 -0.347260712 0)
(105.3213204 -0.5811042548 0)
(105.3229502 -0.7943634228 0)
(105.2593032 -0.9931579841 0)
(105.2250351 -1.200636624 0)
(105.156739 -1.39669575 0)
(105.0178203 -1.570562548 0)
(104.7522885 -1.71878029 0)
(104.30286 -1.83841699 0)
(103.1092803 -1.902910753 0)
(98.42227056 -2.016271406 0)
(99.48471709 -2.033404282 1.113249058e-35)
(98.27967407 -2.012146634 0)
(97.22557177 -1.960261995 0)
(96.39535695 -1.874830428 0)
(95.78070133 -1.756012232 0)
(95.36712388 -1.604904382 0)
(95.07359334 -1.378787967 0)
(94.93879985 -1.172185732 0)
(94.76508385 -0.8516083421 0)
(94.69540248 -0.6234096424 0)
(94.65078711 -0.3734493785 0)
(94.63200712 -0.125710335 0)
(105.5122143 -0.1053362631 0)
(105.5183409 -0.3125506889 0)
(105.522255 -0.5226268294 0)
(105.5169544 -0.71213693 0)
(105.4510829 -0.8885436783 0)
(105.4038759 -1.069960371 0)
(105.3164628 -1.238940977 0)
(105.158277 -1.3871255 0)
(104.8664847 -1.510589718 0)
(104.389423 -1.608576098 0)
(103.115491 -1.657297592 0)
(98.58371401 -1.76798237 0)
(99.47081407 -1.774357734 0)
(98.2490414 -1.754259518 0)
(97.16695775 -1.711026991 0)
(96.30803938 -1.640531432 0)
(95.66471457 -1.541925262 0)
(95.2233227 -1.41482576 0)
(94.90316111 -1.221094032 0)
(94.74656953 -1.041831025 0)
(94.56005066 -0.7598177343 0)
(94.48158409 -0.5577077186 0)
(94.43120767 -0.3343876354 0)
(94.41001448 -0.1128014937 0)
(105.6985333 -0.09494742135 0)
(105.7026515 -0.2809958797 0)
(105.7017128 -0.469516587 0)
(105.6889424 -0.6380059266 0)
(105.6199339 -0.794318387 0)
(105.5593785 -0.9531008512 0)
(105.4531638 -1.099111405 0)
(105.276515 -1.225684128 0)
(104.9612447 -1.329141281 0)
(104.4589151 -1.40985979 0)
(103.1196332 -1.446882965 0)
(98.71574199 -1.554800557 0)
(99.45509438 -1.553925934 0)
(98.22278184 -1.534957326 0)
(97.11832897 -1.498658749 0)
(96.23560714 -1.44000495 0)
(95.56754481 -1.357515694 0)
(95.10106752 -1.249858655 0)
(94.75588028 -1.08314714 0)
(94.57847547 -0.9269215625 0)
(94.37873579 -0.6785371496 0)
(94.29130223 -0.4991180018 0)
(94.23502856 -0.2995048762 0)
(94.2112086 -0.1012353776 0)
(105.8661205 -0.08562618538 0)
(105.8680317 -0.2527936431 0)
(105.8620598 -0.4220682064 0)
(105.8415907 -0.5722086749 0)
(105.7688181 -0.7106771038 0)
(105.6949272 -0.8499552236 0)
(105.5705814 -0.9765616714 0)
(105.3765508 -1.084956082 0)
(105.040418 -1.172200458 0)
(104.514912 -1.239047167 0)
(103.123165 -1.267353161 0)
(98.82578774 -1.372420214 0)
(99.43827064 -1.366740219 0)
(98.20011655 -1.348862288 0)
(97.07768988 -1.318190313 0)
(96.17504399 -1.269032891 0)
(95.48553068 -1.199504993 0)
(94.99645222 -1.107682184 0)
(94.6279272 -0.9635659948 0)
(94.43088998 -0.8267152003 0)
(94.21792077 -0.6074819495 0)
(94.12161864 -0.4475858438 0)
(94.05950301 -0.2688012842 0)
(94.03295499 -0.09102121013 0)
(106.0170909 -0.07740624659 0)
(106.0166776 -0.2280191255 0)
(106.0056344 -0.3803791246 0)
(105.9774477 -0.5147513305 0)
(105.9004754 -0.6375361906 0)
(105.8135201 -0.7601527188 0)
(105.6718947 -0.8704472943 0)
(105.4616887 -0.9636035476 0)
(105.1070116 -1.037713039 0)
(104.5601986 -1.093380852 0)
(103.1268615 -1.115147712 0)
(98.91954572 -1.217393211 0)
(99.42082981 -1.208635704 0)
(98.18042391 -1.191759764 0)
(97.04350408 -1.165667221 0)
(96.12402249 -1.124164216 0)
(95.41579034 -1.065096485 0)
(94.90632086 -0.9861822484 0)
(94.51610101 -0.860954139 0)
(94.3006587 -0.7403299062 0)
(94.07467482 -0.5462061201 0)
(93.96976609 -0.4028963787 0)
(93.90197663 -0.2421723613 0)
(93.87267401 -0.08213299459 0)
(106.1536221 -0.07029210182 0)
(106.1508184 -0.2066628317 0)
(106.1347537 -0.3444131726 0)
(106.0989674 -0.4654825921 0)
(106.0174407 -0.5746432215 0)
(105.9178353 -0.6831870327 0)
(105.759759 -0.7797482102 0)
(105.5347111 -0.8603272276 0)
(105.16344 -0.9238233905 0)
(104.5969741 -0.9704883487 0)
(103.1310701 -0.9873137882 0)
(99.0014653 -1.086781469 0)
(99.40309113 -1.076262098 0)
(98.16316957 -1.060270271 0)
(97.01453504 -1.037884981 0)
(96.08068238 -1.002543952 0)
(95.35598414 -0.951905961 0)
(94.82802375 -0.8834606701 0)
(94.41768444 -0.7739884951 0)
(94.1850072 -0.6668521035 0)
(93.94628348 -0.4941813643 0)
(93.83311658 -0.3647460938 0)
(93.75987536 -0.2194525267 0)
(93.72783349 -0.07452307175 0)
(106.2777096 -0.06427488178 0)
(106.2724963 -0.188672163 0)
(106.2515174 -0.3140532634 0)
(106.2083388 -0.4242145491 0)
(106.1220432 -0.5216491734 0)
(106.0102949 -0.6184899578 0)
(105.8365366 -0.7032513378 0)
(105.5978955 -0.7739804487 0)
(105.2116721 -0.8289050401 0)
(104.6270007 -0.8683625228 0)
(103.1358643 -0.8814490337 0)
(99.07501588 -0.9781459983 0)
(99.38530184 -0.966903864 -1.339089303e-36)
(98.14788459 -0.9516744123 0)
(96.98975622 -0.9322482336 0)
(96.04350199 -0.9018233389 0)
(95.30419251 -0.8579383692 0)
(94.7593581 -0.7980987138 0)
(94.33027647 -0.7015898103 0)
(94.08146627 -0.6053864863 0)
(93.83038772 -0.4509090524 0)
(93.70934404 -0.3327964206 0)
(93.63089585 -0.2004584067 0)
(93.59616542 -0.06813863205 0)
(106.3918769 -0.05932285883 0)
(106.384216 -0.1739462065 0)
(106.3584155 -0.289126424 0)
(106.308066 -0.3905961186 0)
(106.2164691 -0.478173173 0)
(106.0930976 -0.5654053854 0)
(105.9046402 -0.640357468 0)
(105.6531309 -0.7033995795 0)
(105.2533574 -0.751536644 0)
(104.6517224 -0.7853162653 0)
(103.1412055 -0.7956117979 0)
(99.14289074 -0.8895623148 0)
(99.3676561 -0.8783878957 0)
(98.13415122 -0.86379187 0)
(96.96828947 -0.8466639483 0)
(96.01120068 -0.8200778349 0)
(95.25881883 -0.7815026276 0)
(94.69863613 -0.7286774933 0)
(94.25165703 -0.6427549172 0)
(93.98781307 -0.555128835 0)
(93.72438195 -0.415793168 0)
(93.59582338 -0.3067032752 0)
(93.51237037 -0.1849835756 0)
(93.47496943 -0.06291200529 0)
(106.4964333 -0.05544718404 0)
(106.4864195 -0.1624624617 0)
(106.4559754 -0.2694954171 0)
(106.3987513 -0.3647176606 0)
(106.3027467 -0.4437468447 0)
(106.1682226 -0.5232960384 0)
(105.9662721 -0.5911366199 0)
(105.7021414 -0.6474413218 0)
(105.2899537 -0.6904830098 0)
(104.6723609 -0.7199329285 0)
(103.147048 -0.7282249414 0)
(99.20718967 -0.8194337877 0)
(99.35029972 -0.808952743 0)
(98.12158545 -0.7948642693 0)
(96.94935573 -0.7794364877 0)
(95.98264968 -0.7557267768 0)
(95.21842582 -0.7211533895 0)
(94.64417516 -0.6734903485 0)
(94.18004609 -0.5962376823 0)
(93.90197223 -0.5151791791 0)
(93.62759472 -0.3887379303 0)
(93.4919033 -0.2861813529 0)
(93.40369946 -0.1729212949 0)
(93.3637749 -0.0588275233 0)
(106.5997033 -0.05250578179 0)
(106.5870159 -0.153931162 0)
(106.5517617 -0.2548774537 0)
(106.4871588 -0.3447508443 0)
(106.3831906 -0.4181467261 0)
(106.2373923 -0.4919307095 0)
(106.0225302 -0.5550514337 0)
(105.7466853 -0.6053911979 0)
(105.3227744 -0.6447575623 0)
(104.6899775 -0.6710768938 0)
(103.1533701 -0.6780565198 0)
(99.26952389 -0.7664846681 0)
(99.33336128 -0.7572175145 0)
(98.10983438 -0.7435125498 0)
(96.93225058 -0.7292327092 0)
(95.95683634 -0.7075258811 0)
(95.18169175 -0.6757855602 0)
(94.59411273 -0.6317444805 0)
(94.11398159 -0.5611726721 0)
(93.8222541 -0.4855402708 0)
(93.53323181 -0.3677277065 0)
(93.38997777 -0.2708530265 0)
(93.29692106 -0.1639127943 0)
(93.25416209 -0.05571432358 0)
(106.678913 -0.05088419796 0)
(106.6644534 -0.1490120465 0)
(106.6254657 -0.2460216562 0)
(106.5559869 -0.3348948823 0)
(106.4576648 -0.4007224856 0)
(106.3021298 -0.4707159348 0)
(106.0748789 -0.5310900922 0)
(105.7880587 -0.5766340732 0)
(105.3529728 -0.6135699197 0)
(104.7055329 -0.6378498 0)
(103.1601961 -0.6441838507 0)
(99.33113139 -0.7297931822 0)
(99.31693413 -0.7221397303 0)
(98.09855909 -0.7086743062 0)
(96.9163201 -0.6950184148 0)
(95.93284325 -0.6745091748 0)
(95.14747081 -0.6445510937 0)
(94.54728888 -0.6028758586 0)
(94.05191033 -0.5371229949 0)
(93.74724367 -0.4653139017 0)
(93.45908003 -0.3568833331 0)
(93.31073946 -0.2614400541 0)
(93.21394266 -0.158630033 0)
(93.16935461 -0.05398118802 0)
(106.8286352 -0.04926825344 0)
(106.8104639 -0.1451296622 0)
(106.7643241 -0.2393333673 0)
(106.6823167 -0.3239119704 0)
(106.5269153 -0.3920149138 0)
(106.3609351 -0.4597644094 0)
(106.1226183 -0.5192030896 0)
(105.8274564 -0.5606108886 0)
(105.3815653 -0.5962511493 0)
(104.7199533 -0.6195308961 0)
(103.1676216 -0.6259939502 0)
(99.3927284 -0.7088693311 0)
(99.30107434 -0.7029525959 0)