# Force       
# CofR        : (4.974613e-01 -1.671896e-02 1.250000e-01)
#
# Time        	(total_x total_y total_z)	(pressure_x pressure_y pressure_z)	(viscous_x viscous_y viscous_z)
1             	(1.972338e+03 5.371971e+03 1.059305e-15)	(1.970598e+03 5.371962e+03 1.059367e-15)	(1.740045e+00 8.640286e-03 -6.206409e-20)
2             	(6.487577e+02 2.309518e+03 3.752994e-16)	(6.474943e+02 2.310177e+03 3.755728e-16)	(1.263441e+00 -6.583028e-01 -2.733643e-19)
3             	(-6.370326e+02 -8.816664e+02 -3.139566e-16)	(-6.381273e+02 -8.808930e+02 -3.135648e-16)	(1.094639e+00 -7.734538e-01 -3.917238e-19)
4             	(-1.084843e+03 -2.254215e+03 -5.669794e-16)	(-1.086172e+03 -2.253992e+03 -5.669928e-16)	(1.328348e+00 -2.234790e-01 1.340405e-20)
5             	(-5.201630e+02 -1.266408e+03 -2.940459e-16)	(-5.221649e+02 -1.266632e+03 -2.960837e-16)	(2.001883e+00 2.245292e-01 2.037858e-18)
6             	(2.576588e+02 3.617567e+02 1.138239e-16)	(2.554818e+02 3.614813e+02 1.143775e-16)	(2.176991e+00 2.753866e-01 -5.535241e-19)
7             	(6.442286e+02 1.226469e+03 3.486638e-16)	(6.424193e+02 1.226452e+03 3.484385e-16)	(1.809323e+00 1.745113e-02 2.252894e-19)
8             	(4.083960e+02 8.720526e+02 2.460030e-16)	(4.068166e+02 8.722296e+02 2.463941e-16)	(1.579372e+00 -1.770290e-01 -3.911307e-19)
9             	(-2.868149e+01 1.778884e+02 2.041147e-17)	(-3.022085e+01 1.779713e+02 1.807987e-17)	(1.539359e+00 -8.299934e-02 2.331604e-18)
10            	(-2.656041e+02 -2.049616e+02 -1.358138e-16)	(-2.669018e+02 -2.049385e+02 -1.356227e-16)	(1.297690e+00 -2.302904e-02 -1.911664e-19)
11            	(-2.027836e+02 -8.244260e+01 -1.251139e-16)	(-2.041438e+02 -8.259796e+01 -1.250605e-16)	(1.360241e+00 1.553561e-01 -5.339273e-20)
12            	(-1.533052e+01 1.582012e+02 -3.284824e-17)	(-1.718037e+01 1.579739e+02 -3.153260e-17)	(1.849848e+00 2.272912e-01 -1.315640e-18)
13            	(1.030395e+02 2.454196e+02 2.909584e-17)	(1.010600e+02 2.453344e+02 2.912549e-17)	(1.979510e+00 8.519746e-02 -2.965575e-20)
14            	(9.012887e+01 1.617367e+02 3.312243e-17)	(8.820724e+01 1.617521e+02 3.287832e-17)	(1.921632e+00 -1.547601e-02 2.441124e-19)
15            	(2.827608e+01 7.883353e+01 2.027524e-17)	(2.644726e+01 7.899182e+01 2.002888e-17)	(1.828822e+00 -1.582873e-01 2.463603e-19)
16            	(-8.864586e+00 1.047646e+02 8.114184e-18)	(-1.048027e+01 1.049038e+02 7.819431e-18)	(1.615681e+00 -1.391767e-01 2.947529e-19)
17            	(2.491349e+00 2.126140e+02 8.363434e-18)	(9.924789e-01 2.126753e+02 8.199933e-18)	(1.498870e+00 -6.129959e-02 1.635008e-19)
18            	(2.717389e+01 2.986410e+02 1.021461e-17)	(2.570975e+01 2.986568e+02 1.009564e-17)	(1.464144e+00 -1.585862e-02 1.189687e-19)
19            	(2.815121e+01 2.840455e+02 5.505429e-18)	(2.665620e+01 2.840667e+02 5.566302e-18)	(1.495007e+00 -2.123132e-02 -6.087326e-20)
20            	(5.646170e+00 1.829824e+02 -7.241810e-19)	(4.135166e+00 1.830271e+02 -6.522606e-19)	(1.511004e+00 -4.471589e-02 -7.192042e-20)
21            	(-1.154419e+01 9.439615e+01 3.824600e-19)	(-1.306442e+01 9.445741e+01 3.663524e-19)	(1.520233e+00 -6.125607e-02 1.610759e-20)
22            	(-7.514241e+00 6.816663e+01 8.198053e-18)	(-9.035992e+00 6.822776e+01 8.139762e-18)	(1.521751e+00 -6.113386e-02 5.829045e-20)
23            	(1.526689e+01 1.189482e+02 1.851747e-17)	(1.375705e+01 1.189994e+02 1.846774e-17)	(1.509841e+00 -5.117404e-02 4.972763e-20)
24            	(3.475123e+01 2.067583e+02 2.273795e-17)	(3.325231e+01 2.068050e+02 2.272543e-17)	(1.498916e+00 -4.670219e-02 1.251765e-20)
25            	(3.530393e+01 2.622765e+02 1.716185e-17)	(3.381601e+01 2.623263e+02 1.715287e-17)	(1.487920e+00 -4.978593e-02 8.980029e-21)
26            	(2.045783e+01 2.647306e+02 6.748116e-18)	(1.897813e+01 2.647831e+02 6.721986e-18)	(1.479703e+00 -5.254783e-02 2.613012e-20)
27            	(2.695820e+00 2.186464e+02 -1.728477e-18)	(1.226055e+00 2.186967e+02 -1.776440e-18)	(1.469766e+00 -5.024147e-02 4.796236e-20)
28            	(-4.246782e+00 1.636458e+02 -2.682837e-18)	(-5.705425e+00 1.636905e+02 -2.734657e-18)	(1.458644e+00 -4.464307e-02 5.182010e-20)
29            	(5.700974e-01 1.337960e+02 2.750273e-18)	(-8.794357e-01 1.338357e+02 2.709009e-18)	(1.449533e+00 -3.978716e-02 4.126448e-20)
30            	(1.074931e+01 1.352870e+02 1.020706e-17)	(9.305768e+00 1.353252e+02 1.017838e-17)	(1.443541e+00 -3.818209e-02 2.868032e-20)
31            	(1.981311e+01 1.707181e+02 1.579561e-17)	(1.837272e+01 1.707572e+02 1.577048e-17)	(1.440395e+00 -3.905843e-02 2.513384e-20)
32            	(2.108635e+01 2.090694e+02 1.612107e-17)	(1.964766e+01 2.091093e+02 1.608862e-17)	(1.438691e+00 -3.997293e-02 3.244948e-20)
33            	(1.726987e+01 2.284095e+02 1.297936e-17)	(1.583327e+01 2.284488e+02 1.293647e-17)	(1.436601e+00 -3.934029e-02 4.289176e-20)
34            	(1.237464e+01 2.292860e+02 8.872875e-18)	(1.094091e+01 2.293232e+02 8.821783e-18)	(1.433735e+00 -3.713926e-02 5.109262e-20)
35            	(7.900651e+00 2.072968e+02 5.237135e-18)	(6.470045e+00 2.073311e+02 5.183646e-18)	(1.430606e+00 -3.427475e-02 5.348827e-20)
36            	(6.684446e+00 1.791341e+02 4.066530e-18)	(5.256617e+00 1.791656e+02 4.017015e-18)	(1.427829e+00 -3.152910e-02 4.951546e-20)
37            	(8.110691e+00 1.654946e+02 4.991360e-18)	(6.685140e+00 1.655238e+02 4.945762e-18)	(1.425551e+00 -2.923352e-02 4.559803e-20)
38            	(1.014965e+01 1.668907e+02 6.743452e-18)	(8.726126e+00 1.669181e+02 6.700529e-18)	(1.423527e+00 -2.737198e-02 4.292227e-20)
39            	(1.226563e+01 1.835818e+02 8.541715e-18)	(1.084387e+01 1.836076e+02 8.499490e-18)	(1.421760e+00 -2.580436e-02 4.222438e-20)
40            	(1.325319e+01 2.049959e+02 9.271418e-18)	(1.183297e+01 2.050202e+02 9.226728e-18)	(1.420212e+00 -2.428362e-02 4.468982e-20)
41            	(1.274534e+01 2.165341e+02 8.689489e-18)	(1.132651e+01 2.165567e+02 8.640271e-18)	(1.418823e+00 -2.260208e-02 4.921791e-20)
42            	(1.136190e+01 2.148473e+02 7.338961e-18)	(9.944256e+00 2.148680e+02 7.283894e-18)	(1.417645e+00 -2.070574e-02 5.506659e-20)
43            	(9.766221e+00 2.019728e+02 5.989901e-18)	(8.349543e+00 2.019915e+02 5.930002e-18)	(1.416678e+00 -1.876070e-02 5.989837e-20)
44            	(8.907910e+00 1.883738e+02 5.433000e-18)	(7.491871e+00 1.883908e+02 5.372123e-18)	(1.416039e+00 -1.701687e-02 6.087684e-20)
45            	(8.899518e+00 1.814055e+02 5.705488e-18)	(7.483756e+00 1.814211e+02 5.646322e-18)	(1.415763e+00 -1.559093e-02 5.916567e-20)
46            	(9.394914e+00 1.825690e+02 6.468987e-18)	(7.979253e+00 1.825834e+02 6.414458e-18)	(1.415662e+00 -1.439598e-02 5.452933e-20)
47            	(1.006351e+01 1.916577e+02 7.219537e-18)	(8.648084e+00 1.916709e+02 7.170437e-18)	(1.415428e+00 -1.321783e-02 4.910029e-20)
48            	(1.034424e+01 2.011758e+02 7.454758e-18)	(8.929343e+00 2.011877e+02 7.407852e-18)	(1.414901e+00 -1.186896e-02 4.690549e-20)
49            	(1.016456e+01 2.060002e+02 7.159193e-18)	(8.750253e+00 2.060105e+02 7.111457e-18)	(1.414303e+00 -1.034227e-02 4.773613e-20)
50            	(9.809043e+00 2.059892e+02 6.596841e-18)	(8.395085e+00 2.059979e+02 6.546164e-18)	(1.413957e+00 -8.769577e-03 5.067639e-20)
51            	(9.386810e+00 2.006856e+02 6.025690e-18)	(7.972729e+00 2.006929e+02 5.970190e-18)	(1.414081e+00 -7.313768e-03 5.550014e-20)
52            	(9.098553e+00 1.941202e+02 5.703976e-18)	(7.683957e+00 1.941263e+02 5.644376e-18)	(1.414596e+00 -6.099112e-03 5.959991e-20)
53            	(9.045808e+00 1.907733e+02 5.698967e-18)	(7.630557e+00 1.907784e+02 5.637581e-18)	(1.415251e+00 -5.131081e-03 6.138686e-20)
54            	(9.096570e+00 1.913083e+02 5.870587e-18)	(7.680749e+00 1.913127e+02 5.809035e-18)	(1.415821e+00 -4.319566e-03 6.155177e-20)
55            	(9.193155e+00 1.953525e+02 6.087026e-18)	(7.776940e+00 1.953560e+02 6.026546e-18)	(1.416215e+00 -3.542568e-03 6.048024e-20)
56            	(9.315754e+00 2.007900e+02 6.264797e-18)	(7.899255e+00 2.007927e+02 6.206212e-18)	(1.416499e+00 -2.702543e-03 5.858487e-20)
57            	(9.382077e+00 2.044277e+02 6.343125e-18)	(7.965220e+00 2.044294e+02 6.286427e-18)	(1.416858e+00 -1.771226e-03 5.669783e-20)
58            	(9.359597e+00 2.046421e+02 6.321531e-18)	(7.942098e+00 2.046429e+02 6.266173e-18)	(1.417500e+00 -7.903126e-04 5.535787e-20)
59            	(9.244057e+00 2.017050e+02 6.238420e-18)	(7.825548e+00 2.017048e+02 6.183820e-18)	(1.418508e+00 1.617317e-04 5.460018e-20)
60            	(9.062062e+00 1.978619e+02 6.115238e-18)	(7.642316e+00 1.978609e+02 6.060521e-18)	(1.419745e+00 1.008543e-03 5.471653e-20)
61            	(8.884836e+00 1.953384e+02 5.984817e-18)	(7.463834e+00 1.953367e+02 5.929225e-18)	(1.421002e+00 1.708167e-03 5.559179e-20)
62            	(8.762304e+00 1.952131e+02 5.876921e-18)	(7.340154e+00 1.952108e+02 5.819854e-18)	(1.422150e+00 2.269402e-03 5.706625e-20)
63            	(8.764304e+00 1.979291e+02 5.820137e-18)	(7.341156e+00 1.979264e+02 5.761294e-18)	(1.423148e+00 2.748331e-03 5.884234e-20)
64            	(8.881647e+00 2.013880e+02 5.843267e-18)	(7.457550e+00 2.013848e+02 5.783464e-18)	(1.424096e+00 3.211874e-03 5.980291e-20)
65            	(9.003904e+00 2.035409e+02 5.914230e-18)	(7.578738e+00 2.035372e+02 5.854409e-18)	(1.425167e+00 3.695804e-03 5.982112e-20)
66            	(9.086750e+00 2.040412e+02 5.994452e-18)	(7.660278e+00 2.040370e+02 5.935358e-18)	(1.426472e+00 4.201861e-03 5.909374e-20)
67            	(9.073143e+00 2.025289e+02 6.046019e-18)	(7.645089e+00 2.025242e+02 5.988576e-18)	(1.428053e+00 4.701471e-03 5.744231e-20)
68            	(8.901767e+00 1.999227e+02 5.997827e-18)	(7.471914e+00 1.999175e+02 5.941883e-18)	(1.429852e+00 5.149716e-03 5.594473e-20)
69            	(8.710413e+00 1.985006e+02 5.865720e-18)	(7.278717e+00 1.984951e+02 5.809884e-18)	(1.431696e+00 5.517384e-03 5.583644e-20)
70            	(8.556028e+00 1.983560e+02 5.701029e-18)	(7.122564e+00 1.983502e+02 5.644313e-18)	(1.433464e+00 5.795557e-03 5.671582e-20)
71            	(8.433948e+00 1.992201e+02 5.529686e-18)	(6.998805e+00 1.992141e+02 5.471466e-18)	(1.435143e+00 5.995829e-03 5.822054e-20)
72            	(8.379688e+00 2.007519e+02 5.395553e-18)	(6.942890e+00 2.007458e+02 5.335328e-18)	(1.436798e+00 6.146772e-03 6.022485e-20)
73            	(8.402478e+00 2.017517e+02 5.354603e-18)	(6.963923e+00 2.017455e+02 5.292760e-18)	(1.438555e+00 6.269668e-03 6.184294e-20)
74            	(8.434641e+00 2.016918e+02 5.374676e-18)	(6.994126e+00 2.016854e+02 5.311875e-18)	(1.440515e+00 6.371419e-03 6.280103e-20)
75            	(8.420418e+00 2.007741e+02 5.388999e-18)	(6.977717e+00 2.007677e+02 5.325575e-18)	(1.442702e+00 6.438399e-03 6.342431e-20)
76            	(8.310633e+00 1.992307e+02 5.341650e-18)	(6.865543e+00 1.992243e+02 5.277775e-18)	(1.445090e+00 6.433687e-03 6.387508e-20)
77            	(8.106129e+00 1.977875e+02 5.211773e-18)	(6.658510e+00 1.977812e+02 5.148384e-18)	(1.447618e+00 6.343915e-03 6.338835e-20)
78            	(7.897303e+00 1.971877e+02 5.046510e-18)	(6.447112e+00 1.971816e+02 4.984352e-18)	(1.450191e+00 6.191985e-03 6.215758e-20)
79            	(7.738268e+00 1.972883e+02 4.904434e-18)	(6.285519e+00 1.972823e+02 4.843144e-18)	(1.452749e+00 5.996075e-03 6.129081e-20)
80            	(7.634182e+00 1.976415e+02 4.815912e-18)	(6.178874e+00 1.976357e+02 4.755151e-18)	(1.455308e+00 5.761872e-03 6.076098e-20)
81            	(7.568950e+00 1.978065e+02 4.786386e-18)	(6.111017e+00 1.978010e+02 4.726005e-18)	(1.457934e+00 5.491174e-03 6.038121e-20)
82            	(7.519903e+00 1.975121e+02 4.800997e-18)	(6.059224e+00 1.975069e+02 4.740873e-18)	(1.460679e+00 5.184508e-03 6.012417e-20)
83            	(7.459091e+00 1.967158e+02 4.824428e-18)	(5.995539e+00 1.967110e+02 4.764385e-18)	(1.463553e+00 4.839318e-03 6.004249e-20)
84            	(7.364178e+00 1.956350e+02 4.820428e-18)	(5.897662e+00 1.956306e+02 4.760290e-18)	(1.466516e+00 4.453948e-03 6.013874e-20)
85            	(7.241940e+00 1.947017e+02 4.774447e-18)	(5.772436e+00 1.946977e+02 4.713996e-18)	(1.469504e+00 4.029415e-03 6.045026e-20)
86            	(7.118485e+00 1.941640e+02 4.696843e-18)	(5.646028e+00 1.941604e+02 4.636251e-18)	(1.472456e+00 3.572074e-03 6.059195e-20)
87            	(7.000197e+00 1.939451e+02 4.603208e-18)	(5.524853e+00 1.939420e+02 4.542205e-18)	(1.475344e+00 3.090841e-03 6.100244e-20)
88            	(6.900761e+00 1.939529e+02 4.516125e-18)	(5.422597e+00 1.939503e+02 4.455120e-18)	(1.478164e+00 2.595818e-03 6.100428e-20)
89            	(6.844718e+00 1.940278e+02 4.464640e-18)	(5.363788e+00 1.940257e+02 4.403790e-18)	(1.480929e+00 2.101531e-03 6.084986e-20)
90            	(6.827928e+00 1.939566e+02 4.454897e-18)	(5.344273e+00 1.939549e+02 4.394224e-18)	(1.483655e+00 1.605615e-03 6.067266e-20)
91            	(6.822667e+00 1.936992e+02 4.468055e-18)	(5.336307e+00 1.936981e+02 4.407466e-18)	(1.486360e+00 1.116344e-03 6.058883e-20)
92            	(6.805127e+00 1.932838e+02 4.481730e-18)	(5.316080e+00 1.932832e+02 4.421184e-18)	(1.489046e+00 6.319735e-04 6.054624e-20)
93            	(6.761192e+00 1.928001e+02 4.476483e-18)	(5.269492e+00 1.928000e+02 4.415915e-18)	(1.491700e+00 1.486445e-04 6.056844e-20)
94            	(6.705203e+00 1.924912e+02 4.449342e-18)	(5.210899e+00 1.924915e+02 4.388671e-18)	(1.494304e+00 -3.359373e-04 6.067094e-20)
95            	(6.663231e+00 1.924743e+02 4.411996e-18)	(5.166386e+00 1.924751e+02 4.351158e-18)	(1.496845e+00 -8.212378e-04 6.083854e-20)
96            	(6.645110e+00 1.926736e+02 4.374741e-18)	(5.145779e+00 1.926749e+02 4.313661e-18)	(1.499331e+00 -1.306746e-03 6.107963e-20)
97            	(6.651732e+00 1.929699e+02 4.346772e-18)	(5.149950e+00 1.929716e+02 4.285394e-18)	(1.501782e+00 -1.792639e-03 6.137801e-20)
98            	(6.677177e+00 1.932218e+02 4.335805e-18)	(5.172955e+00 1.932241e+02 4.274146e-18)	(1.504223e+00 -2.279972e-03 6.165962e-20)
99            	(6.706700e+00 1.933321e+02 4.341727e-18)	(5.200024e+00 1.933349e+02 4.279873e-18)	(1.506676e+00 -2.770761e-03 6.185430e-20)
100           	(6.726359e+00 1.932919e+02 4.358696e-18)	(5.217210e+00 1.932952e+02 4.296777e-18)	(1.509149e+00 -3.267168e-03 6.191898e-20)
101           	(6.726284e+00 1.931638e+02 4.376940e-18)	(5.214651e+00 1.931676e+02 4.315075e-18)	(1.511633e+00 -3.769960e-03 6.186504e-20)
102           	(6.711933e+00 1.930956e+02 4.389870e-18)	(5.197823e+00 1.930999e+02 4.328096e-18)	(1.514109e+00 -4.279072e-03 6.177396e-20)
103           	(6.697959e+00 1.931737e+02 4.398232e-18)	(5.181396e+00 1.931785e+02 4.336532e-18)	(1.516564e+00 -4.794076e-03 6.170044e-20)
104           	(6.695591e+00 1.933987e+02 4.405288e-18)	(5.176599e+00 1.934040e+02 4.343621e-18)	(1.518992e+00 -5.314590e-03 6.166728e-20)
105           	(6.711808e+00 1.937250e+02 4.415756e-18)	(5.190411e+00 1.937309e+02 4.354064e-18)	(1.521397e+00 -5.838992e-03 6.169235e-20)
106           	(6.743412e+00 1.940356e+02 4.432872e-18)	(5.219619e+00 1.940419e+02 4.371143e-18)	(1.523793e+00 -6.366424e-03 6.172846e-20)
107           	(6.775674e+00 1.942410e+02 4.452988e-18)	(5.249480e+00 1.942479e+02 4.391251e-18)	(1.526194e+00 -6.896826e-03 6.173706e-20)
108           	(6.802293e+00 1.943785e+02 4.474200e-18)	(5.273693e+00 1.943860e+02 4.412492e-18)	(1.528601e+00 -7.429792e-03 6.170811e-20)
109           	(6.817407e+00 1.944637e+02 4.489988e-18)	(5.286397e+00 1.944717e+02 4.428329e-18)	(1.531011e+00 -7.964885e-03 6.165870e-20)
110           	(6.839056e+00 1.947188e+02 4.519744e-18)	(5.305653e+00 1.947273e+02 4.458286e-18)	(1.533403e+00 -8.498019e-03 6.145783e-20)
111           	(6.847768e+00 1.950035e+02 4.537789e-18)	(5.312025e+00 1.950125e+02 4.476553e-18)	(1.535743e+00 -9.019220e-03 6.123603e-20)
112           	(6.848777e+00 1.952675e+02 4.543660e-18)	(5.310743e+00 1.952771e+02 4.482559e-18)	(1.538035e+00 -9.530350e-03 6.110148e-20)
113           	(6.855990e+00 1.955451e+02 4.547792e-18)	(5.315701e+00 1.955552e+02 4.486766e-18)	(1.540289e+00 -1.003484e-02 6.102624e-20)
114           	(6.870466e+00 1.957460e+02 4.554061e-18)	(5.327952e+00 1.957566e+02 4.493067e-18)	(1.542513e+00 -1.053388e-02 6.099409e-20)
115           	(6.930103e+00 1.963029e+02 4.588569e-18)	(5.385402e+00 1.963139e+02 4.527628e-18)	(1.544700e+00 -1.102191e-02 6.094117e-20)
116           	(6.967092e+00 1.966276e+02 4.610096e-18)	(5.420256e+00 1.966391e+02 4.549150e-18)	(1.546836e+00 -1.149424e-02 6.094559e-20)
117           	(7.010152e+00 1.970147e+02 4.635390e-18)	(5.461221e+00 1.970266e+02 4.574420e-18)	(1.548931e+00 -1.195436e-02 6.096951e-20)
118           	(7.074273e+00 1.976813e+02 4.670274e-18)	(5.523301e+00 1.976937e+02 4.609292e-18)	(1.550972e+00 -1.239854e-02 6.098235e-20)
119           	(7.096210e+00 1.979967e+02 4.679184e-18)	(5.543257e+00 1.980095e+02 4.618096e-18)	(1.552953e+00 -1.282681e-02 6.108793e-20)
120           	(7.119778e+00 1.985028e+02 4.685068e-18)	(5.564895e+00 1.985161e+02 4.623884e-18)	(1.554883e+00 -1.324416e-02 6.118405e-20)
121           	(7.135110e+00 1.987933e+02 4.686684e-18)	(5.578357e+00 1.988070e+02 4.625384e-18)	(1.556753e+00 -1.365157e-02 6.129933e-20)
122           	(7.177759e+00 1.993896e+02 4.702402e-18)	(5.619193e+00 1.994037e+02 4.641065e-18)	(1.558566e+00 -1.404618e-02 6.133684e-20)
123           	(7.211522e+00 1.997836e+02 4.715072e-18)	(5.651210e+00 1.997980e+02 4.653649e-18)	(1.560312e+00 -1.442719e-02 6.142276e-20)
124           	(7.278247e+00 2.004836e+02 4.746680e-18)	(5.716250e+00 2.004984e+02 4.685243e-18)	(1.561997e+00 -1.479167e-02 6.143775e-20)
125           	(7.311210e+00 2.008829e+02 4.760738e-18)	(5.747587e+00 2.008980e+02 4.699182e-18)	(1.563623e+00 -1.514241e-02 6.155576e-20)
126           	(7.359763e+00 2.015147e+02 4.782288e-18)	(5.794568e+00 2.015301e+02 4.720641e-18)	(1.565195e+00 -1.547858e-02 6.164772e-20)
127           	(7.379425e+00 2.018742e+02 4.787427e-18)	(5.812717e+00 2.018900e+02 4.725598e-18)	(1.566708e+00 -1.580323e-02 6.182919e-20)
128           	(7.412022e+00 2.024784e+02 4.796242e-18)	(5.843859e+00 2.024945e+02 4.734253e-18)	(1.568164e+00 -1.611338e-02 6.198919e-20)
129           	(7.429230e+00 2.028475e+02 4.796656e-18)	(5.859677e+00 2.028639e+02 4.734464e-18)	(1.569553e+00 -1.641126e-02 6.219205e-20)
130           	(7.465334e+00 2.034815e+02 4.804674e-18)	(5.894455e+00 2.034982e+02 4.742327e-18)	(1.570879e+00 -1.669304e-02 6.234627e-20)
131           	(7.485379e+00 2.038715e+02 4.805841e-18)	(5.913238e+00 2.038885e+02 4.743310e-18)	(1.572141e+00 -1.696218e-02 6.253074e-20)
132           	(7.524868e+00 2.045089e+02 4.816731e-18)	(5.951523e+00 2.045261e+02 4.754078e-18)	(1.573344e+00 -1.721491e-02 6.265310e-20)
133           	(7.542005e+00 2.048834e+02 4.817493e-18)	(5.967514e+00 2.049008e+02 4.754661e-18)	(1.574491e+00 -1.745614e-02 6.283177e-20)
134           	(7.575448e+00 2.055004e+02 4.826070e-18)	(5.999864e+00 2.055181e+02 4.763110e-18)	(1.575585e+00 -1.768137e-02 6.295951e-20)
135           	(7.598632e+00 2.060359e+02 4.828213e-18)	(6.022013e+00 2.060538e+02 4.765066e-18)	(1.576619e+00 -1.789249e-02 6.314652e-20)
136           	(7.604470e+00 2.063411e+02 4.820884e-18)	(6.026868e+00 2.063592e+02 4.757511e-18)	(1.577602e+00 -1.809090e-02 6.337313e-20)
137           	(7.625329e+00 2.069135e+02 4.818090e-18)	(6.046793e+00 2.069318e+02 4.754501e-18)	(1.578537e+00 -1.827797e-02 6.358910e-20)
138           	(7.647027e+00 2.074813e+02 4.814426e-18)	(6.067614e+00 2.074998e+02 4.750588e-18)	(1.579414e+00 -1.845385e-02 6.383759e-20)
139           	(7.666060e+00 2.079853e+02 4.809347e-18)	(6.085821e+00 2.080039e+02 4.745269e-18)	(1.580239e+00 -1.861416e-02 6.407814e-20)
140           	(7.672357e+00 2.082923e+02 4.800088e-18)	(6.091333e+00 2.083110e+02 4.735762e-18)	(1.581024e+00 -1.876642e-02 6.432519e-20)
141           	(7.700286e+00 2.089074e+02 4.800543e-18)	(6.118515e+00 2.089263e+02 4.736013e-18)	(1.581771e+00 -1.890949e-02 6.453005e-20)
142           	(7.723960e+00 2.095015e+02 4.799547e-18)	(6.141489e+00 2.095205e+02 4.734792e-18)	(1.582471e+00 -1.904219e-02 6.475526e-20)
143           	(7.737219e+00 2.099943e+02 4.793637e-18)	(6.154090e+00 2.100134e+02 4.728654e-18)	(1.583129e+00 -1.915923e-02 6.498251e-20)
144           	(7.743291e+00 2.104132e+02 4.783527e-18)	(6.159541e+00 2.104324e+02 4.718298e-18)	(1.583750e+00 -1.926585e-02 6.522904e-20)
145           	(7.743095e+00 2.107041e+02 4.770519e-18)	(6.158755e+00 2.107234e+02 4.705035e-18)	(1.584340e+00 -1.936888e-02 6.548327e-20)
146           	(7.763279e+00 2.113282e+02 4.764038e-18)	(6.178379e+00 2.113477e+02 4.698328e-18)	(1.584900e+00 -1.946474e-02 6.570928e-20)
147           	(7.783685e+00 2.119407e+02 4.756666e-18)	(6.198265e+00 2.119603e+02 4.690701e-18)	(1.585420e+00 -1.955174e-02 6.596511e-20)
148           	(7.795721e+00 2.124274e+02 4.745419e-18)	(6.209815e+00 2.124471e+02 4.679193e-18)	(1.585907e+00 -1.962439e-02 6.622563e-20)
149           	(7.792999e+00 2.126863e+02 4.729697e-18)	(6.206631e+00 2.127060e+02 4.663195e-18)	(1.586369e+00 -1.969193e-02 6.650205e-20)
150           	(7.805676e+00 2.132138e+02 4.720292e-18)	(6.218866e+00 2.132336e+02 4.653545e-18)	(1.586810e+00 -1.975441e-02 6.674703e-20)
151           	(7.818533e+00 2.137573e+02 4.712141e-18)	(6.231310e+00 2.137771e+02 4.645136e-18)	(1.587223e+00 -1.981191e-02 6.700481e-20)
152           	(7.826632e+00 2.142356e+02 4.702395e-18)	(6.239024e+00 2.142555e+02 4.635145e-18)	(1.587608e+00 -1.985730e-02 6.724959e-20)
153           	(7.829421e+00 2.146424e+02 4.689662e-18)	(6.241451e+00 2.146623e+02 4.622156e-18)	(1.587970e+00 -1.989517e-02 6.750640e-20)
154           	(7.830580e+00 2.150315e+02 4.675016e-18)	(6.242268e+00 2.150514e+02 4.607250e-18)	(1.588312e+00 -1.992928e-02 6.776606e-20)
155           	(7.833935e+00 2.154525e+02 4.660361e-18)	(6.245301e+00 2.154725e+02 4.592341e-18)	(1.588635e+00 -1.996022e-02 6.802009e-20)
156           	(7.839994e+00 2.159077e+02 4.646441e-18)	(6.251056e+00 2.159277e+02 4.578172e-18)	(1.588939e+00 -1.998652e-02 6.826961e-20)
157           	(7.846078e+00 2.163623e+02 4.632573e-18)	(6.256854e+00 2.163823e+02 4.564052e-18)	(1.589224e+00 -2.000690e-02 6.852170e-20)
158           	(7.849479e+00 2.167865e+02 4.618016e-18)	(6.259988e+00 2.168066e+02 4.549236e-18)	(1.589491e+00 -2.002142e-02 6.878038e-20)
159           	(7.849909e+00 2.171807e+02 4.602993e-18)	(6.260167e+00 2.172007e+02 4.533951e-18)	(1.589742e+00 -2.003102e-02 6.904224e-20)
160           	(7.849035e+00 2.175651e+02 4.588277e-18)	(6.259058e+00 2.175852e+02 4.518977e-18)	(1.589977e+00 -2.003657e-02 6.930023e-20)
161           	(7.848515e+00 2.179560e+02 4.574201e-18)	(6.258317e+00 2.179760e+02 4.504651e-18)	(1.590198e+00 -2.003832e-02 6.955027e-20)
162           	(7.848717e+00 2.183529e+02 4.560262e-18)	(6.258314e+00 2.183729e+02 4.490468e-18)	(1.590403e+00 -2.003619e-02 6.979394e-20)
163           	(7.848878e+00 2.187444e+02 4.545573e-18)	(6.258284e+00 2.187645e+02 4.475537e-18)	(1.590595e+00 -2.003017e-02 7.003612e-20)
164           	(7.848148e+00 2.191220e+02 4.529650e-18)	(6.257374e+00 2.191420e+02 4.459369e-18)	(1.590774e+00 -2.002056e-02 7.028077e-20)
165           	(7.846353e+00 2.194863e+02 4.512781e-18)	(6.255413e+00 2.195063e+02 4.442253e-18)	(1.590941e+00 -2.000774e-02 7.052860e-20)
166           	(7.843888e+00 2.198435e+02 4.495743e-18)	(6.252792e+00 2.198635e+02 4.424966e-18)	(1.591096e+00 -1.999198e-02 7.077755e-20)
167           	(7.841129e+00 2.201980e+02 4.479218e-18)	(6.249888e+00 2.202180e+02 4.408193e-18)	(1.591241e+00 -1.997334e-02 7.102463e-20)
168           	(7.838116e+00 2.205488e+02 4.463430e-18)	(6.246741e+00 2.205687e+02 4.392163e-18)	(1.591375e+00 -1.995184e-02 7.126753e-20)
169           	(7.834714e+00 2.208923e+02 4.448175e-18)	(6.243215e+00 2.209123e+02 4.376670e-18)	(1.591498e+00 -1.992759e-02 7.150510e-20)
170           	(7.830895e+00 2.212273e+02 4.433062e-18)	(6.239283e+00 2.212472e+02 4.361325e-18)	(1.591612e+00 -1.990086e-02 7.173746e-20)
171           	(7.826807e+00 2.215548e+02 4.417739e-18)	(6.235091e+00 2.215746e+02 4.345773e-18)	(1.591717e+00 -1.987194e-02 7.196579e-20)
172           	(7.822603e+00 2.218768e+02 4.402008e-18)	(6.230790e+00 2.218966e+02 4.329816e-18)	(1.591813e+00 -1.984104e-02 7.219201e-20)
173           	(7.818278e+00 2.221938e+02 4.385854e-18)	(6.226378e+00 2.222136e+02 4.313436e-18)	(1.591900e+00 -1.980831e-02 7.241795e-20)
174           	(7.813686e+00 2.225050e+02 4.369438e-18)	(6.221705e+00 2.225248e+02 4.296794e-18)	(1.591981e+00 -1.977385e-02 7.264449e-20)
175           	(7.808691e+00 2.228092e+02 4.353037e-18)	(6.216637e+00 2.228290e+02 4.280166e-18)	(1.592054e+00 -1.973775e-02 7.287104e-20)
176           	(7.803300e+00 2.231063e+02 4.336933e-18)	(6.211181e+00 2.231260e+02 4.263837e-18)	(1.592120e+00 -1.970009e-02 7.309580e-20)
177           	(7.797657e+00 2.233971e+02 4.321289e-18)	(6.205478e+00 2.234167e+02 4.247973e-18)	(1.592179e+00 -1.966096e-02 7.331670e-20)
178           	(7.791927e+00 2.236822e+02 4.306074e-18)	(6.199695e+00 2.237018e+02 4.232541e-18)	(1.592232e+00 -1.962045e-02 7.353238e-20)
179           	(7.786187e+00 2.239621e+02 4.291089e-18)	(6.193908e+00 2.239816e+02 4.217346e-18)	(1.592279e+00 -1.957868e-02 7.374278e-20)
180           	(7.780398e+00 2.242364e+02 4.276093e-18)	(6.188077e+00 2.242559e+02 4.202144e-18)	(1.592321e+00 -1.953581e-02 7.394891e-20)
181           	(7.774465e+00 2.245048e+02 4.260929e-18)	(6.182107e+00 2.245243e+02 4.186777e-18)	(1.592357e+00 -1.949198e-02 7.415234e-20)
182           	(7.768310e+00 2.247672e+02 4.245599e-18)	(6.175921e+00 2.247867e+02 4.171244e-18)	(1.592389e+00 -1.944732e-02 7.435439e-20)
183           	(7.761917e+00 2.250236e+02 4.230236e-18)	(6.169499e+00 2.250430e+02 4.155680e-18)	(1.592417e+00 -1.940195e-02 7.455572e-20)
184           	(7.755322e+00 2.252743e+02 4.215025e-18)	(6.162881e+00 2.252937e+02 4.140268e-18)	(1.592441e+00 -1.935596e-02 7.475611e-20)
185           	(7.748592e+00 2.255195e+02 4.200102e-18)	(6.156131e+00 2.255388e+02 4.125147e-18)	(1.592461e+00 -1.930941e-02 7.495473e-20)
186           	(7.741783e+00 2.257594e+02 4.185503e-18)	(6.149305e+00 2.257787e+02 4.110352e-18)	(1.592478e+00 -1.926236e-02 7.515051e-20)
187           	(7.734915e+00 2.259939e+02 4.171163e-18)	(6.142423e+00 2.260131e+02 4.095820e-18)	(1.592492e+00 -1.921489e-02 7.534255e-20)
188           	(7.727975e+00 2.262231e+02 4.156964e-18)	(6.135473e+00 2.262422e+02 4.081433e-18)	(1.592502e+00 -1.916707e-02 7.553042e-20)
189           	(7.720932e+00 2.264469e+02 4.142799e-18)	(6.128422e+00 2.264660e+02 4.067085e-18)	(1.592511e+00 -1.911902e-02 7.571427e-20)
190           	(7.713757e+00 2.266654e+02 4.128621e-18)	(6.121240e+00 2.266844e+02 4.052727e-18)	(1.592516e+00 -1.907087e-02 7.589470e-20)
191           	(7.706434e+00 2.268787e+02 4.114450e-18)	(6.113914e+00 2.268977e+02 4.038377e-18)	(1.592520e+00 -1.902274e-02 7.607256e-20)
192           	(7.698972e+00 2.270869e+02 4.100355e-18)	(6.106449e+00 2.271058e+02 4.024106e-18)	(1.592522e+00 -1.897473e-02 7.624857e-20)
193           	(7.691394e+00 2.272900e+02 4.086421e-18)	(6.098871e+00 2.273089e+02 4.009997e-18)	(1.592523e+00 -1.892690e-02 7.642311e-20)
194           	(7.683731e+00 2.274881e+02 4.072705e-18)	(6.091208e+00 2.275070e+02 3.996109e-18)	(1.592523e+00 -1.887930e-02 7.659617e-20)
195           	(7.676003e+00 2.276814e+02 4.059219e-18)	(6.083482e+00 2.277002e+02 3.982451e-18)	(1.592521e+00 -1.883196e-02 7.676733e-20)
196           	(7.668212e+00 2.278700e+02 4.045927e-18)	(6.075693e+00 2.278887e+02 3.968991e-18)	(1.592519e+00 -1.878492e-02 7.693599e-20)
197           	(7.660340e+00 2.280538e+02 4.032769e-18)	(6.067825e+00 2.280725e+02 3.955668e-18)	(1.592515e+00 -1.873823e-02 7.710158e-20)
198           	(7.652372e+00 2.282328e+02 4.019693e-18)	(6.059861e+00 2.282515e+02 3.942430e-18)	(1.592511e+00 -1.869197e-02 7.726370e-20)
199           	(7.644304e+00 2.284072e+02 4.006675e-18)	(6.051797e+00 2.284259e+02 3.929253e-18)	(1.592507e+00 -1.864625e-02 7.742230e-20)
200           	(7.636149e+00 2.285771e+02 3.993728e-18)	(6.043647e+00 2.285957e+02 3.916150e-18)	(1.592502e+00 -1.860117e-02 7.757765e-20)
201           	(7.627929e+00 2.287426e+02 3.980890e-18)	(6.035431e+00 2.287612e+02 3.903160e-18)	(1.592498e+00 -1.855681e-02 7.773026e-20)
202           	(7.619663e+00 2.289039e+02 3.968204e-18)	(6.027169e+00 2.289224e+02 3.890323e-18)	(1.592494e+00 -1.851323e-02 7.788076e-20)
203           	(7.611361e+00 2.290610e+02 3.955699e-18)	(6.018871e+00 2.290794e+02 3.877669e-18)	(1.592490e+00 -1.847047e-02 7.802961e-20)
204           	(7.603021e+00 2.292139e+02 3.943378e-18)	(6.010534e+00 2.292323e+02 3.865201e-18)	(1.592486e+00 -1.842853e-02 7.817699e-20)
205           	(7.594638e+00 2.293627e+02 3.931230e-18)	(6.002154e+00 2.293811e+02 3.852907e-18)	(1.592483e+00 -1.838743e-02 7.832268e-20)
206           	(7.586210e+00 2.295076e+02 3.919232e-18)	(5.993729e+00 2.295259e+02 3.840765e-18)	(1.592481e+00 -1.834720e-02 7.846619e-20)
207           	(7.577744e+00 2.296485e+02 3.907364e-18)	(5.985266e+00 2.296668e+02 3.828758e-18)	(1.592479e+00 -1.830789e-02 7.860691e-20)
208           	(7.569257e+00 2.297856e+02 3.895621e-18)	(5.976779e+00 2.298039e+02 3.816877e-18)	(1.592478e+00 -1.826956e-02 7.874438e-20)
209           	(7.560767e+00 2.299191e+02 3.884006e-18)	(5.968289e+00 2.299373e+02 3.805127e-18)	(1.592478e+00 -1.823229e-02 7.887848e-20)
210           	(7.552289e+00 2.300491e+02 3.872529e-18)	(5.959810e+00 2.300672e+02 3.793519e-18)	(1.592479e+00 -1.819612e-02 7.900947e-20)
211           	(7.543831e+00 2.301756e+02 3.861203e-18)	(5.951350e+00 2.301938e+02 3.782065e-18)	(1.592481e+00 -1.816111e-02 7.913790e-20)
212           	(7.535395e+00 2.302988e+02 3.850037e-18)	(5.942911e+00 2.303169e+02 3.770772e-18)	(1.592485e+00 -1.812726e-02 7.926437e-20)
213           	(7.526981e+00 2.304187e+02 3.839037e-18)	(5.934492e+00 2.304368e+02 3.759648e-18)	(1.592489e+00 -1.809457e-02 7.938927e-20)
214           	(7.518591e+00 2.305355e+02 3.828207e-18)	(5.926096e+00 2.305536e+02 3.748695e-18)	(1.592495e+00 -1.806304e-02 7.951267e-20)