# Moment      
# CofR        : (4.974613e-01 -1.671896e-02 1.250000e-01)
#
# Time        	(total_x total_y total_z)	(pressure_x pressure_y pressure_z)	(viscous_x viscous_y viscous_z)
1             	(2.474727e-14 -8.084907e-15 1.176609e+03)	(2.474725e-14 -8.073946e-15 1.176607e+03)	(1.636170e-20 -1.096134e-17 2.194768e-03)
2             	(1.251488e-14 -2.903122e-15 3.328870e+02)	(1.251648e-14 -2.894728e-15 3.331284e+02)	(-1.591529e-18 -8.393457e-18 -2.414244e-01)
3             	(-1.461381e-15 2.271440e-15 -4.699453e+02)	(-1.460247e-15 2.279869e-15 -4.696511e+02)	(-1.134462e-18 -8.428866e-18 -2.942277e-01)
4             	(-8.725389e-15 4.316830e-15 -6.700182e+02)	(-8.725369e-15 4.326433e-15 -6.699335e+02)	(-2.087479e-20 -9.603355e-18 -8.461368e-02)
5             	(-6.109180e-15 2.203729e-15 -2.550252e+02)	(-6.108474e-15 2.217028e-15 -2.553271e+02)	(-7.053720e-19 -1.329833e-17 3.018465e-01)
6             	(-2.994205e-17 -8.067614e-16 2.537551e+02)	(-2.879599e-17 -7.916306e-16 2.533841e+02)	(-1.146054e-18 -1.513081e-17 3.709401e-01)
7             	(4.076561e-15 -2.362558e-15 4.118560e+02)	(4.078232e-15 -2.350050e-15 4.116945e+02)	(-1.670271e-18 -1.250885e-17 1.615066e-01)
8             	(3.788292e-15 -1.580735e-15 1.751107e+02)	(3.788933e-15 -1.569344e-15 1.752952e+02)	(-6.405295e-19 -1.139149e-17 -1.844383e-01)
9             	(1.954511e-15 7.215947e-18 -1.351263e+02)	(1.953388e-15 1.722763e-17 -1.347218e+02)	(1.123621e-18 -1.001168e-17 -4.045177e-01)
10            	(6.925351e-16 9.048812e-16 -2.446784e+02)	(6.921198e-16 9.156208e-16 -2.443741e+02)	(4.152954e-19 -1.073958e-17 -3.043222e-01)
11            	(7.953886e-16 7.037409e-16 -1.255563e+02)	(7.942266e-16 7.141122e-16 -1.253846e+02)	(1.161956e-18 -1.037133e-17 -1.717081e-01)
12            	(1.089559e-15 7.482328e-17 3.997247e+01)	(1.088804e-15 8.755733e-17 4.007898e+01)	(7.541956e-19 -1.273405e-17 -1.065136e-01)
13            	(9.660420e-16 -2.871473e-16 1.025355e+02)	(9.657752e-16 -2.744479e-16 1.025936e+02)	(2.667934e-19 -1.269941e-17 -5.805083e-02)
14            	(5.208887e-16 -2.338894e-16 5.049418e+01)	(5.209819e-16 -2.216181e-16 5.058013e+01)	(-9.317695e-20 -1.227122e-17 -8.594889e-02)
15            	(3.284437e-16 -8.802469e-17 -2.813314e+01)	(3.290609e-16 -7.619541e-17 -2.806534e+01)	(-6.172006e-19 -1.182928e-17 -6.779887e-02)
16            	(6.647385e-16 -4.613618e-17 -5.767533e+01)	(6.652656e-16 -3.528010e-17 -5.759982e+01)	(-5.271343e-19 -1.085608e-17 -7.550647e-02)
17            	(1.293778e-15 -1.325770e-16 -3.312511e+01)	(1.293794e-15 -1.225040e-16 -3.304355e+01)	(-1.516484e-20 -1.007298e-17 -8.155457e-02)
18            	(1.772252e-15 -2.013101e-16 -2.183299e+00)	(1.772031e-15 -1.916591e-16 -2.106058e+00)	(2.219814e-19 -9.651032e-18 -7.724017e-02)
19            	(1.763849e-15 -1.453326e-16 9.549096e-01)	(1.763725e-15 -1.354919e-16 1.024381e+00)	(1.242476e-19 -9.840682e-18 -6.947179e-02)
20            	(1.313815e-15 -6.042544e-18 -1.881217e+01)	(1.313836e-15 4.385704e-18 -1.874554e+01)	(-2.131790e-20 -1.042825e-17 -6.663050e-02)
21            	(8.496824e-16 8.506147e-17 -3.385126e+01)	(8.497893e-16 9.559699e-17 -3.378498e+01)	(-1.068712e-19 -1.053552e-17 -6.628075e-02)
22            	(6.173800e-16 5.961169e-17 -2.822901e+01)	(6.175494e-16 7.009761e-17 -2.816243e+01)	(-1.693920e-19 -1.048593e-17 -6.658070e-02)
23            	(7.145534e-16 -5.940337e-17 -8.688796e+00)	(7.147184e-16 -4.917620e-17 -8.621755e+00)	(-1.649868e-19 -1.022718e-17 -6.704118e-02)
24            	(1.054514e-15 -1.659106e-16 2.527848e+00)	(1.054683e-15 -1.558750e-16 2.593525e+00)	(-1.690234e-19 -1.003554e-17 -6.567728e-02)
25            	(1.371718e-15 -1.805955e-16 -4.151190e+00)	(1.371890e-15 -1.707087e-16 -4.087278e+00)	(-1.724748e-19 -9.886875e-18 -6.391218e-02)
26            	(1.523305e-15 -1.112930e-16 -2.125124e+01)	(1.523456e-15 -1.015131e-16 -2.118760e+01)	(-1.513739e-19 -9.779921e-18 -6.364115e-02)
27            	(1.432936e-15 -1.622779e-17 -3.382760e+01)	(1.433035e-15 -6.510178e-18 -3.376281e+01)	(-9.882908e-20 -9.717615e-18 -6.479036e-02)
28            	(1.209806e-15 3.296329e-17 -3.239090e+01)	(1.209845e-15 4.261061e-17 -3.232496e+01)	(-3.892152e-20 -9.647314e-18 -6.593467e-02)
29            	(9.980195e-16 1.967628e-17 -2.188579e+01)	(9.980275e-16 2.921733e-17 -2.181944e+01)	(-8.015802e-21 -9.541052e-18 -6.634094e-02)
30            	(8.722952e-16 -3.289574e-17 -1.139772e+01)	(8.723179e-16 -2.350676e-17 -1.133166e+01)	(-2.266737e-20 -9.388971e-18 -6.606134e-02)
31            	(9.479897e-16 -9.335405e-17 -8.353913e+00)	(9.480571e-16 -8.413944e-17 -8.288322e+00)	(-6.740414e-20 -9.214615e-18 -6.559078e-02)
32            	(1.120545e-15 -1.197732e-16 -1.386028e+01)	(1.120655e-15 -1.107124e-16 -1.379496e+01)	(-1.094588e-19 -9.060722e-18 -6.531766e-02)
33            	(1.273945e-15 -1.103426e-16 -2.096956e+01)	(1.274068e-15 -1.013865e-16 -2.090425e+01)	(-1.234265e-19 -8.956144e-18 -6.531079e-02)
34            	(1.388482e-15 -8.021897e-17 -2.571221e+01)	(1.388587e-15 -7.130382e-17 -2.564669e+01)	(-1.047589e-19 -8.915155e-18 -6.552341e-02)
35            	(1.361992e-15 -3.983278e-17 -2.655245e+01)	(1.362057e-15 -3.089860e-17 -2.648652e+01)	(-6.484260e-20 -8.934176e-18 -6.592229e-02)
36            	(1.226105e-15 -1.208288e-17 -2.365486e+01)	(1.226126e-15 -3.099381e-18 -2.358833e+01)	(-2.095769e-20 -8.983498e-18 -6.652770e-02)
37            	(1.112206e-15 -7.036619e-18 -2.055328e+01)	(1.112194e-15 1.986706e-18 -2.048607e+01)	(1.192371e-20 -9.023324e-18 -6.720341e-02)
38            	(1.036617e-15 -1.799780e-17 -1.890849e+01)	(1.036590e-15 -8.974868e-18 -1.884076e+01)	(2.645975e-20 -9.022933e-18 -6.772831e-02)
39            	(1.047207e-15 -3.957102e-17 -1.890474e+01)	(1.047183e-15 -3.059401e-17 -1.883677e+01)	(2.440712e-20 -8.977009e-18 -6.796949e-02)
40            	(1.131483e-15 -5.933992e-17 -2.053778e+01)	(1.131469e-15 -5.043239e-17 -2.046976e+01)	(1.444685e-20 -8.907526e-18 -6.801255e-02)
41            	(1.214318e-15 -6.747028e-17 -2.263617e+01)	(1.214311e-15 -5.862365e-17 -2.256809e+01)	(7.054853e-21 -8.846627e-18 -6.808749e-02)
42            	(1.265488e-15 -6.328127e-17 -2.437354e+01)	(1.265478e-15 -5.446434e-17 -2.430517e+01)	(9.248240e-21 -8.816932e-18 -6.837006e-02)
43            	(1.258796e-15 -5.045400e-17 -2.516332e+01)	(1.258775e-15 -4.162975e-17 -2.509449e+01)	(2.152216e-20 -8.824250e-18 -6.883346e-02)
44            	(1.219958e-15 -3.740336e-17 -2.481283e+01)	(1.219919e-15 -2.854784e-17 -2.474352e+01)	(3.902021e-20 -8.855516e-18 -6.930797e-02)
45            	(1.183603e-15 -2.995021e-17 -2.384534e+01)	(1.183548e-15 -2.106009e-17 -2.377569e+01)	(5.534718e-20 -8.890121e-18 -6.964496e-02)
46            	(1.155045e-15 -2.870305e-17 -2.282680e+01)	(1.154979e-15 -1.979297e-17 -2.275698e+01)	(6.623668e-20 -8.910085e-18 -6.981947e-02)
47            	(1.154314e-15 -3.242174e-17 -2.252394e+01)	(1.154243e-15 -2.351342e-17 -2.245402e+01)	(7.058785e-20 -8.908315e-18 -6.991461e-02)
48            	(1.166158e-15 -3.697562e-17 -2.314886e+01)	(1.166088e-15 -2.808275e-17 -2.307881e+01)	(7.025633e-20 -8.892863e-18 -7.004881e-02)
49            	(1.172932e-15 -3.930886e-17 -2.421416e+01)	(1.172864e-15 -3.043074e-17 -2.414388e+01)	(6.842100e-20 -8.878115e-18 -7.027903e-02)
50            	(1.179351e-15 -3.918206e-17 -2.527348e+01)	(1.179283e-15 -3.030608e-17 -2.520290e+01)	(6.794868e-20 -8.875979e-18 -7.058296e-02)
51            	(1.178114e-15 -3.712335e-17 -2.580992e+01)	(1.178044e-15 -2.823310e-17 -2.573902e+01)	(7.039640e-20 -8.890246e-18 -7.089706e-02)
52            	(1.176031e-15 -3.475095e-17 -2.561044e+01)	(1.175956e-15 -2.583562e-17 -2.553929e+01)	(7.555421e-20 -8.915325e-18 -7.114895e-02)
53            	(1.183545e-15 -3.348010e-17 -2.504554e+01)	(1.183463e-15 -2.453916e-17 -2.497423e+01)	(8.184093e-20 -8.940938e-18 -7.130846e-02)
54            	(1.196827e-15 -3.346419e-17 -2.455775e+01)	(1.196740e-15 -2.450488e-17 -2.448635e+01)	(8.717671e-20 -8.959311e-18 -7.139465e-02)
55            	(1.212588e-15 -3.438362e-17 -2.439284e+01)	(1.212498e-15 -2.541415e-17 -2.432139e+01)	(9.006655e-20 -8.969464e-18 -7.145593e-02)
56            	(1.222377e-15 -3.542179e-17 -2.465130e+01)	(1.222286e-15 -2.644512e-17 -2.457975e+01)	(9.044012e-20 -8.976664e-18 -7.154209e-02)
57            	(1.217368e-15 -3.565478e-17 -2.516436e+01)	(1.217278e-15 -2.666627e-17 -2.509267e+01)	(8.947551e-20 -8.988509e-18 -7.168267e-02)
58            	(1.199283e-15 -3.480068e-17 -2.566698e+01)	(1.199194e-15 -2.579089e-17 -2.559510e+01)	(8.889016e-20 -9.009786e-18 -7.187657e-02)
59            	(1.175799e-15 -3.309535e-17 -2.594065e+01)	(1.175709e-15 -2.405505e-17 -2.586856e+01)	(9.002476e-20 -9.040295e-18 -7.209275e-02)
60            	(1.162449e-15 -3.141587e-17 -2.591424e+01)	(1.162355e-15 -2.234100e-17 -2.584196e+01)	(9.315610e-20 -9.074869e-18 -7.228852e-02)
61            	(1.166990e-15 -3.048196e-17 -2.570985e+01)	(1.166893e-15 -2.137470e-17 -2.563742e+01)	(9.741897e-20 -9.107263e-18 -7.243374e-02)
62            	(1.187115e-15 -3.060114e-17 -2.547231e+01)	(1.187014e-15 -2.146806e-17 -2.539978e+01)	(1.013603e-19 -9.133077e-18 -7.252551e-02)
63            	(1.217982e-15 -3.187379e-17 -2.534939e+01)	(1.217878e-15 -2.272219e-17 -2.527680e+01)	(1.037556e-19 -9.151604e-18 -7.258545e-02)
64            	(1.238741e-15 -3.330114e-17 -2.545489e+01)	(1.238637e-15 -2.413552e-17 -2.538224e+01)	(1.042096e-19 -9.165619e-18 -7.264911e-02)
65            	(1.239668e-15 -3.404981e-17 -2.570727e+01)	(1.239565e-15 -2.487070e-17 -2.563452e+01)	(1.032640e-19 -9.179109e-18 -7.274449e-02)
66            	(1.226382e-15 -3.397469e-17 -2.601537e+01)	(1.226279e-15 -2.478031e-17 -2.594249e+01)	(1.020954e-19 -9.194377e-18 -7.287788e-02)
67            	(1.201304e-15 -3.277452e-17 -2.630140e+01)	(1.201202e-15 -2.356314e-17 -2.622836e+01)	(1.018225e-19 -9.211378e-18 -7.303914e-02)
68            	(1.177987e-15 -3.090885e-17 -2.640576e+01)	(1.177884e-15 -2.168041e-17 -2.633256e+01)	(1.029200e-19 -9.228440e-18 -7.320489e-02)
69            	(1.174454e-15 -2.969741e-17 -2.633864e+01)	(1.174348e-15 -2.045427e-17 -2.626529e+01)	(1.051309e-19 -9.243145e-18 -7.335161e-02)
70            	(1.183877e-15 -2.913290e-17 -2.624328e+01)	(1.183769e-15 -1.987844e-17 -2.616981e+01)	(1.076305e-19 -9.254464e-18 -7.347171e-02)
71            	(1.198579e-15 -2.898779e-17 -2.621118e+01)	(1.198470e-15 -1.972459e-17 -2.613760e+01)	(1.095065e-19 -9.263203e-18 -7.357330e-02)
72            	(1.213195e-15 -2.921558e-17 -2.632256e+01)	(1.213085e-15 -1.994447e-17 -2.624889e+01)	(1.102241e-19 -9.271111e-18 -7.367345e-02)
73            	(1.216986e-15 -2.938033e-17 -2.656305e+01)	(1.216876e-15 -2.010035e-17 -2.648926e+01)	(1.097518e-19 -9.279984e-18 -7.379009e-02)
74            	(1.209292e-15 -2.917912e-17 -2.682523e+01)	(1.209184e-15 -1.988830e-17 -2.675130e+01)	(1.084838e-19 -9.290812e-18 -7.393021e-02)
75            	(1.196177e-15 -2.859909e-17 -2.705874e+01)	(1.196070e-15 -1.929569e-17 -2.698465e+01)	(1.070765e-19 -9.303400e-18 -7.409096e-02)
76            	(1.181819e-15 -2.759669e-17 -2.725514e+01)	(1.181713e-15 -1.828006e-17 -2.718087e+01)	(1.061301e-19 -9.316630e-18 -7.426991e-02)
77            	(1.172268e-15 -2.640600e-17 -2.738169e+01)	(1.172162e-15 -1.707722e-17 -2.730724e+01)	(1.058393e-19 -9.328779e-18 -7.445474e-02)
78            	(1.171608e-15 -2.551611e-17 -2.744146e+01)	(1.171502e-15 -1.617690e-17 -2.736683e+01)	(1.060597e-19 -9.339215e-18 -7.462912e-02)
79            	(1.175614e-15 -2.495958e-17 -2.749951e+01)	(1.175508e-15 -1.561100e-17 -2.742472e+01)	(1.065979e-19 -9.348577e-18 -7.479233e-02)
80            	(1.178947e-15 -2.456270e-17 -2.761043e+01)	(1.178841e-15 -1.520492e-17 -2.753548e+01)	(1.069662e-19 -9.357783e-18 -7.495441e-02)
81            	(1.178103e-15 -2.415442e-17 -2.779505e+01)	(1.177997e-15 -1.478661e-17 -2.771992e+01)	(1.068382e-19 -9.367814e-18 -7.512469e-02)
82            	(1.172227e-15 -2.364355e-17 -2.802930e+01)	(1.172121e-15 -1.426422e-17 -2.795399e+01)	(1.061593e-19 -9.379330e-18 -7.530675e-02)
83            	(1.163319e-15 -2.305242e-17 -2.826309e+01)	(1.163214e-15 -1.366009e-17 -2.818760e+01)	(1.050532e-19 -9.392333e-18 -7.549870e-02)
84            	(1.154626e-15 -2.243896e-17 -2.844909e+01)	(1.154522e-15 -1.303264e-17 -2.837339e+01)	(1.037327e-19 -9.406323e-18 -7.569537e-02)
85            	(1.149559e-15 -2.192043e-17 -2.856667e+01)	(1.149457e-15 -1.249992e-17 -2.849078e+01)	(1.024045e-19 -9.420517e-18 -7.589157e-02)
86            	(1.148937e-15 -2.157272e-17 -2.863299e+01)	(1.148836e-15 -1.213874e-17 -2.855690e+01)	(1.012215e-19 -9.433983e-18 -7.608438e-02)
87            	(1.150620e-15 -2.129867e-17 -2.868735e+01)	(1.150520e-15 -1.185196e-17 -2.861108e+01)	(1.001424e-19 -9.446711e-18 -7.627375e-02)
88            	(1.152464e-15 -2.102758e-17 -2.875917e+01)	(1.152365e-15 -1.156922e-17 -2.868271e+01)	(9.937824e-20 -9.458362e-18 -7.646146e-02)
89            	(1.152442e-15 -2.076008e-17 -2.885571e+01)	(1.152343e-15 -1.129031e-17 -2.877907e+01)	(9.864196e-20 -9.469773e-18 -7.664655e-02)
90            	(1.149551e-15 -2.048963e-17 -2.896242e+01)	(1.149454e-15 -1.100809e-17 -2.888558e+01)	(9.745686e-20 -9.481537e-18 -7.683412e-02)
91            	(1.144981e-15 -2.021941e-17 -2.905648e+01)	(1.144885e-15 -1.072513e-17 -2.897946e+01)	(9.585509e-20 -9.494288e-18 -7.701906e-02)
92            	(1.140079e-15 -1.994652e-17 -2.913469e+01)	(1.139985e-15 -1.043859e-17 -2.905749e+01)	(9.397254e-20 -9.507935e-18 -7.719883e-02)
93            	(1.136394e-15 -1.970052e-17 -2.918913e+01)	(1.136302e-15 -1.017844e-17 -2.911176e+01)	(9.197198e-20 -9.522077e-18 -7.737184e-02)
94            	(1.135752e-15 -1.957892e-17 -2.920896e+01)	(1.135662e-15 -1.004281e-17 -2.913142e+01)	(9.000232e-20 -9.536108e-18 -7.753752e-02)
95            	(1.138046e-15 -1.961904e-17 -2.920238e+01)	(1.137958e-15 -1.006957e-17 -2.912468e+01)	(8.814891e-20 -9.549470e-18 -7.769656e-02)
96            	(1.141663e-15 -1.975743e-17 -2.919036e+01)	(1.141576e-15 -1.019551e-17 -2.911251e+01)	(8.640905e-20 -9.561926e-18 -7.785124e-02)
97            	(1.144985e-15 -1.991892e-17 -2.918984e+01)	(1.144900e-15 -1.034535e-17 -2.911183e+01)	(8.471373e-20 -9.573569e-18 -7.800444e-02)
98            	(1.146597e-15 -2.003234e-17 -2.920794e+01)	(1.146514e-15 -1.044764e-17 -2.912979e+01)	(8.297802e-20 -9.584706e-18 -7.815852e-02)
99            	(1.146085e-15 -2.005796e-17 -2.923925e+01)	(1.146004e-15 -1.046229e-17 -2.916094e+01)	(8.114852e-20 -9.595672e-18 -7.831484e-02)
100           	(1.144089e-15 -2.000490e-17 -2.927229e+01)	(1.144010e-15 -1.039824e-17 -2.919381e+01)	(7.922696e-20 -9.606659e-18 -7.847367e-02)
101           	(1.141875e-15 -1.991316e-17 -2.929343e+01)	(1.141798e-15 -1.029556e-17 -2.921480e+01)	(7.726431e-20 -9.617604e-18 -7.863408e-02)
102           	(1.141164e-15 -1.987397e-17 -2.929350e+01)	(1.141089e-15 -1.024572e-17 -2.921471e+01)	(7.533273e-20 -9.628243e-18 -7.879511e-02)
103           	(1.142459e-15 -1.993756e-17 -2.927912e+01)	(1.142385e-15 -1.029929e-17 -2.920016e+01)	(7.348857e-20 -9.638271e-18 -7.895633e-02)
104           	(1.145192e-15 -2.009207e-17 -2.926377e+01)	(1.145120e-15 -1.044454e-17 -2.918465e+01)	(7.174740e-20 -9.647529e-18 -7.911800e-02)
105           	(1.148496e-15 -2.031031e-17 -2.925845e+01)	(1.148426e-15 -1.065424e-17 -2.917916e+01)	(7.008817e-20 -9.656067e-18 -7.928103e-02)
106           	(1.150996e-15 -2.051980e-17 -2.926817e+01)	(1.150927e-15 -1.085566e-17 -2.918872e+01)	(6.846011e-20 -9.664147e-18 -7.944656e-02)
107           	(1.152045e-15 -2.065462e-17 -2.928721e+01)	(1.151978e-15 -1.098249e-17 -2.920759e+01)	(6.680938e-20 -9.672123e-18 -7.961516e-02)
108           	(1.152323e-15 -2.073811e-17 -2.930644e+01)	(1.152258e-15 -1.105784e-17 -2.922665e+01)	(6.510694e-20 -9.680270e-18 -7.978662e-02)
109           	(1.152421e-15 -2.078522e-17 -2.931541e+01)	(1.152358e-15 -1.109650e-17 -2.923545e+01)	(6.335675e-20 -9.688713e-18 -7.996009e-02)
110           	(1.153700e-15 -2.091706e-17 -2.932095e+01)	(1.153638e-15 -1.121976e-17 -2.924082e+01)	(6.159799e-20 -9.697301e-18 -8.013414e-02)
111           	(1.155753e-15 -2.103836e-17 -2.931465e+01)	(1.155693e-15 -1.133250e-17 -2.923434e+01)	(5.987558e-20 -9.705864e-18 -8.030727e-02)
112           	(1.158150e-15 -2.114137e-17 -2.930533e+01)	(1.158091e-15 -1.142707e-17 -2.922485e+01)	(5.818909e-20 -9.714294e-18 -8.047944e-02)
113           	(1.160742e-15 -2.126059e-17 -2.929732e+01)	(1.160685e-15 -1.153803e-17 -2.921666e+01)	(5.652947e-20 -9.722553e-18 -8.065108e-02)
114           	(1.162430e-15 -2.136069e-17 -2.929434e+01)	(1.162375e-15 -1.162997e-17 -2.921352e+01)	(5.487394e-20 -9.730727e-18 -8.082213e-02)
115           	(1.166482e-15 -2.168398e-17 -2.927538e+01)	(1.166429e-15 -1.194504e-17 -2.919438e+01)	(5.320968e-20 -9.738937e-18 -8.099195e-02)
116           	(1.168596e-15 -2.185860e-17 -2.926505e+01)	(1.168544e-15 -1.211137e-17 -2.918389e+01)	(5.154733e-20 -9.747236e-18 -8.116019e-02)
117           	(1.171081e-15 -2.206620e-17 -2.924976e+01)	(1.171031e-15 -1.231049e-17 -2.916843e+01)	(4.988162e-20 -9.755718e-18 -8.132804e-02)
118           	(1.175643e-15 -2.241647e-17 -2.922139e+01)	(1.175595e-15 -1.265216e-17 -2.913989e+01)	(4.824099e-20 -9.764309e-18 -8.149498e-02)
119           	(1.177920e-15 -2.255099e-17 -2.920879e+01)	(1.177873e-15 -1.277812e-17 -2.912712e+01)	(4.665880e-20 -9.772870e-18 -8.166155e-02)
120           	(1.181814e-15 -2.274106e-17 -2.919040e+01)	(1.181769e-15 -1.295981e-17 -2.910857e+01)	(4.514502e-20 -9.781257e-18 -8.182934e-02)
121           	(1.184052e-15 -2.284340e-17 -2.917924e+01)	(1.184009e-15 -1.305408e-17 -2.909724e+01)	(4.369125e-20 -9.789315e-18 -8.199606e-02)
122           	(1.188323e-15 -2.308155e-17 -2.915617e+01)	(1.188281e-15 -1.328455e-17 -2.907401e+01)	(4.230738e-20 -9.797004e-18 -8.216297e-02)
123           	(1.191004e-15 -2.323438e-17 -2.914294e+01)	(1.190963e-15 -1.343008e-17 -2.906062e+01)	(4.097116e-20 -9.804307e-18 -8.232776e-02)
124           	(1.195544e-15 -2.353250e-17 -2.912280e+01)	(1.195504e-15 -1.372119e-17 -2.904031e+01)	(3.969293e-20 -9.811309e-18 -8.249298e-02)
125           	(1.198078e-15 -2.366271e-17 -2.911840e+01)	(1.198040e-15 -1.384461e-17 -2.903574e+01)	(3.844805e-20 -9.818103e-18 -8.265687e-02)
126           	(1.202137e-15 -2.387722e-17 -2.911546e+01)	(1.202100e-15 -1.405250e-17 -2.903264e+01)	(3.725503e-20 -9.824719e-18 -8.282209e-02)
127           	(1.204471e-15 -2.395676e-17 -2.911915e+01)	(1.204435e-15 -1.412563e-17 -2.903617e+01)	(3.610478e-20 -9.831131e-18 -8.298586e-02)
128           	(1.208529e-15 -2.411965e-17 -2.912459e+01)	(1.208494e-15 -1.428240e-17 -2.904144e+01)	(3.503268e-20 -9.837244e-18 -8.315059e-02)
129           	(1.210998e-15 -2.419130e-17 -2.912957e+01)	(1.210964e-15 -1.434834e-17 -2.904626e+01)	(3.403086e-20 -9.842957e-18 -8.331297e-02)
130           	(1.215245e-15 -2.436017e-17 -2.913717e+01)	(1.215212e-15 -1.451196e-17 -2.905370e+01)	(3.312989e-20 -9.848206e-18 -8.347589e-02)
131           	(1.217796e-15 -2.442793e-17 -2.914542e+01)	(1.217763e-15 -1.457494e-17 -2.906178e+01)	(3.229669e-20 -9.852994e-18 -8.363605e-02)
132           	(1.221857e-15 -2.457936e-17 -2.915958e+01)	(1.221825e-15 -1.472201e-17 -2.907579e+01)	(3.155283e-20 -9.857351e-18 -8.379682e-02)
133           	(1.224193e-15 -2.461586e-17 -2.917362e+01)	(1.224162e-15 -1.475450e-17 -2.908967e+01)	(3.085106e-20 -9.861360e-18 -8.395481e-02)
134           	(1.227988e-15 -2.472398e-17 -2.919356e+01)	(1.227958e-15 -1.485894e-17 -2.910945e+01)	(3.022063e-20 -9.865043e-18 -8.411343e-02)
135           	(1.231314e-15 -2.478809e-17 -2.921372e+01)	(1.231284e-15 -1.491968e-17 -2.912945e+01)	(2.963781e-20 -9.868411e-18 -8.426983e-02)
136           	(1.233239e-15 -2.477556e-17 -2.922921e+01)	(1.233210e-15 -1.490408e-17 -2.914478e+01)	(2.911361e-20 -9.871480e-18 -8.442552e-02)
137           	(1.236933e-15 -2.484124e-17 -2.925008e+01)	(1.236905e-15 -1.496703e-17 -2.916550e+01)	(2.864997e-20 -9.874208e-18 -8.458031e-02)
138           	(1.240607e-15 -2.490747e-17 -2.927122e+01)	(1.240579e-15 -1.503091e-17 -2.918649e+01)	(2.823673e-20 -9.876560e-18 -8.473161e-02)
139           	(1.243856e-15 -2.495518e-17 -2.929202e+01)	(1.243828e-15 -1.507661e-17 -2.920714e+01)	(2.790729e-20 -9.878570e-18 -8.488289e-02)
140           	(1.245792e-15 -2.493621e-17 -2.930953e+01)	(1.245764e-15 -1.505592e-17 -2.922450e+01)	(2.762900e-20 -9.880293e-18 -8.503225e-02)
141           	(1.249646e-15 -2.501557e-17 -2.933531e+01)	(1.249619e-15 -1.513382e-17 -2.925013e+01)	(2.740306e-20 -9.881751e-18 -8.518004e-02)
142           	(1.253350e-15 -2.507375e-17 -2.936254e+01)	(1.253323e-15 -1.519077e-17 -2.927721e+01)	(2.721050e-20 -9.882982e-18 -8.532429e-02)
143           	(1.256445e-15 -2.508609e-17 -2.938846e+01)	(1.256417e-15 -1.520207e-17 -2.930299e+01)	(2.708792e-20 -9.884014e-18 -8.546889e-02)
144           	(1.259100e-15 -2.506569e-17 -2.941298e+01)	(1.259073e-15 -1.518085e-17 -2.932737e+01)	(2.701232e-20 -9.884842e-18 -8.561257e-02)
145           	(1.260912e-15 -2.501103e-17 -2.943339e+01)	(1.260885e-15 -1.512555e-17 -2.934764e+01)	(2.695363e-20 -9.885478e-18 -8.575301e-02)
146           	(1.264836e-15 -2.504941e-17 -2.946312e+01)	(1.264809e-15 -1.516350e-17 -2.937723e+01)	(2.693142e-20 -9.885910e-18 -8.589129e-02)
147           	(1.268667e-15 -2.508252e-17 -2.949373e+01)	(1.268640e-15 -1.519639e-17 -2.940771e+01)	(2.693795e-20 -9.886135e-18 -8.602615e-02)
148           	(1.271704e-15 -2.507417e-17 -2.952239e+01)	(1.271677e-15 -1.518796e-17 -2.943623e+01)	(2.700976e-20 -9.886215e-18 -8.616188e-02)
149           	(1.273288e-15 -2.499927e-17 -2.954495e+01)	(1.273261e-15 -1.511307e-17 -2.945865e+01)	(2.710461e-20 -9.886207e-18 -8.629590e-02)
150           	(1.276542e-15 -2.499504e-17 -2.957842e+01)	(1.276515e-15 -1.510891e-17 -2.949200e+01)	(2.722384e-20 -9.886124e-18 -8.642797e-02)
151           	(1.279887e-15 -2.499476e-17 -2.961301e+01)	(1.279860e-15 -1.510878e-17 -2.952645e+01)	(2.734672e-20 -9.885976e-18 -8.655576e-02)
152           	(1.282855e-15 -2.497775e-17 -2.964465e+01)	(1.282828e-15 -1.509198e-17 -2.955797e+01)	(2.752002e-20 -9.885773e-18 -8.668363e-02)
153           	(1.285403e-15 -2.493748e-17 -2.967382e+01)	(1.285375e-15 -1.505198e-17 -2.958700e+01)	(2.772531e-20 -9.885497e-18 -8.681044e-02)
154           	(1.287831e-15 -2.488540e-17 -2.970358e+01)	(1.287803e-15 -1.500026e-17 -2.961665e+01)	(2.794667e-20 -9.885134e-18 -8.693487e-02)
155           	(1.290421e-15 -2.483644e-17 -2.973604e+01)	(1.290393e-15 -1.495176e-17 -2.964898e+01)	(2.818011e-20 -9.884683e-18 -8.705649e-02)
156           	(1.293189e-15 -2.479402e-17 -2.977063e+01)	(1.293160e-15 -1.490987e-17 -2.968345e+01)	(2.842937e-20 -9.884158e-18 -8.717571e-02)
157           	(1.295938e-15 -2.474940e-17 -2.980554e+01)	(1.295909e-15 -1.486581e-17 -2.971824e+01)	(2.869753e-20 -9.883584e-18 -8.729313e-02)
158           	(1.298504e-15 -2.469400e-17 -2.983972e+01)	(1.298475e-15 -1.481101e-17 -2.975231e+01)	(2.898266e-20 -9.882991e-18 -8.740898e-02)
159           	(1.300896e-15 -2.462895e-17 -2.987350e+01)	(1.300867e-15 -1.474655e-17 -2.978597e+01)	(2.927995e-20 -9.882401e-18 -8.752310e-02)
160           	(1.303237e-15 -2.456229e-17 -2.990769e+01)	(1.303208e-15 -1.468047e-17 -2.982005e+01)	(2.958610e-20 -9.881820e-18 -8.763522e-02)
161           	(1.305623e-15 -2.450032e-17 -2.994258e+01)	(1.305593e-15 -1.461907e-17 -2.985484e+01)	(2.990113e-20 -9.881245e-18 -8.774520e-02)
162           	(1.308047e-15 -2.444238e-17 -2.997778e+01)	(1.308016e-15 -1.456172e-17 -2.988993e+01)	(3.022695e-20 -9.880663e-18 -8.785313e-02)
163           	(1.310434e-15 -2.438258e-17 -3.001281e+01)	(1.310403e-15 -1.450252e-17 -2.992485e+01)	(3.056462e-20 -9.880064e-18 -8.795916e-02)
164           	(1.312724e-15 -2.431546e-17 -3.004760e+01)	(1.312693e-15 -1.443602e-17 -2.995954e+01)	(3.091308e-20 -9.879442e-18 -8.806339e-02)
165           	(1.314918e-15 -2.424021e-17 -3.008244e+01)	(1.314886e-15 -1.436141e-17 -2.999427e+01)	(3.126984e-20 -9.878799e-18 -8.816580e-02)
166           	(1.317055e-15 -2.416015e-17 -3.011753e+01)	(1.317024e-15 -1.428200e-17 -3.002926e+01)	(3.163252e-20 -9.878144e-18 -8.826634e-02)
167           	(1.319172e-15 -2.407919e-17 -3.015277e+01)	(1.319140e-15 -1.420170e-17 -3.006440e+01)	(3.199977e-20 -9.877488e-18 -8.836498e-02)
168           	(1.321269e-15 -2.399935e-17 -3.018784e+01)	(1.321236e-15 -1.412251e-17 -3.009938e+01)	(3.237101e-20 -9.876838e-18 -8.846173e-02)
169           	(1.323330e-15 -2.392068e-17 -3.022253e+01)	(1.323298e-15 -1.404448e-17 -3.013397e+01)	(3.274567e-20 -9.876202e-18 -8.855661e-02)
170           	(1.325346e-15 -2.384252e-17 -3.025686e+01)	(1.325312e-15 -1.396694e-17 -3.016821e+01)	(3.312302e-20 -9.875581e-18 -8.864963e-02)
171           	(1.327316e-15 -2.376433e-17 -3.029100e+01)	(1.327282e-15 -1.388936e-17 -3.020226e+01)	(3.350232e-20 -9.874973e-18 -8.874082e-02)
172           	(1.329248e-15 -2.368572e-17 -3.032506e+01)	(1.329214e-15 -1.381134e-17 -3.023623e+01)	(3.388296e-20 -9.874376e-18 -8.883021e-02)
173           	(1.331144e-15 -2.360611e-17 -3.035898e+01)	(1.331110e-15 -1.373232e-17 -3.027006e+01)	(3.426448e-20 -9.873789e-18 -8.891784e-02)
174           	(1.333000e-15 -2.352488e-17 -3.039264e+01)	(1.332966e-15 -1.365167e-17 -3.030364e+01)	(3.464650e-20 -9.873210e-18 -8.900375e-02)
175           	(1.334811e-15 -2.344178e-17 -3.042595e+01)	(1.334776e-15 -1.356915e-17 -3.033686e+01)	(3.502873e-20 -9.872637e-18 -8.908795e-02)
176           	(1.336577e-15 -2.335722e-17 -3.045891e+01)	(1.336542e-15 -1.348515e-17 -3.036974e+01)	(3.541109e-20 -9.872069e-18 -8.917048e-02)
177           	(1.338304e-15 -2.327206e-17 -3.049157e+01)	(1.338268e-15 -1.340056e-17 -3.040232e+01)	(3.579358e-20 -9.871504e-18 -8.925135e-02)
178           	(1.339995e-15 -2.318715e-17 -3.052398e+01)	(1.339959e-15 -1.331621e-17 -3.043465e+01)	(3.617608e-20 -9.870944e-18 -8.933059e-02)
179           	(1.341652e-15 -2.310294e-17 -3.055610e+01)	(1.341616e-15 -1.323255e-17 -3.046669e+01)	(3.655815e-20 -9.870392e-18 -8.940823e-02)
180           	(1.343275e-15 -2.301943e-17 -3.058793e+01)	(1.343238e-15 -1.314958e-17 -3.049844e+01)	(3.693898e-20 -9.869851e-18 -8.948433e-02)
181           	(1.344863e-15 -2.293646e-17 -3.061943e+01)	(1.344826e-15 -1.306714e-17 -3.052987e+01)	(3.731757e-20 -9.869325e-18 -8.955893e-02)
182           	(1.346416e-15 -2.285386e-17 -3.065062e+01)	(1.346378e-15 -1.298504e-17 -3.056099e+01)	(3.769305e-20 -9.868817e-18 -8.963209e-02)
183           	(1.347934e-15 -2.277150e-17 -3.068150e+01)	(1.347896e-15 -1.290317e-17 -3.059180e+01)	(3.806498e-20 -9.868327e-18 -8.970384e-02)
184           	(1.349418e-15 -2.268925e-17 -3.071210e+01)	(1.349380e-15 -1.282140e-17 -3.062233e+01)	(3.843340e-20 -9.867852e-18 -8.977420e-02)
185           	(1.350867e-15 -2.260695e-17 -3.074242e+01)	(1.350828e-15 -1.273956e-17 -3.065257e+01)	(3.879878e-20 -9.867388e-18 -8.984322e-02)
186           	(1.352281e-15 -2.252439e-17 -3.077246e+01)	(1.352242e-15 -1.265746e-17 -3.068255e+01)	(3.916165e-20 -9.866931e-18 -8.991090e-02)
187           	(1.353659e-15 -2.244145e-17 -3.080222e+01)	(1.353619e-15 -1.257497e-17 -3.071225e+01)	(3.952231e-20 -9.866479e-18 -8.997729e-02)
188           	(1.355000e-15 -2.235820e-17 -3.083172e+01)	(1.354960e-15 -1.249217e-17 -3.074168e+01)	(3.988053e-20 -9.866032e-18 -9.004241e-02)
189           	(1.356307e-15 -2.227492e-17 -3.086095e+01)	(1.356267e-15 -1.240933e-17 -3.077084e+01)	(4.023559e-20 -9.865592e-18 -9.010632e-02)
190           	(1.357583e-15 -2.219203e-17 -3.088993e+01)	(1.357543e-15 -1.232687e-17 -3.079976e+01)	(4.058646e-20 -9.865163e-18 -9.016905e-02)
191           	(1.358830e-15 -2.210989e-17 -3.091866e+01)	(1.358789e-15 -1.224514e-17 -3.082843e+01)	(4.093212e-20 -9.864750e-18 -9.023065e-02)
192           	(1.360048e-15 -2.202866e-17 -3.094714e+01)	(1.360006e-15 -1.216431e-17 -3.085684e+01)	(4.127199e-20 -9.864353e-18 -9.029115e-02)
193           	(1.361237e-15 -2.194827e-17 -3.097537e+01)	(1.361195e-15 -1.208430e-17 -3.088502e+01)	(4.160610e-20 -9.863971e-18 -9.035061e-02)
194           	(1.362395e-15 -2.186845e-17 -3.100336e+01)	(1.362353e-15 -1.200485e-17 -3.091295e+01)	(4.193496e-20 -9.863603e-18 -9.040906e-02)
195           	(1.363523e-15 -2.178882e-17 -3.103113e+01)	(1.363481e-15 -1.192558e-17 -3.094066e+01)	(4.225927e-20 -9.863245e-18 -9.046650e-02)
196           	(1.364620e-15 -2.170907e-17 -3.105867e+01)	(1.364577e-15 -1.184618e-17 -3.096815e+01)	(4.257956e-20 -9.862894e-18 -9.052298e-02)
197           	(1.365685e-15 -2.162904e-17 -3.108599e+01)	(1.365642e-15 -1.176650e-17 -3.099541e+01)	(4.289593e-20 -9.862547e-18 -9.057851e-02)
198           	(1.366719e-15 -2.154883e-17 -3.111308e+01)	(1.366676e-15 -1.168662e-17 -3.102244e+01)	(4.320798e-20 -9.862205e-18 -9.063312e-02)
199           	(1.367725e-15 -2.146872e-17 -3.113994e+01)	(1.367681e-15 -1.160685e-17 -3.104925e+01)	(4.351495e-20 -9.861869e-18 -9.068687e-02)
200           	(1.368704e-15 -2.138910e-17 -3.116657e+01)	(1.368660e-15 -1.152756e-17 -3.107583e+01)	(4.381597e-20 -9.861542e-18 -9.073978e-02)
201           	(1.369657e-15 -2.131030e-17 -3.119297e+01)	(1.369613e-15 -1.144907e-17 -3.110218e+01)	(4.411042e-20 -9.861225e-18 -9.079190e-02)
202           	(1.370586e-15 -2.123244e-17 -3.121914e+01)	(1.370541e-15 -1.137152e-17 -3.112830e+01)	(4.439808e-20 -9.860919e-18 -9.084326e-02)
203           	(1.371490e-15 -2.115544e-17 -3.124509e+01)	(1.371445e-15 -1.129481e-17 -3.115419e+01)	(4.467923e-20 -9.860623e-18 -9.089388e-02)
204           	(1.372369e-15 -2.107905e-17 -3.127080e+01)	(1.372324e-15 -1.121872e-17 -3.117985e+01)	(4.495442e-20 -9.860336e-18 -9.094377e-02)
205           	(1.373223e-15 -2.100303e-17 -3.129628e+01)	(1.373177e-15 -1.114298e-17 -3.120528e+01)	(4.522421e-20 -9.860055e-18 -9.099294e-02)
206           	(1.374051e-15 -2.092721e-17 -3.132151e+01)	(1.374006e-15 -1.106743e-17 -3.123047e+01)	(4.548891e-20 -9.859778e-18 -9.104143e-02)
207           	(1.374855e-15 -2.085157e-17 -3.134651e+01)	(1.374809e-15 -1.099207e-17 -3.125542e+01)	(4.574845e-20 -9.859505e-18 -9.108924e-02)