/*--------------------------------*- C++ -*----------------------------------*\
| =========                 |                                                 |
| \\      /  F ield         | OpenFOAM: The Open Source CFD Toolbox           |
|  \\    /   O peration     | Version:  v1912                                 |
|   \\  /    A nd           | Website:  www.openfoam.com                      |
|    \\/     M anipulation  |                                                 |
\*---------------------------------------------------------------------------*/
FoamFile
{
    version     2.0;
    format      ascii;
    class       volScalarField;
    location    "2.2";
    object      k;
}
// * * * * * * * * * * * * * * * * * * * * * * * * * * * * * * * * * * * * * //

dimensions      [0 2 -2 0 0 0 0];


internalField   nonuniform List<scalar> 
12556
(
36.90868999
36.90873304
36.90879237
36.90886143
36.95440128
36.9547453
36.9553705
36.95688325
36.95997911
36.96565551
36.97459248
36.98567541
36.9945285
36.99847314
36.99312075
36.98401619
36.97378387
36.96538468
36.96019541
36.95693567
36.91066264
36.909371
36.90876379
36.90842418
36.72744861
36.72764806
36.72784263
36.72817905
36.77368248
36.77545029
36.77923638
36.80751368
36.8217841
36.84794006
36.88933743
36.94194965
36.99081712
37.0055325
36.98955751
36.94711637
36.89754326
36.85623696
36.80732628
36.78878695
36.73469767
36.73053891
36.72850797
36.72753066
36.54734604
36.54780788
36.54831899
36.54908125
36.59527227
36.59980624
36.60892105
36.64637597
36.68114039
36.74349841
36.84347351
36.95161025
37.02350428
37.04878594
37.02518766
36.95671613
36.8573464
36.76368061
36.67451268
36.63291123
36.56622461
36.55654758
36.55196767
36.55013918
36.36864609
36.36910768
36.36987952
36.37164697
36.41888665
36.42845093
36.44769244
36.50358463
36.57606186
36.71440614
36.88902555
37.0524447
37.15200301
37.17421913
37.12788848
37.02797334
36.88762927
36.73645591
36.58067278
36.49936379
36.40727641
36.38908457
36.38010479
36.37658457
36.19187881
36.19244377
36.19381182
36.1973665
36.24693734
36.26383188
36.30031882
36.38435875
36.53435602
36.77149788
37.04965408
37.30630553
37.46445326
37.46718192
37.35789677
37.1893118
36.98992197
36.77415821
36.54884979
36.39707103
36.26353284
36.22830929
36.21206515
36.20573808
36.01677134
36.01752642
36.0197879
36.02582376
36.080073
36.10875034
36.17255973
36.30251762
36.55617649
36.91794085
37.38055959
37.87301489
38.1860232
38.11966347
37.810417
37.49243487
37.18538746
36.88028444
36.56737831
36.33349483
36.13550599
36.07371309
36.04661032
36.03593422
35.84411572
35.8453782
35.84931145
35.85927268
35.91891059
35.96351682
36.06479309
36.26306328
36.62531457
37.16757535
37.95315687
39.15317893
39.93148052
39.75264187
38.64888454
37.99194251
37.49399593
37.05779873
36.6259042
36.3132392
36.02308304
35.9255162
35.88277923
35.86597828
35.67450145
35.67648767
35.68256422
35.69707119
35.76544635
35.83015107
35.97878129
36.25093425
36.72555841
37.48058225
38.73377557
41.36098251
42.44027003
40.0344267
38.7091339
37.92125556
37.30512454
36.72405348
36.32191241
35.92863982
35.78479844
35.72120238
35.69645568
35.50956971
35.51279086
35.52209683
35.54349022
35.62198435
35.70997034
35.91182873
36.25440178
36.84307179
37.80000602
39.43712156
43.27451298
46.87844215
41.76535259
39.58482599
38.43144983
37.60407576
36.8503271
36.34742021
35.85047188
35.65367744
35.56482216
35.53050566
35.35015077
35.35474443
35.36758583
35.39713403
35.48725261
35.60231306
35.85878742
36.26540085
36.96014128
38.07960074
39.93971303
44.12605703
50.04783666
43.3564924
40.48295356
38.98185644
37.92807355
36.99191845
36.38307816
35.78973685
35.53604022
35.41864744
35.37325933
35.19789056
35.20443877
35.22195672
35.26218078
35.36094157
35.50581581
35.81519035
36.28192322
37.07603742
38.32845371
40.34724747
44.21755889
51.63545081
44.56532434
41.30783464
39.51388384
38.24680287
37.1324628
36.42501082
35.7429279
35.43431198
35.28758915
35.23015573
35.05255651
35.06083427
35.08268971
35.13311119
35.24281633
35.41799993
35.77677781
36.30299564
37.18846649
38.56149611
40.73561053
43.81560282
52.32202455
45.40752169
41.99164954
39.97998167
38.52754902
37.25911773
36.46794426
35.71029114
35.34928741
35.17429409
35.10461016
34.9148697
34.92544468
34.95348837
35.01533934
35.13180989
35.33555922
35.73941481
36.32377389
37.29713233
38.78861472
41.15879489
43.25432711
47.53220104
52.13663618
45.97216207
42.50844634
40.36493787
38.75268056
37.36245567
36.50513108
35.68348503
35.27929302
35.07800762
34.99694237
34.7832261
34.79596173
34.82963195
34.90071242
35.03270521
35.27257125
35.72365415
36.35934732
37.42817312
39.06070258
41.64409879
41.89348946
56.16358732
52.11766123
46.30261608
42.9110578
40.63886944
38.90561047
37.43981941
36.53185676
35.65610052
35.21927952
34.99506147
34.90394118
34.65704413
34.67181912
34.71063398
34.79027747
34.93293846
35.1980992
35.67914007
36.34760549
37.4577227
39.18185784
41.93816273
38.0529513
55.78583155
51.67829955
46.44932393
43.13796548
40.80548809
38.99027586
37.48380542
36.54575384
35.62501657
35.16315431
34.92000163
34.82072071
34.53369253
34.5503785
34.59373184
34.68145569
34.8346786
35.12031513
35.62661726
36.30580689
37.42851185
39.16372025
41.86640344
34.40794557
53.71994193
51.07405642
46.50866865
43.27161942
40.85723055
39.01007219
37.49402519
36.5367643
35.58174043
35.10290719
34.84680184
34.74096966
34.41286803
34.43124424
34.47822428
34.57273207
34.7352528
35.03683992
35.56367306
36.25122248
37.34722889
39.02885974
41.43400408
35.2566547
51.01031602
50.54632156
46.40360502
43.21500473
40.79647357
38.98332807
37.46989936
36.49765055
35.52607434
35.03762381
34.77097525
34.65999476
34.29139431
34.31123762
34.3611874
34.46172562
34.63282284
34.94621505
35.48762946
36.1915675
37.25907617
38.83672932
40.92740928
36.80186255
47.19943016
49.91283877
46.10438988
42.95936109
40.6196462
38.88412662
37.39351491
36.42599762
35.45081002
34.95863788
34.68789704
34.57320946
34.1704191
34.19145581
34.24349744
34.34843757
34.52613656
34.84786614
35.398638
36.11273368
37.18837405
38.70406887
40.49148185
36.71545888
43.48402838
48.94936421
45.56490711
42.5936309
40.39372339
38.7339436
37.28246523
36.32896607
35.35970788
34.86857005
34.59604093
34.4794704
34.04637694
34.06838001
34.12210306
34.23097048
34.41470324
34.74202024
35.29798737
36.0168142
37.09431309
38.58552536
40.10250696
34.69953278
41.87298422
47.85773211
44.97993607
42.22889203
40.14690469
38.55467608
37.1467973
36.2117074
35.25361063
34.7663395
34.49377431
34.3761613
33.92257075
33.94528056
33.99996759
34.11105803
34.29848554
34.6293586
35.18736647
35.90712514
36.98104518
38.43263607
39.66829322
32.82272472
40.52445344
46.83891961
44.42935171
41.87618416
39.89367584
38.36031378
36.9942108
36.07904562
35.13606858
34.65505261
34.38372221
34.26568959
33.79423695
33.81748953
33.87308157
33.98658154
34.17796463
34.51085058
35.06861022
35.78665797
36.85338145
38.25363804
39.20467283
31.31974909
39.19192852
45.87597868
43.90443213
41.53805078
39.64165763
38.15926333
36.83079845
35.93518406
35.00792578
34.53363684
34.26398025
34.14587972
33.66753008
33.69111917
33.74703343
33.86116062
34.05373156
34.38761706
34.94348855
35.65800403
36.71484523
38.05445423
38.71887189
30.08376816
37.89207382
44.96018099
43.39951093
41.21250597
39.39474658
37.95662662
36.66115109
35.78362005
34.87371087
34.40722773
34.13966379
34.02171672
33.53498464
33.5588354
33.615335
33.73119084
33.92664774
34.26077126
34.81361834
35.5233698
36.56805694
37.838761
38.22406028
29.0540412
36.63684569
44.08489308
42.91032623
40.8966174
39.15438902
37.75552736
36.48858772
35.62720974
34.73246
34.27271485
34.0069628
33.88920163
33.40684028
33.43080005
33.48730577
33.60273475
33.79732376
34.13132405
34.68044501
35.38464057
36.41501246
37.60884162
37.73071959
28.19623438
35.42819955
43.24718976
42.43351141
40.58845581
38.92072369
37.55777037
36.31541288
35.46807936
34.58983795
34.13769291
33.87391268
33.75636995
33.27069467
33.29476717
33.35180059
33.46898195
33.66660362
34.00011206
34.54514951
35.24333925
36.25706491
37.3665205
37.24448514
27.4807886
34.25899734
42.44060559
41.96621738
40.28684221
38.69339185
37.36421564
36.14312334
35.30786563
34.4416592
33.99494479
33.73251796
33.61507788
33.14328794
33.1673569
33.22424573
33.34018081
33.534828
33.86782264
34.40867882
35.10058838
36.09505387
37.11515233
36.76953221
26.89402635
33.11940932
41.65373297
41.50595987
39.99107482
38.47201014
37.17519219
35.9726735
35.14762977
34.29647728
33.85669754
33.59585632
33.47850177
33.00380493
33.02792669
33.08539934
33.20359359
33.40279375
33.73499941
34.27172513
34.95711612
35.92950642
36.85775722
36.30934134
26.43332256
31.99853358
40.87812741
41.05207752
39.70126325
38.25634429
36.99072128
35.80460232
34.98825033
34.14463051
33.70846911
33.44841547
33.33097788
32.87971426
32.90379631
32.96106855
33.07721535
33.27045425
33.60207735
34.13479443
34.81336406
35.760778
36.59633819
35.8661451
26.06635463
30.91494036
40.11959193
40.60788118
39.41865959
38.04635901
36.81070209
35.6392091
34.83009319
34.0012009
33.57148026
33.31263492
33.19511399
32.7361936
32.76031914
32.81824564
32.93745035
33.13872109
33.46942271
33.99824571
34.66952904
35.58900237
36.3325391
35.43891078
25.72294107
29.91658441
39.39040685
40.17830986
39.14448979
37.84197338
36.63493114
35.47662434
34.67372352
33.84633285
33.41824172
33.15970387
33.04191847
32.61861626
32.642711
32.70047808
32.81687848
33.00706627
33.33732631
33.86235168
34.52565837
35.41418717
36.06691035
35.02221025
25.33788493
29.03733712
38.70185189
39.76676498
38.8792832
37.64296012
36.46316566
35.31689688
34.51906204
33.70890456
33.28705722
33.02938301
32.9113769
32.4689245
32.49308202
32.5515094
32.67168461
32.87682697
33.20608619
33.72734172
34.38174383
35.23643207
35.79983406
34.60842263
24.88446774
28.28318881
38.05916756
39.37419311
38.62285071
37.44898918
36.29515034
35.16003266
34.36672736
33.5487807
33.12673245
32.86906321
32.75064249
32.3622649
32.38642025
32.44486091
32.56204629
32.74680366
33.07599178
33.59344573
34.23776146
35.05596416
35.53073648
34.19136716
24.37326927
27.64474148
37.46127139
38.99960685
38.37457152
37.25965322
36.13057472
35.00606433
34.21625588
33.42356259
33.00731219
32.75010914
32.631392
32.20223143
32.2264863
32.28549559
32.40596219
32.61950635
32.94761466
33.46105685
34.09373721
34.87313052
35.2592341
33.76830122
23.82771138
27.10500871
36.90449633
38.64160396
38.1336955
37.07458124
35.9692717
34.85532121
34.06899806
33.25127378
32.83446286
32.5771927
32.45792751
32.11262826
32.13693533
32.19621123
32.31596401
32.49327425
32.82204806
33.33135
33.94970047
34.68827579
34.98532265
33.33975952
23.26906933
26.64452837
36.38478595
38.29846882
37.89944769
36.89341737
35.81101859
34.7090281
33.92491753
33.14977997
32.73555
32.47826468
32.35868377
31.90857248
31.93307651
31.99315074
32.115785
32.37476981
32.7021645
33.20841484
33.80606393
34.50236696
34.71104195
32.91149149
22.71502701
26.24772523
35.90195192
37.9715488
37.67215911
36.71628078
35.65576733
34.5711884
33.78968777
32.92821181
32.51378363
32.25617497
32.13581528
43.12333839
47.37286636
42.79829641
44.05992157
50.89344682
47.81682792
44.24688839
52.57599887
51.19131909
43.87970584
53.26151667
52.68987057
43.29339529
43.13579252
46.5525843
53.56701921
53.30175293
42.35369915
53.21056991
43.5379537
55.81382003
54.05907632
53.59113149
41.02342567
39.87550667
42.34473007
39.6792308
50.6777897
44.29122048
46.37673288
42.15765533
40.55688678
39.82739867
43.15907012
42.40389277
55.29754715
56.47935828
49.75351093
44.13830791
42.69476103
40.25098067
43.62519968
43.2450917
44.25789056
45.90223073
46.8210028
54.49163611
53.95220798
51.50631633
45.58199674
44.5613441
40.65042637
43.60595057
43.64124703
44.0942166
42.50187743
44.3596715
55.76881346
55.0583243
41.06156551
43.37815781
43.58940475
43.58944192
38.00787202
40.30589024
39.71430431
56.48453361
56.25847906
41.55444081
42.86630541
43.3352207
42.93765676
32.41399509
34.90108857
40.90063351
54.58544086
53.55567161
47.18415501
48.87845467
43.3962509
46.80329853
56.35736598
50.99837889
45.36665491
50.08975231
55.0245858
46.93562856
47.63058635
43.75936226
48.2362079
47.00643168
48.96951344
48.37866933
54.01873032
55.12740859
49.5406346
55.96225273
55.30360869
55.23933234
56.03086114
49.30139598
44.53869005
45.74697526
44.27459388
45.42892917
43.71279204
46.92675838
45.53512092
54.92518349
54.57175916
52.11095681
55.80504642
56.02764344
55.27175862
55.75704329
51.92415284
40.4333364
42.38577417
44.04565857
41.4885363
39.10466233
43.59723903
41.6201034
56.2213321
55.84300471
35.04842312
37.84152514
43.55587845
40.38451539
36.01842769
33.06848253
38.96737411
36.21586043
41.07997525
56.75975229
56.51316898
39.64538467
39.99144006
32.35382442
42.89059099
50.0674764
31.99060399
74.64371032
32.98594925
31.99780173
49.38548856
39.28318587
42.26307891
40.72207234
42.28286498
45.86597322
43.00707809
60.80112713
46.76889199
43.65989702
47.71054334
47.74924719
46.07149866
52.28206122
46.51032356
45.8682913
52.39117644
49.99520834
48.58184513
52.66110547
57.06055541
56.84703955
47.5976467
46.16092915
42.5338412
54.14677996
45.29172472
52.19623875
43.91859842
49.17958819
44.76088907
48.17699826
44.48358993
53.05565661
56.18388081
56.30958529
56.04616286
56.1704871
52.98593559
39.95932312
46.54244076
45.85632047
41.42750137
41.02832744
42.97192519
43.79691998
41.51625097
41.48751914
65.00176275
47.81296258
60.40631351
45.94261629
57.18488315
47.00032718
56.4708823
56.5629334
54.15595418
54.12144323
41.1002979
44.05997934
55.50853516
41.45976392
43.11057979
45.45325488
41.55232022
55.42220431
39.2563962
43.13939919
42.80255222
52.64881318
50.76656301
47.76335136
33.96686624
41.03037284
40.54734698
41.64236615
41.2027848
34.11574575
58.13604662
54.57873098
48.04156424
54.85763587
55.80704036
50.78491483
54.54382185
48.27239732
44.95810619
49.97144118
44.71931804
55.0926124
50.692437
45.49444538
52.8498899
57.95648225
54.33065791
53.9458513
47.65689823
43.94053056
47.57807574
48.84877908
47.17602003
50.26729108
44.316568
46.76932627
48.75012871
54.65742145
54.75768343
55.63374053
53.39119035
52.78384412
54.0024607
53.56135118
55.58308595
56.18075289
51.44368047
50.42649051
52.55253481
51.74549497
56.22513941
44.64883705
44.5378923
46.32284783
46.23489202
55.05927372
45.99844237
54.9997939
40.54652279
40.38386988
42.67086653
42.53661489
43.60473678
47.43516588
56.03015597
43.80405428
41.13578672
36.76466851
42.19432811
41.78623826
42.68612057
42.3219731
36.90645383
39.67902378
35.16801457
35.04269321
38.00562247
37.86862667
53.60494693
41.11752755
54.44257641
53.16950644
40.36224953
39.90720532
32.0168991
33.1774617
41.67651889
41.52944307
32.57838208
66.75300755
41.82470472
58.74841667
32.49980101
46.82809525
44.26665031
40.71775956
59.40726204
39.93736126
40.30645249
41.88469923
42.41811185
42.77450549
41.39993421
33.6958833
41.39187122
56.28093991
53.50355152
53.99297039
53.0044419
40.56530204
43.22194511
55.58310897
54.78109487
41.88194287
57.18241041
57.11313198
53.15512879
43.06968276
42.57340188
44.89252835
45.95611914
42.82894139
43.1249341
55.87535425
58.61746482
57.62706763
56.68315955
54.28034341
45.55696002
45.96268707
48.39516278
47.66175256
53.86428013
43.33280843
44.63007137
44.38181456
44.93961675
44.70981532
43.46773356
43.55651453
43.24576436
39.38998279
32.77793754
37.71816829
37.30522841
67.02705834
50.04425551
53.97074444
55.67551788
59.63788757
58.86698103
52.49848424
48.36921696
46.9572909
50.04887267
48.81396481
52.85473825
54.25801636
49.5781757
48.72789189
54.85532923
45.08063668
45.21231901
45.01185074
40.25590311
40.74607109
44.07316581
46.21107575
46.55477251
54.75433984
55.92069326
54.83290621
54.72882999
55.32126574
54.41991602
54.12048485
54.68571717
54.49558312
55.33693968
41.42286402
43.94026684
43.65532084
44.29622405
44.03171383
41.55381583
41.09440523
35.94786798
36.2604024
33.60234615
33.81569754
39.57255696
43.21128004
39.47408622
40.11779964
36.38586877
36.73883175
42.01325187
56.07746881
47.98942054
51.55917376
57.38338195
39.65346227
35.6138754
33.87576635
38.55853001
33.29933577
33.53122817
32.79918957
37.13672519
48.43838135
38.96598537
38.64067215
37.86021334
37.17119488
36.77714011
32.22948035
40.77051477
42.04044929
51.90900552
31.98646636
85.11052964
43.34569441
41.81834447
46.57291082
32.81446324
32.07611932
54.66998642
53.6551675
53.63181498
46.28021309
46.27904066
40.48500506
39.96199004
52.65717928
52.25327473
52.15421216
47.90789968
56.97950624
48.04192372
57.42437332
48.75727693
42.91479802
40.65239323
46.21916153
45.61259789
49.28513465
46.33582883
40.91160145
40.96445073
47.86473842
57.64225533
40.93753704
45.56346113
63.73451838
39.74672273
40.34524272
39.89781258
39.7438961
56.48325655
65.58447966
54.4326491
50.96323099
58.13799141
55.1953228
50.29569953
47.39410657
52.30235816
55.78134002
55.17892644
56.09542727
56.68237225
57.30281626
56.19463866
46.39381395
45.72343141
54.22069342
46.73080878
47.11802085
45.26706304
46.48143229
47.26324642
53.91099997
47.53961359
46.64702865
41.33178378
41.62119149
41.65080286
51.32034406
50.50828727
42.97000541
48.80077752
47.44745711
50.18307511
49.23236822
42.44717196
41.53389128
42.39471897
40.97350611
38.29907004
37.84180123
33.10039095
34.44660869
38.80855547
38.42851021
56.84305326
56.31599344
55.88762773
50.86670952
51.41773607
49.87687557
50.64475281
56.17819469
53.07407637
51.61791098
51.43609992
51.53792675
51.6367336
53.34006954
53.52247362
48.69841259
49.61818449
56.39546635
56.81897986
59.24107592
58.84727188
55.35302275
60.42174098
61.15059244
61.42656148
60.01669551
59.01707478
61.35392308
59.8951358
52.69504545
58.07318574
59.28584762
42.60606363
47.74740971
46.9131446
48.53400057
47.97327263
43.1575921
45.75316785
45.17677976
46.62252927
45.95147067
48.41571372
50.68439825
50.16783176
51.30916422
50.84999295
48.85902693
45.30169428
49.27405023
48.7227399
49.99137437
49.45529952
45.65888248
50.71639226
49.76888029
54.35353701
54.86709375
52.13850098
51.07326031
39.80606368
39.32698596
40.63831837
39.97427999
38.56484933
38.09783906
39.17573074
38.7040569
44.25318458
43.70694803
44.99051909
44.44025548
42.61709105
41.06696804
43.50753561
42.95916293
45.16910627
44.42278821
47.04974366
45.65374041
46.52411574
44.14438082
44.93474692
44.2012412
43.93530354
35.5169345
35.82450502
40.96190278
34.00487036
33.79003564
34.30232383
34.09289853
33.68290365
39.7722236
33.89995661
35.24510262
37.52793595
39.19731388
43.08059266
37.19360826
35.23399879
38.0020316
37.28329553
34.669033
34.40033761
35.09309217
34.77555358
42.14364275
36.86461759
37.28726387
49.27586877
42.28991129
48.51064513
45.09107417
48.27845862
41.84911369
59.49226953
39.55538253
57.44327232
51.14672229
35.49854791
34.43521475
33.02222072
33.23040181
38.42202923
37.37147856
32.82562624
32.96677378
53.35148592
32.17154583
36.59178499
35.9213049
67.47301639
74.6112581
31.92020793
78.65989525
58.5159139
41.25644349
32.74861043
66.52507423
44.26773286
76.55318957
46.00311448
32.18785935
42.0326869
40.06165864
38.85987936
51.57949542
51.21235438
52.75259258
47.08009907
46.69725157
51.51730228
41.4769764
40.34692446
39.65794188
56.31816784
56.23881546
53.44037241
44.8626499
44.37039078
47.04092642
51.91791623
44.83239263
44.9142833
40.99494379
41.33002527
43.59068284
49.35383715
52.7157912
55.35716334
46.32777832
45.59336584
45.47979027
45.68927849
45.62286672
46.4580147
44.78964341
43.02196889
40.5826348
52.16135335
53.5788931
56.38967868
39.29206871
38.92851341
34.5626377
56.11362482
57.80265348
52.3090847
45.43335121
45.27258283
45.25311431
45.09614146
42.22888023
42.84184725
43.13865095
44.04904573
45.85284046
35.85089295
39.79092786
39.41150857
45.61231892
43.71340974
39.99051746
32.3615235
32.39217953
33.19520494
42.42983208
54.48297994
49.35348143
39.81630709
47.42886126
45.33101672
31.97936852
32.92661718
32.32455309
32.34554222
32.01107055
61.28262456
45.98342927
41.32494762
42.45177437
51.78364801
40.34695859
41.0937235
50.21873504
53.44135191
46.46821007
44.95717945
46.81093712
46.75465338
40.45801828
40.25842018
60.81442551
63.01583073
64.5825649
54.79707216
61.7298108
42.5727854
42.82176951
45.37420353
62.361157
58.00878393
55.6585917
65.35058699
62.78954643
41.08866552
42.62726854
41.95537919
47.17291297
46.56201256
42.65878987
52.31910015
51.60262416
41.85667804
45.5933422
42.21586041
42.41134033
44.44485544
40.08941989
40.50670821
57.85340059
58.59717085
55.19851935
55.22126661
54.16064647
54.00480463
51.32729669
52.27274263
51.91063047
53.8336899
53.62435187
54.13148329
47.29509299
48.39986694
53.01775234
54.28303462
59.39388498
55.9400142
59.62819824
59.97389525
57.37331414
41.04981822
43.12361219
42.61616672
46.6277947
46.40148737
43.71105399
40.59780852
40.36765037
42.19759202
41.86386337
47.5837252
49.65867448
49.34405988
51.57356292
51.2502317
49.78005295
44.60214866
47.21507995
46.94831178
49.02726796
48.71857042
46.391692
41.55967312
42.05728568
44.9881677
44.18700116
40.90378129
41.39708525
44.95087217
45.43450493
46.58839878
39.01298371
38.87120918
40.16441422
39.98159886
36.84030673
38.65578334
38.53762045
45.94837799
44.27424988
44.78289877
46.11867634
46.0199626
42.7351374
43.06089444
45.92006007
46.09044209
46.52273175
54.81275363
46.7322543
48.06621355
40.26507401
39.91259226
36.17363451
37.29796861
40.68849139
40.37065403
33.34229763
33.40827624
35.27870469
34.90562504
33.17863822
33.26970877
53.76678343
32.12565364
32.90752277
32.30358247
108.2261044
32.39705229
41.32161829
53.87313741
48.64596937
32.11175203
32.14215796
32.6220089
65.52567424
70.77734666
68.55038308
52.51760125
32.46363579
32.07192398
32.09420014
41.33413387
41.03441278
40.0794789
51.47872832
50.92144476
43.55833538
42.47096959
40.12292873
54.30354123
53.6157874
58.13989699
41.15258981
49.9620764
46.26240827
50.2058942
49.39922443
41.98569867
43.97100509
44.65781021
48.48030509
53.8942537
54.23282619
53.37197236
53.63857295
58.33361972
57.50581865
57.73928001
57.01001409
57.25253224
57.95359642
48.12497072
48.41387368
48.63717778
48.06313271
48.19706738
48.0074097
59.33852607
58.24635331
58.22884792
57.96569969
58.14762021
59.10766427
49.16740819
49.3896734
49.64296976
48.884508
49.12735242
48.92934248
52.70146909
52.88055
52.04237518
52.23032544
36.03242776
38.21501781
38.09066339
33.68674873
35.04902986
34.9546124
35.34785806
35.16187046
33.75400578
54.91390544
56.10208958
50.11985287
55.69579044
32.744364
32.70670899
32.83775298
32.79640479
32.53093932
33.431664
32.43555275
32.55763917
33.38109527
34.71451005
34.62718486
34.87526494
34.7937031
33.45263323
32.95524232
32.8901328
33.56788183
33.10771199
32.9309354
55.4785187
53.79402693
44.50506064
55.99240747
34.20041686
33.43347849
39.58801578
32.26179947
33.7219766
33.5794985
31.95593795
83.19376029
84.69692676
62.14907345
74.20928446
63.93775205
32.25978159
32.29582623
32.87405663
32.03949067
58.41933966
63.80867593
58.76548871
60.28538573
56.7027612
49.42549905
62.48562509
57.38812558
46.54111357
46.703166
52.72027859
43.9483498
47.0917667
53.09718952
50.4662377
54.03680776
49.54525182
52.50850544
58.82027641
60.36005013
53.38532362
57.69937675
61.28179773
49.05549219
50.16838147
48.54040154
52.33745428
60.40083875
60.51054241
58.55487934
41.95012167
53.46529703
48.03201252
59.19839237
60.14336289
43.66541918
46.04017063
49.22729978
62.59468274
51.44432065
42.41615184
43.74342341
61.72967762
58.45870063
62.05809688
57.00806408
59.5557249
61.98633212
63.23938031
62.57471358
55.29166544
55.41332327
55.64716092
54.83235697
54.96368642
55.02205153
56.91436832
56.49544915
56.7435661
55.96007177
56.20475644
56.55334554
46.16527703
48.84893596
48.83863123
46.84206815
47.0750958
45.68822196
46.82717487
46.58398231
46.30899321
47.63958
47.99901996
47.08579916
48.21817726
48.03328331
48.76858218
48.55135954
46.84241196
46.53787562
44.25945593
41.15885813
47.77562225
47.63294592
47.43150059
42.05300569
46.72963126
46.32325399
42.23260335
42.16320759
44.00717268
57.39719968
55.70726091
53.0122693
52.65153271
51.84808713
53.83639002
53.44594367
53.19265075
60.5980149
60.2568681
55.53110037
60.78640728
62.92497126
57.22121758
60.42277844
60.5803011
59.12532117
57.89713796
57.78083176
58.06226127
58.0476827
58.99915434
60.78560201
60.91807178
59.79182283
62.61364019
62.57161084
62.40765161
62.55918534
59.61032583
61.46845731
62.10955909
63.848777
61.46902878
45.30495733
45.15183322
42.54669569
43.31029093
46.03696573
45.87657519
41.0704619
40.82537223
41.582748
41.31848473
50.29093667
49.972389
47.98412654
49.31501021
50.93081678
50.61086729
47.81015924
47.52612736
44.98375034
46.00207308
48.40784413
48.11217897
50.46860773
50.45176894
50.72452058
49.90986643
50.17915478
50.07952465
51.73401846
51.45727084
51.64598278
50.99801829
51.24697367
51.4612957
39.64066326
36.95947168
37.10543822
36.69502742
36.83195412
39.48505067
40.36369778
37.5853533
37.80282017
37.24819172
37.41060836
40.15723361
38.39716332
35.92184401
36.0617873
35.6956315
35.83310317
38.27503725
39.01667385
36.43102469
36.57081098
36.16686472
36.31144713
38.86866549
39.38621284
39.22349423
44.07273261
42.09314401
42.27566474
41.71500026
41.88138998
43.88204202
39.7718935
39.5934719
37.91349554
37.77764138
42.35666986
40.42091709
40.48693717
38.12304456
38.58017804
41.68463989
43.34315784
41.34955816
41.48735198
40.977949
41.07777877
43.11593376
38.30818223
38.21314508
45.52505041
45.65778321
46.07913229
43.51283034
44.29048706
44.36965481
46.2866147
46.35197246
46.45587451
46.48856324
44.66656697
44.00404787
44.82061888
44.25480149
45.96220329
45.83136972
43.89100366
35.59354356
37.66415891
37.53408146
37.94762772
37.83051483
35.75241715
33.94870306
33.84985769
34.23552552
34.14528661
33.66222767
33.65758426
34.07300539
36.36785719
35.70735751
37.26965026
37.00886488
34.95960221
35.73293365
34.81851603
35.14783615
35.42659379
37.78673839
35.47370716
35.62067953
35.23798455
35.40543522
37.70734989
34.58173531
34.47886656
34.98334605
34.87106413
47.85686997
41.34997328
41.96964495
40.67296466
40.92320694
48.23445035
47.39580058
47.14955004
42.77591138
44.69312216
48.61383743
56.34635396
44.12104551
46.14764964
41.11625046
42.49444806
57.16834778
32.59010954
32.54170728
32.66739888
32.63435152
32.81345748
33.0700996
34.71084608
32.37488309
32.32406029
32.49078543
32.42829829
33.09095394
34.37071913
34.27909263
34.54438227
34.45346794
33.15360541
32.86966397
33.9985223
33.86704301
34.1948701
34.10168878
32.91573195
52.77850016
33.50282175
33.21916207
32.10754805
65.60460328
91.51349568
97.07444653
90.67934106
91.85733335
70.75323759
32.12744974
69.08240476
50.70100347
54.2234508
32.68699856
32.16512179
32.21674056
66.70010547
73.82402505
72.00676928
58.27781616
64.78167482
78.76746497
74.10705784
48.96207172
69.9612001
61.4378009
32.36284322
31.9980514
32.25597037
36.68527082
36.70500077
36.81708581
36.71357798
36.7499896
36.83965583
36.76465653
36.82292308
36.87701606
36.84459571
36.92030995
36.92783341
36.94170405
36.99809264
36.97844997
37.00953136
37.0304652
37.00417142
37.03240592
37.02083255
36.99862703
37.01174956
36.96759221
36.96017031
36.9493598
36.88178287
36.91010239
36.85954881
36.79801208
36.86585289
36.53725761
36.57881063
36.67047493
36.5977619
36.67676812
36.72520572
36.71255234
36.8288356
36.81523975
36.86858095
36.9829996
36.92691974
37.01685511
37.09094997
37.01194021
37.10721965
37.13287818
37.04729469
37.13080675
37.10778066
37.03528581
37.09303958
37.02968015
36.97722675
37.00306032
36.90882054
36.88315013
36.87428607
36.76901889
36.78306641
36.41200076
36.49694243
36.55315828
36.53767428
36.69173018
36.67359215
36.7490426
36.93332352
36.84463377
36.99600008
37.17255969
37.01551908
37.2215461
37.34134318
37.13403471
37.36527741
37.3815105
37.17639576
37.36579867
37.31117105
37.14510123
37.28334925
37.17960879
37.05713381
37.13876575
37.00412368
36.92584256
36.95630211
36.80879558
36.77265131
36.31878529
36.47800909
36.48553482
36.54557697
36.78113268
36.70726767
36.87138906
37.17316441
36.97875192
37.27836383
37.59706518
37.24808909
37.68826886
37.91712819
37.4314285
37.95072137
37.95642642
37.46916526
37.8804835
37.72941239
37.39223835
37.66713183
37.4690349
37.23614867
37.40035779
37.19516753
37.04199302
37.12586255
36.91946966
36.82904017
36.26935179
36.50815787
36.4821823
36.60488071
36.95752559
36.81723117
37.09665251
37.59196964
37.25760407
37.78432054
38.46893265
37.74857556
38.71873493
39.5826947
38.12982079
39.60669958
39.39445917
38.1309594
39.0597621
38.55659023
37.88985435
38.39162132
37.96937959
37.57057603
37.8453256
37.51092371
37.26107203
37.40538844
37.10538168
36.95758111
36.25310855
36.5701861
36.5211289
36.70148698
37.19694454
37.0112131
37.40254055
38.18929691
37.72744835
38.53249574
40.43825784
38.77733304
39.781926
40.40289141
39.43895022
41.01814729
41.0837929
39.94211793
40.52143164
39.85790676
39.40815133
39.6367807
38.73973718
38.13358924
38.51560692
37.95836015
37.61069891
37.79908464
37.37140236
37.16329473
36.25255808
36.64656426
36.58561827
36.81356127
37.45270662
37.25755856
37.72347518
38.79652981
38.34955003
38.93032832
39.44598553
39.20226164
41.68908916
42.33039937
41.913634
44.11542583
42.84257369
41.60429569
41.32713323
39.73658659
38.9650673
39.37682508
38.53175502
38.09516153
38.30235324
37.70437906
37.44793701
36.26214555
36.73103296
36.6674749
36.93084425
37.69222312
37.51517186
38.01308935
39.26895538
38.92770656
39.57790571
40.23297427
40.06793259
43.41395559
44.46516387
44.30993937
48.2815994
45.76419152
44.69932942
42.98676209
40.78541015
39.98512859
40.29520954
39.153228
38.6763629
38.8494433
38.07282889
37.7929522
36.2772903
36.81779599
36.75267966
37.04687664
37.90949746
37.74847004
38.26804261
39.64438886
39.36872214
40.04726402
40.76868183
40.64665383
44.18120205
45.24165881
45.25978124
50.79753963
47.86062649
47.19429391
44.29024812
41.72275916
41.01323009
41.13374508
39.76171489
39.29752809
39.38972236
38.44407057
38.1660198
36.29650873
36.90406354
36.84000073
37.15984227
38.11228089
37.96170054
38.50354821
39.98985171
39.73035983
40.44946188
41.23145258
41.11264743
44.18156396
44.6351511
44.79911557
51.98127578
49.04510281
48.71665667
45.20456194
42.50572661
41.92335226