/*--------------------------------*- C++ -*----------------------------------*\
| =========                 |                                                 |
| \\      /  F ield         | OpenFOAM: The Open Source CFD Toolbox           |
|  \\    /   O peration     | Version:  v1912                                 |
|   \\  /    A nd           | Website:  www.openfoam.com                      |
|    \\/     M anipulation  |                                                 |
\*---------------------------------------------------------------------------*/
FoamFile
{
    version     2.0;
    format      ascii;
    class       surfaceVectorField;
    location    "2.2";
    object      Uf;
}
// * * * * * * * * * * * * * * * * * * * * * * * * * * * * * * * * * * * * * //

dimensions      [0 1 -1 0 0 0 0];


internalField   nonuniform List<vector> 
25162
(
(99.99910469 0.003543738506 -1.87545224e-21)
(99.99668128 0.003058959576 5.554710362e-21)
(99.99849127 0.009131487239 -1.853353785e-21)
(99.99476961 0.0109958634 1.87102193e-21)
(99.99726632 0.01910830843 -3.698237154e-21)
(99.99066326 0.02491608394 1.115276125e-20)
(99.998642 0.02306731931 1.150730724e-21)
(99.98295851 0.04963638737 -7.364463983e-21)
(99.99249734 0.05157881882 -1.229962575e-21)
(99.99760668 0.04241129785 1.785653882e-21)
(99.99925159 0.02562255693 8.867179686e-22)
(99.99106293 0.07323150149 1.776876184e-21)
(99.99793778 0.04201198214 8.708432956e-22)
(99.99847723 0.032453679 -8.949947066e-22)
(99.99741755 0.05408836692 8.708077277e-22)
(99.98590125 0.1221860598 1.734772183e-21)
(99.99713034 0.06916585067 0)
(99.99692865 0.08598201158 -3.207186773e-21)
(99.98116165 0.1906022179 -3.20717008e-21)
(99.99646115 0.1061331823 -8.340765602e-22)
(99.99590794 0.1297003963 2.795985617e-21)
(99.974728 0.2846970934 3.062251478e-21)
(99.99536157 0.1567579143 3.781151746e-22)
(99.99487363 0.1871156844 -2.541034414e-21)
(99.96898095 0.4058370888 3.620963354e-22)
(99.99449627 0.2203128215 -2.623235125e-21)
(99.99430505 0.2555007046 2.254339265e-22)
(99.96660904 0.5458079488 -1.758687471e-21)
(99.99440624 0.2912359847 2.311429062e-21)
(99.99488057 0.3256316291 2.004218783e-21)
(99.97130734 0.6825364047 -8.906032953e-22)
(99.99573426 0.3564002563 0)
(99.9968795 0.3811605154 0)
(99.98427591 0.7809263476 2.086220632e-22)
(99.99822353 0.3980216967 0)
(99.99975481 0.4057921362 3.287466903e-22)
(100.0018535 0.81146519 -4.659508808e-24)
(100.0013691 0.4038509838 8.744154596e-22)
(100.0027957 0.3923435592 -9.939169903e-23)
(100.0183974 0.7673004541 -5.508618071e-22)
(100.0038925 0.3726667364 -9.661650308e-22)
(100.0046877 0.3468486045 9.132356706e-23)
(100.0281004 0.664980127 1.690507962e-21)
(100.0051762 0.3168162594 4.298047078e-22)
(100.005351 0.2845193492 0)
(100.0306111 0.5366667203 0)
(100.005277 0.251793495 0)
(100.0051743 0.2199247003 7.559082109e-22)
(100.0277552 0.4103227536 1.569528683e-21)
(100.0053651 0.1902560678 -3.831435278e-21)
(100.0052735 0.1612159591 -1.423031553e-21)
(100.0239753 0.2958870386 3.116116571e-21)
(100.004602 0.1355933337 3.115884042e-21)
(100.0034563 0.1137805241 -8.886862107e-22)
(100.0146541 0.2065511766 -5.639321567e-23)
(100.0008565 0.09812688802 1.725517851e-21)
(100.0095704 0.09714684645 -7.766731256e-21)
(100.0539799 0.237962314 5.537872316e-22)
(100.0189332 0.21126557 -2.776514466e-21)
(100.0030971 0.09824175395 -1.631319374e-21)
(100.0068858 0.0569093942 -9.812986789e-22)
(100.0376312 0.1476365584 1.55451103e-20)
(100.0058005 0.02683628744 -7.887580758e-21)
(100.0282566 0.07955170499 -1.657592165e-20)
(100.0252907 0.02528416557 1.509580978e-21)
(99.99175692 0.009541075145 9.277170043e-21)
(99.98771549 0.004464174137 2.204263377e-22)
(99.98582911 0.02493070828 1.483270702e-20)
(99.98034858 0.0168855948 -1.296526622e-20)
(99.97478552 0.05255425764 7.75044971e-21)
(99.96481564 0.04028835186 -2.014665942e-20)
(99.9685859 0.08995106033 -1.305276249e-21)
(99.93883442 0.08282990523 3.875181647e-20)
(99.94598121 0.1095525056 -8.545083155e-21)
(99.95288305 0.1161769397 -1.831497761e-21)
(99.96356126 0.1168657245 3.618002105e-21)
(99.97806839 0.08253863952 1.797600932e-21)
(99.963952 0.1425561431 1.76036293e-21)
(99.95240312 0.1543267147 1.788287871e-21)
(99.91978903 0.2045641048 -3.609677809e-21)
(99.93996044 0.2015395844 -1.653182806e-23)
(99.9433005 0.2372292116 1.735044434e-21)
(99.92509978 0.260231991 -1.452707306e-23)
(99.87684387 0.3410228973 0)
(99.91720653 0.3091596917 0)
(99.89449669 0.3534249722 -2.165901689e-21)
(99.92058725 0.3622729351 -4.265251687e-21)
(99.91100515 0.3802391242 -4.753976036e-23)
(99.88514898 0.4400755809 -9.594722196e-21)
(99.90314425 0.418083379 -3.298149976e-21)
(99.87675826 0.5755579381 2.871697934e-23)
(99.89230551 0.5452209857 -2.182558952e-21)
(99.84277236 0.6661322038 -1.195596875e-20)
(99.86929482 0.6284630555 -2.910990743e-21)
(99.8444024 0.8346172286 -5.515813357e-21)
(99.86644029 0.784036495 -5.18536419e-21)
(99.80345329 0.9633112061 4.734754998e-22)
(99.83898797 0.901887408 -6.621993138e-21)
(99.82529114 1.145944649 -7.232142159e-23)
(99.85445514 1.065606869 -4.388518775e-21)
(99.78267703 1.317587974 -1.069351012e-22)
(99.82602178 1.222598539 -3.304585837e-21)
(99.83859946 1.468398664 -4.738400459e-21)
(99.87226304 1.348377569 -6.523610625e-21)
(99.80382055 1.679575666 -3.851048022e-21)
(99.85007645 1.541433316 -3.103494652e-21)
(99.89832832 1.724001434 -1.641643999e-21)
(99.93093989 1.560089693 -2.609173599e-21)
(99.88378589 1.954109593 6.060847934e-20)
(99.91986804 1.774320303 -1.37783127e-21)
(99.98643984 1.830890677 -2.205083044e-23)
(100.0100209 1.634520503 -3.566685844e-22)
(99.99223666 2.05502036 1.77566415e-21)
(100.0087171 1.849711692 -5.547502033e-22)
(100.0754392 1.77515223 -2.146094948e-22)
(100.0687939 1.556756134 -2.13822218e-22)
(100.0971917 1.962284493 -9.111795257e-23)
(100.0940329 1.744572963 1.805118071e-21)
(100.1383651 1.570327387 2.203132556e-21)
(100.1047935 1.355375518 3.822959877e-21)
(100.1661725 1.710799176 3.835710752e-21)
(100.1465134 1.504517891 5.238263749e-22)
(100.1607725 1.284755739 -6.375962727e-21)
(100.1138568 1.095545905 -5.956843127e-21)
(100.1869345 1.381439897 -2.143869579e-21)
(100.1597458 1.206469706 -2.124843339e-21)
(100.1503431 0.9932189087 -5.148909839e-21)
(100.0996976 0.8396210452 4.748463031e-22)
(100.1676386 1.054142926 -1.389706267e-21)
(100.1436121 0.9204809515 5.671962467e-21)
(100.0967242 0.5869244122 -1.331368387e-20)
(100.1532935 0.797524909 -1.331264942e-20)
(100.2171606 0.8673499438 1.347900246e-20)
(100.1343851 0.6686398282 -2.733628846e-20)
(100.1149894 0.5564776877 1.18506799e-20)
(100.160391 0.5966676504 -1.694187848e-20)
(100.0946893 0.4609416709 2.397249941e-20)
(100.071003 0.4061848807 2.665029221e-20)
(100.09071 0.2837308231 2.307546437e-20)
(100.2047562 0.4464157833 -2.279827397e-22)
(100.1551615 0.4957909414 4.812849069e-20)
(100.0913553 0.392651715 2.630684223e-21)
(100.0665393 0.1668154894 -7.226055666e-22)
(100.1473431 0.2758037021 3.316827558e-20)
(100.0541039 0.07705113917 -7.707707171e-21)
(100.1128866 0.1486161595 -1.758880475e-20)
(100.0979692 0.04706499108 7.886490873e-21)
(99.97850422 0.0107355117 -2.226061087e-20)
(99.97758653 0.002737374961 -1.112548469e-20)
(99.96213974 0.03025574537 -4.823748207e-20)
(99.96198566 0.01296779295 1.048072001e-20)
(99.93255266 0.06825542261 1.044442854e-20)
(99.92918036 0.03812550005 -4.083897916e-20)
(99.89899497 0.1299456736 2.467031222e-20)
(99.87588346 0.08681055276 4.442826102e-20)
(99.86518011 0.1413373882 -4.021976149e-20)
(99.91221482 0.1425706694 -7.352514909e-21)
(99.86550291 0.1582552713 -5.437046555e-20)
(99.8767521 0.1799283366 -3.671212798e-21)
(99.86018141 0.255790127 -7.205692605e-21)
(99.84447437 0.2428988944 -3.592560667e-21)
(99.78698091 0.2930490393 2.517193029e-20)
(99.80603024 0.3213088508 7.104675399e-21)
(99.78677621 0.4314783062 -6.247576237e-21)
(99.7607127 0.4183382432 4.589021696e-21)
(99.67496954 0.503815507 -3.552267108e-20)
(99.73198072 0.5199482837 2.513452441e-21)
(99.68877872 0.5558883472 -1.548853333e-20)
(99.71407506 0.6598845494 -6.445730838e-21)
(99.69306098 0.6551342569 0)
(99.64013941 0.7228944698 6.647399311e-21)
(99.66558861 0.7341696246 -6.431468207e-21)
(99.60771284 1.016808035 3.160593487e-21)
(99.57570299 1.018216078 1.240500169e-20)
(99.50492973 1.121720082 6.153297664e-21)
(99.54485327 1.128114028 1.542344924e-20)
(99.50320017 1.4965424 -8.695790857e-20)
(99.45585688 1.511883849 -8.252972279e-20)
(99.36912166 1.665467762 -1.515652819e-19)
(99.42952169 1.656264099 3.487150736e-21)
(99.44124051 2.097188273 -4.404594889e-21)
(99.37442365 2.143738488 1.511305994e-19)
(99.28672201 2.362117493 -9.147253521e-21)
(99.36981691 2.315049077 -9.134425045e-21)
(99.49628913 2.730285858 -2.573032291e-20)
(99.41510799 2.831171793 -2.535376879e-19)
(99.35581046 3.104161625 -2.290328107e-19)
(99.45301358 2.991423439 -2.251289786e-19)
(99.7137499 3.212967791 -1.955874411e-19)
(99.62952891 3.387597541 -5.076625025e-19)
(99.65082592 3.665268991 -4.647183694e-19)
(99.70159154 3.466195942 -1.67364102e-19)
(99.9952593 3.38919622 0)
(99.95826777 3.617133467 0)
(100.008124 3.868200277 9.113736981e-21)
(100.0463516 3.615179815 0)
(100.277467 3.217214723 5.284653176e-20)
(100.2857801 3.473666327 -1.078575897e-21)
(100.369164 3.655066402 1.529156794e-19)
(100.3527825 3.383245241 8.227403027e-20)
(100.45611 2.776757668 2.684981928e-21)
(100.5030313 3.026439185 1.749988605e-21)
(100.5902296 3.138968855 -1.678029662e-22)
(100.5346458 2.883294053 5.733896742e-21)
(100.5093518 2.217084133 -5.935562509e-21)
(100.5782553 2.432915735 -1.374892852e-20)
(100.6546332 2.491893983 -4.818851157e-21)
(100.5766241 2.277594944 5.43458026e-21)
(100.5385728 1.832133561 -1.727903965e-20)
(100.4666312 1.661462388 -1.167126974e-20)
(100.5975389 1.855769723 -1.168700892e-20)
(100.5215479 1.691997971 6.273967718e-21)
(100.3844537 1.13175167 -5.263147025e-20)
(100.5104682 1.379781154 -2.757088795e-20)
(100.6007258 1.374973898 -7.975746704e-20)
(100.4495385 1.14966679 -3.72474279e-20)
(100.2883142 0.7733291949 -6.089798959e-20)
(100.3894244 0.9498164034 2.404582396e-20)
(100.4492675 0.9301966164 -2.889537028e-20)
(100.3320307 0.778477818 -2.528526105e-20)
(100.253979 0.434366572 1.052700148e-20)
(100.4363651 0.5981589135 -2.616869376e-20)
(100.4034969 0.719663176 -1.819705213e-22)
(100.3010881 0.64264846 -1.502317328e-20)
(100.1878985 0.2542172409 1.552208884e-20)
(100.3168439 0.3660307475 2.7684849e-20)
(100.1519158 0.1169991962 -1.982048381e-21)
(100.2423472 0.1961113342 -4.007720959e-21)
(100.2083103 0.06170078584 0)
(99.96499483 0.004183571294 2.234521594e-20)
(99.97365571 -0.003261464603 -3.72581937e-21)
(99.93404974 0.01915229493 1.878138059e-20)
(99.94791221 -0.004469056877 2.609304629e-20)
(99.8785762 0.05648146089 -7.469954195e-21)
(99.89406721 0.01174057872 -3.706678112e-21)
(99.80591388 0.1369628058 0)
(99.80498135 0.05382991734 5.68743699e-21)
(99.76835459 0.127082151 1.733229697e-20)
(99.81377562 0.1629179012 -5.076487804e-20)
(99.75741738 0.1545924101 1.303110419e-20)
(99.75790665 0.1969843858 0)
(99.70292037 0.3132758567 2.820158444e-22)
(99.69407907 0.2746555653 -2.887948799e-20)
(99.61062316 0.3140854619 -2.886005995e-20)
(99.61764445 0.3734742896 5.857870967e-20)
(99.54630612 0.5523462377 -8.716415423e-20)
(99.52742982 0.4975567267 3.099978938e-20)
(99.40351521 0.5704460999 -5.824491202e-20)
(99.45014875 0.6470687153 -2.89759357e-20)
(99.39199936 0.6570008949 -4.763872601e-20)
(99.37254402 0.8684018808 6.902951115e-21)
(99.35205553 0.8342464165 1.373050598e-20)
(99.26992284 0.8999743622 3.465748664e-20)
(99.29162137 0.9439773796 6.846665702e-21)
(99.1252212 1.384288014 -1.410486703e-21)
(99.08951707 1.343364246 -6.172670223e-21)
(98.97524394 1.452759267 -1.300825289e-20)
(99.01597984 1.505709622 1.865372781e-19)
(98.85323256 2.147543905 0)
(98.78887015 2.107857485 -2.368416705e-20)
(98.64365929 2.293780509 -4.264154807e-19)
(98.72053709 2.34516599 0)
(98.68100792 3.174748276 -1.85223563e-18)
(98.57303043 3.164168861 -1.29659233e-18)
(98.42069967 3.45464004 5.800360217e-20)
(98.5534003 3.467168863 5.999737228e-19)
(98.7886492 4.335986804 -5.112969407e-19)
(98.63880499 4.400840812 -2.378052088e-20)
(98.54579795 4.789913762 1.575846345e-22)
(98.72364209 4.695114296 3.898922892e-19)
(99.38332155 5.218126779 0)
(99.18227031 5.412650449 0)
(99.28175022 5.818940164 0)
(99.39003487 5.568996818 1.409491614e-22)
(100.1296252 5.460511513 -1.142126398e-19)
(100.0569051 5.754670862 -1.135336732e-19)
(100.213414 6.057427154 2.987629696e-20)
(100.2706525 5.716477221 2.00424242e-19)
(100.7912402 5.04231971 -7.109094326e-19)
(100.8113711 5.365186415 -2.784376935e-19)
(100.9994988 5.531721565 -7.298059236e-19)
(100.9492066 5.18679379 -8.176692713e-19)
(101.1443741 4.23820112 0)
(101.2288015 4.539146967 -8.406998169e-21)
(101.3925564 4.602418183 0)
(101.2802128 4.298402778 -1.01446022e-20)
(101.2132471 3.285421783 4.374750351e-20)
(101.3295752 3.542555046 -1.678845641e-19)
(101.4510026 3.53542952 -1.31633892e-19)
(101.3152235 3.288316841 2.070640961e-19)
(101.2155895 2.589828882 0)
(101.0974686 2.398974819 4.640261235e-20)
(101.2969725 2.559355802 0)
(101.1673609 2.377783318 0)
(100.8647869 1.588334706 2.936327694e-20)
(101.0774199 1.861124729 1.893955605e-20)
(101.1738063 1.762353626 -1.713317171e-20)
(100.9405563 1.531677044 3.68580641e-20)
(100.6441277 1.061570655 -3.382564979e-20)
(100.8110799 1.250017992 -1.511137273e-20)
(100.8689696 1.162646415 -1.525995406e-20)
(100.6922366 1.010404309 -7.322762476e-21)
(100.4847137 0.5254725128 -9.252424816e-21)
(100.7266981 0.6653414824 -1.985694594e-20)
(100.7467979 0.8530641428 -2.61438962e-21)
(100.6112244 0.8151798869 5.085685743e-21)
(100.3588061 0.3047227722 7.979655275e-21)
(100.5249808 0.4017406549 1.215364039e-20)
(100.2882273 0.1390586837 -2.025314235e-21)
(100.3985934 0.2120387321 -3.582248602e-21)
(100.339455 0.06605093446 -5.164636181e-22)
(99.96088436 -0.01220078461 0)
(99.98517932 -0.0141070265 0)
(99.91336326 -0.01280407817 3.752849793e-21)
(99.9485409 -0.03715665123 0)
(99.82788497 0.009818532423 9.455552391e-21)
(99.87283468 -0.04250159063 -3.25974858e-21)
(99.707344 0.08611729377 1.657402529e-20)
(99.74625163 -0.02130953176 2.096223483e-20)
(99.67071112 0.05861329799 -6.311361385e-21)
(99.70358535 0.1321546579 2.24427179e-20)
(99.64252523 0.09501823583 1.825678733e-21)
(99.62646951 0.1512996668 -8.963980117e-21)
(99.51413783 0.2934004293 0)
(99.52267249 0.2320346602 -1.877469575e-20)
(99.41728831 0.2497425473 -1.538744975e-20)
(99.39862837 0.335526087 3.828192412e-21)
(99.24990353 0.5553516482 0)
(99.25182086 0.4686425694 3.827782554e-21)
(99.09224071 0.5070182803 -3.938754741e-21)
(99.10658443 0.6457670104 1.920173541e-20)
(99.04302118 0.628020425 4.939115695e-21)
(98.9343358 0.9263443692 1.928708155e-19)
(98.92688116 0.8613150727 -2.819785006e-20)
(98.81460456 0.9118785708 -5.725943469e-20)
(98.82037941 0.9887640714 -1.366719973e-19)
(98.45728837 1.588974675 0)
(98.43592226 1.496037872 -2.674910721e-20)
(98.26725614 1.600981179 -2.047583249e-19)
(98.28897611 1.714920093 -1.042663356e-19)
(97.88687663 2.661655364 0)
(97.82351067 2.546082741 0)
(97.58755933 2.751210755 0)
(97.66393346 2.895390336 0)
(97.41045848 4.295712363 -6.979594538e-19)
(97.25722547 4.185949543 -7.694554139e-19)
(96.98135995 4.559412793 -6.480989534e-21)
(97.17912214 4.692018712 -7.067378069e-19)
(97.57060222 6.336324787 -1.719086944e-20)
(97.29216434 6.341706909 0)
(97.12210336 6.913950038 3.081229636e-19)
(97.48483508 6.886767786 3.51949748e-20)
(98.93420725 7.972865483 1.781887463e-19)
(98.54322967 8.2209041 -1.593894313e-20)
(98.76185351 8.841233177 -1.582409186e-20)
(99.02726192 8.489243158 -9.77088088e-20)
(100.6805555 8.12772756 -3.440214223e-22)
(100.5591327 8.577811773 -1.697210441e-20)
(100.9361237 8.937765507 -1.193083541e-20)
(101.0072453 8.405745143 -1.181861485e-20)
(101.9213458 7.078677142 5.759352553e-19)
(102.0021424 7.519662391 0)
(102.3561798 7.609116773 -6.499237127e-19)
(102.2145921 7.155644517 -7.244684044e-19)
(102.3915683 5.628575147 -6.74603736e-19)
(102.5658464 5.985926259 5.30987045e-20)
(102.8292474 5.939454614 -2.678209858e-21)
(102.6055193 5.594968909 6.705468257e-20)
(102.3403082 4.208943927 4.32036296e-19)
(102.540004 4.484974357 -4.321053604e-19)
(102.6959199 4.389861661 -5.019618187e-19)
(102.4714716 4.133545771 0)
(102.184105 3.153092399 -1.302808523e-20)
(101.9984452 2.948343705 -3.904363685e-21)
(102.2705618 3.044626584 1.860944524e-20)
(102.0723104 2.862981202 2.282331313e-20)
(101.5222807 1.886512183 -9.587293723e-20)
(101.8305265 2.154189288 -6.079555042e-20)
(101.9030158 1.949607839 -3.402219448e-20)
(101.5855484 1.748754466 -1.763518777e-20)
(101.1183893 1.227377373 1.180925341e-20)
(101.3569237 1.405445927 3.555051045e-20)
(101.3873697 1.250790141 -4.007663411e-21)
(101.1526974 1.118965733 -3.900553217e-21)
(100.7532425 0.5411120788 2.073319394e-21)
(101.0474373 0.623422878 0)
(101.1495895 0.8806012001 -1.246585884e-22)
(100.9972482 0.8824987723 -1.066084648e-20)
(100.5524248 0.3063409611 4.563012725e-22)
(100.7463878 0.3694307295 2.073132476e-21)
(100.4389943 0.1376161901 -2.080168545e-21)
(100.5577426 0.1890178072 -2.082292453e-21)
(100.4692546 0.05794007954 -2.096547974e-21)
(99.97694645 -0.03893291692 0)
(100.021924 -0.02975343137 1.83714697e-21)
(99.91302059 -0.06684558616 -7.525743811e-21)
(99.9749475 -0.08482353322 -1.850389996e-21)
(99.79759164 -0.07314431051 7.755948648e-21)
(99.87892819 -0.1244351945 -3.752847069e-21)
(99.62230335 -0.01665094188 1.018900325e-20)
(99.71663752 -0.139887666 2.730882748e-21)
(99.59655245 -0.06604541607 6.480351941e-24)
(99.59792694 0.04155834608 -7.578550209e-21)
(99.54659125 -0.02654315262 -7.627124324e-21)
(99.50525131 0.03796396324 0)
(99.32505316 0.1821055793 -1.538706989e-20)
(99.36051575 0.1045354686 0)
(99.24180637 0.09059258017 -8.455567739e-23)
(99.1855737 0.1935511945 -5.547335436e-23)
(98.93518449 0.4247202671 7.908604979e-21)
(98.97509554 0.3114367458 1.188561545e-20)
(98.78984872 0.3079227728 1.59858593e-20)
(98.75360181 0.4889197084 -2.197126455e-21)
(98.69385575 0.4445008833 -2.304665484e-20)
(98.45168004 0.796578151 6.298377121e-22)
(98.47365539 0.7059896348 -5.435277423e-20)
(98.33182296 0.7320004801 -3.111209093e-20)
(98.30191518 0.8378947375 1.647634645e-19)
(97.66003989 1.5171669 -5.466845123e-19)
(97.67616544 1.376754093 -1.145349892e-19)
(97.45473098 1.446010354 0)
(97.42892021 1.614864309 1.101190156e-19)
(96.55929536 2.822294181 -3.556346084e-19)
(96.53760893 2.599088508 -5.145146993e-19)
(96.17773446 2.767342657 9.314574133e-20)
(96.20130526 3.041028711 -1.303730358e-19)
(95.35116818 5.141930721 6.971335011e-21)
(95.18685318 4.833663816 2.868535438e-20)
(94.68382116 5.207087553 -3.294767103e-19)
(94.90220052 5.606141537 -1.50279192e-20)
(95.12243433 8.750054388 4.79560535e-20)
(94.60597907 8.499490713 -5.632987786e-20)
(94.12387769 9.32651349 0)
(94.84474882 9.615870623 0)
(97.91004913 12.21624109 -5.661521609e-20)
(97.13589916 12.5842033 -2.061994094e-20)
(97.44071812 13.73681718 4.092894122e-20)
(98.35825026 13.12206817 1.380131416e-21)
(102.2207357 11.88204289 0)
(102.0291723 12.73128853 -4.34193347e-20)
(102.9001791 13.09368002 0)
(102.9308015 12.10614421 0)
(104.2212492 9.181070187 8.255198572e-19)
(104.4763021 9.816976683 -1.750989342e-19)
(105.075932 9.674909531 -7.545242863e-20)
(104.6984123 9.06332838 5.613660366e-19)
(104.446736 6.686545056 1.928948767e-20)
(104.7899464 7.074487574 -4.503358184e-20)
(105.0968318 6.845182664 6.237471794e-19)
(104.7032826 6.500266512 -1.061564651e-19)
(103.9443286 4.742015241 -3.700964252e-19)
(104.2644046 4.998955615 4.871873725e-19)
(104.4150516 4.776557709 9.770375537e-22)
(104.0774849 4.560568683 -1.174948338e-19)
(103.459978 3.385589254 -3.093220177e-19)
(103.1843106 3.199022077 1.45592406e-19)
(103.5216677 3.191983844 2.83642295e-19)
(103.2423227 3.034540478 8.838646197e-20)
(102.3077435 1.941227787 2.776676271e-20)
(102.7146815 2.160618287 -2.717445998e-22)
(102.7210274 1.85157582 1.706515731e-20)
(102.3248128 1.720276313 1.270150448e-20)
(101.6626606 1.225374167 -1.672953252e-20)
(101.970577 1.359643248 -8.551200851e-21)
(101.9419005 1.144863605 -8.552857525e-21)
(101.6560231 1.062780383 1.308858034e-20)
(101.024612 0.4582983058 0)
(101.3575859 0.462118649 1.391191544e-21)
(101.5522281 0.7496682205 -1.154198454e-20)
(101.407411 0.8245984723 2.856891901e-20)
(100.7379574 0.2499811142 -5.256792544e-22)
(100.9428181 0.2592354654 -1.642946344e-21)
(100.5771453 0.1090399151 -2.108923853e-21)
(100.6906519 0.1231878819 -2.393883416e-21)
(100.5720936 0.03642763132 2.678846901e-21)
(100.0235074 -0.07517038768 -1.265794373e-23)
(100.0928443 -0.04955174727 5.651917955e-23)
(99.94524451 -0.1412881741 1.919670097e-21)
(100.0373698 -0.1453451547 -6.815984787e-23)
(99.80374515 -0.1901121357 -1.006496395e-20)
(99.92511389 -0.2300721082 1.508915608e-21)
(99.57629813 -0.1747349669 -9.115081358e-21)
(99.73460745 -0.2961758246 -1.530602393e-20)
(99.56938383 -0.2429864518 -1.301210229e-20)
(99.5243962 -0.1109791385 -7.17191903e-21)
(99.49569185 -0.2078987504 -2.832017749e-21)
(99.42434355 -0.1441307096 3.480443914e-23)
(99.172427 -0.02377256358 1.156696537e-20)
(99.24198197 -0.107951425 1.174195578e-20)
(99.12107881 -0.1592577499 5.800951891e-21)
(99.02147566 -0.05335811542 1.994811028e-20)
(98.66341584 0.156208477 -2.008671579e-20)
(98.75341859 0.02540284044 -1.607679266e-20)
(98.56132199 -0.02855550922 -2.321319108e-20)
(98.45013909 0.1695555313 -1.634531654e-20)
(98.40663785 0.1009085692 2.507710898e-20)
(98.00046294 0.4573402268 -5.919570622e-20)
(98.06374095 0.3513225978 -1.176006961e-19)
(97.90502251 0.3399110527 -1.218763754e-19)
(97.82882439 0.4592698163 -1.213541235e-19)
(96.86840871 1.078855694 0)
(96.95538575 0.9031125575 -1.20560119e-19)
(96.6953085 0.9054821573 4.865673421e-19)
(96.5790035 1.110835269 2.474631966e-19)
(95.04013719 2.301203956 -4.936956321e-19)
(95.13904276 1.995740311 3.509801395e-20)
(94.69390536 2.029637107 1.439378317e-19)
(94.54945026 2.402721437 3.44128199e-20)
(92.41948477 4.693736876 7.53055142e-20)
(92.43493352 4.133971383 0)
(91.67263179 4.223965159 -4.794636152e-20)
(91.61580977 4.961481816 0)
(89.51478796 10.11946898 4.609236256e-20)
(88.95395623 8.965853473 -4.309515852e-19)
(87.20798486 10.01862765 3.090827185e-20)
(87.49002108 9.344484149 3.071620051e-20)
(88.57500485 11.34850554 -1.583463968e-19)
(87.70067754 11.35294361 3.056799042e-20)
(92.55164959 20.72425496 -4.404658945e-20)
(93.80909555 20.50989091 1.571144026e-20)
(92.81330861 22.38777622 1.575480995e-20)
(94.40105663 21.81980761 2.04825697e-21)
(106.4186901 19.1113287 -2.688944437e-19)
(106.6321379 17.55118834 0)
(108.1736442 17.27207858 3.038808597e-19)
(107.1508337 19.96678881 0)
(109.072644 18.86544743 -3.638033993e-21)
(108.6755619 19.56192101 -4.755818146e-19)
(109.1199871 11.59958654 -2.079729475e-19)
(108.4071829 10.76859335 -7.462953266e-19)
(109.784082 10.89034832 2.087838573e-20)
(108.9327788 10.25771929 -2.010802186e-19)
(107.3645772 6.908779789 0)
(107.9620994 7.242632307 0)
(108.2079874 6.74105053 4.751271396e-19)
(107.5835559 6.499563416 0)
(105.9644272 4.565644059 -3.879578931e-20)
(106.4213838 4.733575546 -9.099001744e-20)
(106.4906787 4.367442342 -9.531885628e-19)
(106.0356498 4.257160297 -7.11052312e-19)
(104.9056929 3.049581631 -4.874637116e-20)
(104.5451298 2.945299194 -3.888273963e-20)
(104.8890235 2.781474947 4.166824709e-20)
(104.5391133 2.703763015 4.256386155e-20)
(103.129648 1.672622582 4.523042255e-21)
(103.6390865 1.784412815 2.048889202e-20)
(103.5130786 1.399309353 -2.670975055e-21)
(103.0587146 1.377277858 -4.763122142e-21)
(102.2066045 1.002432321 4.736959341e-21)
(102.5635592 1.058440764 -2.263368384e-23)
(102.4540641 0.8021747969 -7.622518172e-21)
(102.1349552 0.7959563236 9.596930575e-21)
(101.2529041 0.2703826 -1.80960871e-22)
(101.5829629 0.1827282322 -3.12765789e-22)
(101.9072084 0.4535982647 8.535272719e-22)
(101.7843983 0.5653661208 6.9650546e-21)
(100.8810165 0.1324250067 -3.521528116e-21)
(101.0728288 0.07230318524 -2.5152356e-22)
(100.6746104 0.05159492389 2.616276379e-21)
(100.7668366 0.0166212861 -2.388221083e-21)
(100.620746 0.002109958507 4.578903241e-22)
(100.109423 -0.118999891 1.332514579e-23)
(100.2051008 -0.0723300078 -2.722813408e-21)
(100.0205917 -0.2320030531 -4.949421802e-22)
(100.1439856 -0.2150645862 1.185018687e-21)
(99.86023868 -0.3342538682 -3.906404783e-21)
(100.0216229 -0.3524163167 -2.573171405e-21)
(99.58987846 -0.3756069732 8.020924565e-21)
(99.81346528 -0.4786607628 -8.842216412e-22)
(99.60841515 -0.4599315295 8.346667412e-22)
(99.5064426 -0.3178248496 3.910163001e-21)
(99.5129217 -0.435064957 8.126379534e-21)
(99.40999644 -0.3823861346 5.727485052e-21)
(99.09234259 -0.3118371547 -1.955119085e-21)
(99.19958838 -0.3897991784 3.016882777e-21)
(99.08886708 -0.4782035902 1.994135615e-21)
(98.9446649 -0.3859839679 6.038798416e-21)
(98.4903229 -0.2407549003 -1.00769109e-21)
(98.63466392 -0.366921317 7.158229109e-24)
(98.45517419 -0.4736367363 6.276654278e-21)
(98.26653046 -0.2831789886 -4.279682227e-20)
(98.24947487 -0.3746610693 8.097764813e-20)
(97.69247528 -0.08517000652 2.118837484e-19)
(97.80083605 -0.1870337912 2.382424181e-19)
(97.65065746 -0.2448407421 1.826990021e-19)
(97.52709772 -0.1358728101 3.49141547e-19)
(96.29284127 0.2538557619 1.267362271e-19)
(96.46468643 0.08415580042 0)
(96.21103431 0.004391196834 0)
(95.99630644 0.189360038 0)
(93.90700317 0.9132688977 -1.073535951e-19)
(94.17452594 0.6172234719 1.066686587e-19)
(93.75870244 0.4778732476 -3.89874492e-20)
(93.40923595 0.7972986754 4.184684575e-22)
(90.0859619 1.959539066 -2.13821469e-19)
(90.50616918 1.4133996 -1.676487028e-19)
(89.8988338 1.063082417 -1.047530285e-19)
(89.28085232 1.618650791 -2.11914755e-19)
(83.01632688 3.309882738 2.718658218e-19)
(83.62828205 2.617331991 -2.551854706e-19)
(82.98865716 1.976286023 2.703058084e-19)
(82.10502133 2.663554786 2.718434728e-19)
(121.8390092 23.37336662 0)
(120.188226 22.24956729 0)
(122.609625 21.57824466 0)
(120.9717666 20.83729435 0)
(116.0844278 10.28698313 6.19987648e-19)
(114.5882256 9.815971796 -7.40802825e-20)
(116.1555079 8.848489209 7.892841677e-20)
(114.7398576 8.697297717 2.227182537e-19)
(110.728788 5.51764679 0)
(111.5691858 5.594998277 -7.274767109e-20)
(111.5100429 4.861267124 -3.008141626e-19)
(110.7203213 4.904055543 0)
(108.007258 3.381441059 1.263333319e-19)
(108.5681878 3.376700194 0)
(108.4639614 2.91700343 0)
(107.9446168 2.986524338 -3.852353896e-21)
(106.251523 2.024521441 1.022418805e-20)
(105.8379479 2.038093829 9.396427628e-20)
(106.1167209 1.710243692 -9.607220601e-20)
(105.734523 1.754149943 -9.839730366e-20)
(103.8472522 1.035337635 -5.212328237e-21)
(104.4179229 0.9942436762 2.946900646e-21)
(104.1132479 0.5918069823 8.394326429e-21)
(103.6519443 0.7116401282 1.229923216e-21)
(102.6530892 0.5481323337 -2.054993025e-21)
(103.0252856 0.4995237987 1.452665299e-20)
(102.8081141 0.2468979763 5.343220888e-21)
(102.5017841 0.3349357114 1.057653625e-20)
(101.3870134 -0.01117661795 -3.436169528e-22)
(101.6819406 -0.1953165832 -1.115971341e-21)
(102.1245123 0.007052433814 -1.135676468e-21)
(102.0613239 0.1809151805 -1.319364214e-21)
(100.9464516 -0.04132425721 1.130715289e-21)
(101.1011567 -0.1756613116 1.391805537e-21)
(100.7033103 -0.03134341084 -4.496620888e-21)
(100.7573681 -0.1220875402 1.727882778e-21)
(100.5911634 -0.04259212218 -2.229100045e-21)
(100.241151 -0.1675290827 -1.55108541e-21)
(100.363132 -0.09653680016 8.591554106e-22)
(100.1467794 -0.3327192769 -9.023917271e-22)
(100.2998317 -0.2891759578 -6.397569229e-22)
(99.97699349 -0.4947705764 4.610852592e-22)
(100.1745202 -0.4825502936 -2.277949775e-22)
(99.67820117 -0.6046375178 5.179749025e-22)
(99.96123731 -0.6735210402 7.769414525e-22)
(99.72542206 -0.6981041993 4.593002562e-22)
(99.56342084 -0.5611863719 1.34859694e-21)
(99.61180277 -0.6893794018 -1.231667908e-23)
(99.4804235 -0.6558457162 -1.231843089e-23)
(99.11304894 -0.6544898758 -1.989264739e-21)
(99.25543049 -0.7149178114 0)
(99.16594064 -0.8364402082 -9.759813552e-22)
(98.98321345 -0.7708713114 -1.030093713e-21)
(98.45947402 -0.7205756371 1.033576881e-21)
(98.65335712 -0.8224047591 -8.308999352e-21)
(98.50433012 -0.9744343356 -7.297863389e-21)
(98.24814181 -0.8185592725 7.715690923e-20)
(98.26269081 -0.9216044038 -8.708703167e-20)
(97.61014262 -0.7563051518 1.221237051e-19)
(97.75158934 -0.8345284434 0)
(97.62689202 -0.9320313774 -6.85364069e-22)
(97.46785317 -0.8532134705 3.042770411e-20)
(96.11087387 -0.7876346697 -9.515688643e-20)
(96.3441333 -0.9109757804 3.531678663e-20)
(96.1289577 -1.054050146 3.282014863e-20)
(95.85390379 -0.9319643594 -5.066181324e-21)
(93.64414695 -0.852205183 9.921166656e-21)
(94.01156898 -1.038539915 -8.28544433e-20)
(93.70242528 -1.272330495 1.915215003e-20)
(93.27392329 -1.107153957 -9.685031447e-21)
(90.18146593 -1.326266497 -2.193887091e-19)
(90.73991894 -1.544455294 1.046113807e-19)
(90.43807537 -1.95348265 1.041744805e-19)
(89.8232894 -1.815888973 2.727078301e-19)
(86.32750058 -3.414990972 3.006570586e-21)
(86.79311134 -3.356927558 -1.20553324e-19)
(86.79711445 -3.709108985 -2.355933842e-19)
(86.39731837 -3.850661311 -2.393974835e-19)
(135.7242654 8.427600589 8.136079889e-20)
(134.0302874 9.211449731 2.99077498e-19)
(134.5941011 7.013271501 1.930444854e-20)
(133.1792222 7.837987001 5.568928395e-19)
(121.2948496 3.805911326 -1.926391392e-19)
(119.6841137 4.344923414 -3.687311897e-19)
(120.3001552 2.516524176 -1.762497878e-22)
(119.0122218 3.178649233 -1.866048981e-19)
(113.2731754 2.222764949 -8.20572439e-20)
(114.1095401 1.881827843 0)
(113.6110249 1.190365282 0)
(112.901138 1.58613797 0)
(109.4733821 1.175568961 -8.727153858e-21)
(110.0069737 0.9388081651 7.457607959e-20)
(109.6706775 0.5119562715 -1.42052109e-19)
(109.2084136 0.7766899885 1.944288119e-19)
(107.1176061 0.3858909642 -3.788512782e-20)
(106.719809 0.5434014722 1.89928984e-19)
(106.8430597 0.1036728039 -3.539441859e-20)
(106.4943529 0.2725559742 1.079041907e-19)
(104.2929832 0.08425038462 8.340706429e-21)