/*--------------------------------*- C++ -*----------------------------------*\
| =========                 |                                                 |
| \\      /  F ield         | OpenFOAM: The Open Source CFD Toolbox           |
|  \\    /   O peration     | Version:  v1912                                 |
|   \\  /    A nd           | Website:  www.openfoam.com                      |
|    \\/     M anipulation  |                                                 |
\*---------------------------------------------------------------------------*/
FoamFile
{
    version     2.0;
    format      ascii;
    class       volScalarField;
    location    "1.2";
    object      nut;
}
// * * * * * * * * * * * * * * * * * * * * * * * * * * * * * * * * * * * * * //

dimensions      [0 2 -1 0 0 0 0];


internalField   nonuniform List<scalar> 
12556
(
1.155907054
1.155879003
1.155848469
1.155819537
1.156031947
1.156021842
1.156024303
1.156040536
1.156076469
1.156146603
1.156262713
1.156412705
1.156537626
1.15662707
1.15655522
1.156453728
1.156315078
1.156206556
1.156108118
1.156066946
1.155815152
1.155820735
1.155840396
1.15586747
1.155196492
1.155114875
1.155023858
1.154941366
1.155128692
1.155108559
1.15513913
1.155321476
1.155494238
1.155823815
1.156365939
1.157084975
1.157891027
1.108924192
1.122007467
1.157500537
1.156787184
1.156160029
1.155629615
1.155350849
1.154991283
1.154963166
1.155004518
1.155078138
1.154461979
1.154317347
1.154162781
1.15403693
1.15422153
1.154221804
1.154314152
1.154620374
1.155063194
1.155882463
1.157308604
1.012897648
0.9039589665
0.861142157
0.8931360336
0.9936286059
1.158037102
1.156630612
1.155467763
1.154823638
1.154223268
1.15414027
1.154182306
1.15429699
1.153703073
1.153506264
1.153298041
1.153144152
1.153322818
1.153382951
1.153596949
1.154150545
1.155097947
1.15704891
0.8949426726
0.6807487965
0.5962263875
0.5891477577
0.6333631721
0.7216849888
0.8728818891
1.125493115
1.155920319
1.154642748
1.153646014
1.153405823
1.153399645
1.153532758
1.152934031
1.152670786
1.152412148
1.15225115
1.152462781
1.152623959
1.153085962
1.154006536
1.156051283
0.8760639223
0.5804463825
0.4206079329
0.3491737167
0.3628548748
0.421357116
0.5072294305
0.6344441288
0.8504609832
1.156652287
1.15496418
1.153288472
1.152751336
1.152643646
1.152764853
1.152154919
1.151843328
1.151551538
1.151397904
1.151657209
1.151979197
1.152830114
1.154371505
1.060646241
0.6352382189
0.3757595997
0.2296270292
0.1761786468
0.2025436034
0.2726324257
0.360728879
0.4743114423
0.6522537513
0.9542644783
1.155909372
1.153168729
1.152188719
1.151907964
1.151986714
1.15137618
1.151016188
1.150697341
1.150577298
1.150924134
1.151471907
1.152838263
1.155352199
0.8781461349
0.4962360569
0.2621011142
0.1156317534
0.06381588738
0.1000935342
0.1805769103
0.2701059618
0.3729917551
0.5230764963
0.8023212832
1.157531916
1.153304399
1.151703994
1.151164112
1.151163465
1.15061782
1.150222691
1.149898761
1.149826153
1.150293667
1.151134708
1.153173778
1.15676531
0.7885746794
0.4543205448
0.2456583287
0.09864826045
0.05588920683
0.1361100039
0.2219956438
0.3167578235
0.4479431287
0.6993964262
1.052029144
1.153705737
1.151337226
1.150441407
1.15032148
1.149902791
1.149472481
1.149147212
1.14915461
1.149803851
1.150987801
1.153805224
1.158328409
0.7687566306
0.4855611485
0.3283169955
0.2417931839
0.06613601255
0.1316839133
0.2079210872
0.2943940931
0.4131910224
0.6457941232
0.9710073974
1.154362401
1.15109995
1.149775604
1.14950643
1.149256285
1.148804008
1.148499389
1.148628841
1.149420228
1.151033513
1.154669833
1.159920748
0.7852124199
0.5480592984
0.4486120381
0.4862961443
0.0915612009
0.1478346426
0.2163126888
0.2978676847
0.4089121433
0.6253529007
0.9232066839
1.155242452
1.151085734
1.149274935
1.148824174
1.148673018
1.148200158
1.147924902
1.148222332
1.149132937
1.1512562
1.155706866
1.161483438
0.8146152233
0.6073122994
0.5413824471
0.5609905273
0.124669233
0.1772248448
0.2415912464
0.3181506464
0.4232943349
0.6329846113
0.9037761939
1.156286769
1.151297617
1.148999032
1.148358187
1.148195471
1.147712485
1.147478918
1.147927099
1.148971855
1.151619031
1.156857185
1.163016922
0.8474955283
0.6475751684
0.5699508556
0.4867277802
0.1625752442
0.2184551242
0.2831477831
0.357420885
0.4628524578
0.6662243135
0.9145146267
1.157540892
1.151796507
1.149030364
1.14819208
1.147773906
1.147279384
1.147116986
1.147743672
1.148945344
1.15206848
1.158098774
1.164423104
0.8872864957
0.6773002721
0.5507483939
0.4302440773
0.06888287069
0.2104150914
0.2794109706
0.3469138413
0.4219693163
0.5333779244
0.7213723865
0.9501409304
1.158846929
1.152504741
1.149327105
1.148325411
1.147470006
1.146970727
1.14687272
1.147642964
1.149115024
1.152820651
1.15933255
1.16577231
0.9488639043
0.7280389785
0.5642687835
0.2780244055
0.1316152105
0.3128878216
0.389791939
0.453611465
0.520192286
0.62783063
0.8016308473
1.004340455
1.160158873
1.153407893
1.149874023
1.14872279
1.14720224
1.146694314
1.146656244
1.147584274
1.149288974
1.153438284
1.160364901
1.1666487
1.059725312
0.8433692051
0.6692696853
0.07683680518
0.1828846127
0.4554820631
0.6041338012
0.6296141795
0.6762747984
0.766586153
0.9223211469
1.095620551
1.161383135
1.15433517
1.150548314
1.149311892
1.14703174
1.146518045
1.146527416
1.147588068
1.149496419
1.154023899
1.161281488
1.16727142
1.160458176
1.055322919
0.8688474129
0.05421459416
0.1915158652
0.4502526939
0.6883412934
0.8848193478
0.8976766441
0.9515022613
1.083158616
1.168485314
1.162466947
1.155260497
1.151302724
1.149999203
1.146852497
1.14632647
1.1463696
1.147568003
1.149698235
1.154538482
1.162023269
1.167599507
1.161143529
1.114806668
0.8899167216
0.09183897072
0.162430112
0.4224850206
0.66740055
0.8791789369
1.033441271
1.119161549
1.161254265
1.169510017
1.163322463
1.156068636
1.152010224
1.150673312
1.146745279
1.146210491
1.146272133
1.147566972
1.149864136
1.154955145
1.162541836
1.167584168
1.160305914
1.115947458
0.9103734606
0.1551378555
0.1241621832
0.3921330167
0.652181672
0.8811098539
1.037791584
1.121442705
1.162287428
1.170119405
1.16393273
1.156734594
1.152677249
1.151329229
1.146588929
1.14604112
1.146109213
1.147499701
1.149977049
1.155259523
1.162832481
1.167215106
1.157954554
1.109265033
0.8966943129
0.1828181516
0.1111928844
0.3823963081
0.6555546672
0.8879046508
1.040716264
1.122701339
1.162716222
1.170337335
1.164271417
1.157197092
1.153187837
1.151849299
1.146493067
1.145940622
1.146007289
1.147447443
1.150029801
1.155450191
1.162908035
1.166527138
1.155017942
1.097971375
0.8420976641
0.1469137475
0.1255236998
0.3925737776
0.6626813548
0.8930611232
1.042672516
1.123273577
1.162697614
1.170245939
1.164447548
1.157570988
1.153638322
1.152312233
1.146318156
1.145761589
1.145825079
1.147323433
1.150030517
1.155537287
1.162791349
1.165563243
1.151588523
1.084826428
0.7758384791
0.1179000437
0.1408486216
0.4018618604
0.6677719088
0.8965264915
1.043914511
1.123382655
1.162358486
1.16992469
1.164419834
1.157762219
1.153921195
1.152611777
1.146205819
1.145657396
1.145721259
1.147241788
1.149991373
1.155540473
1.162513285
1.1643698
1.147695915
1.06954828
0.7094747591
0.09972279437
0.1541979007
0.4101103739
0.6718353319
0.8982768582
1.044509197
1.123155233
1.161796094
1.169442118
1.164325311
1.157923711
1.154175716
1.152875131
1.145993152
1.145454967
1.145525898
1.147094349
1.149930792
1.155483408
1.162107006
1.162983409
1.143319272
1.050953181
0.6527951757
0.08759407436
0.1658484893
0.4174955659
0.6752595495
0.8987285208
1.044431775
1.122640238
1.161073131
1.168851042
1.164090532
1.157929498
1.154270561
1.15297741
1.145856628
1.145340845
1.145427797
1.147016779
1.149858079
1.155386081
1.161600364
1.161421128
1.138326248
1.02757594
0.6058870195
0.07972509951
0.1761427579
0.4241581023
0.678199518
0.8984196411
1.043725715
1.121852574
1.160225406
1.16818751
1.163861711
1.157961757
1.154384241
1.153088869
1.145604379
1.145111148
1.14522119
1.146864956
1.149783429
1.155260324
1.161009405
1.159674596
1.132455701
1.000042037
0.5664837755
0.07448910933
0.1853833914
0.4302431993
0.6807467313
0.8977111216
1.042528519
1.120815583
1.159277218
1.167475678
1.163518501
1.157846785
1.154342948
1.153044342
1.145447463
1.14498746
1.145130365
1.146802703
1.149704947
1.15511018
1.160337865
1.157713629
1.125383609
0.9706883418
0.5328689158
0.07087368844
0.1939081662
0.4358862959
0.6829909129
0.8968017806
1.040998977
1.119571746
1.158250585
1.166731947
1.163229818
1.157805583
1.154368086
1.153058504
1.145163526
1.144733892
1.144912392
1.146646488
1.149627095
1.154934979
1.159582835
1.155493309
1.11688035
0.9414347095
0.5040250462
0.06857551726
0.2018871297
0.4411486832
0.6849999881
0.8957940714
1.039265221
1.118171351
1.157166801
1.165968571
1.162826315
1.157609561
1.154232219
1.152912814
1.144992161
1.144603117
1.144828353
1.146599938
1.149543273
1.154732964
1.158738515
1.152962526
1.106918902
0.9131734216
0.4789707253
0.06733563805
0.2093548676
0.4461031314
0.6868273102
0.8947434349
1.037417018
1.116660685
1.156044526
1.165194553
1.162516849
1.157528706
1.154206492
1.152871795
1.1446911
1.144336478
1.14460462
1.146437865
1.149458846
1.154502154
1.157796691
1.150065077
1.095669139
0.886251767
0.4568414256
0.06699659187
0.2163483662
0.4507867809
0.6885220701
0.8936894658
1.035516319
1.115078077
1.154899117
1.164416575
1.162079254
1.157279319
1.154008791
1.152662198
1.144506762
1.144198084
1.144524315
1.146405293
1.14936575
1.15424071
1.15674563
1.146744297
1.083417748
0.8608536368
0.4372183162
0.06736941773
0.2229184168
0.4552653079
0.6901295393
0.8926600837
1.033605773
1.113453924
1.153742716
1.16364032
1.16176811
1.157175855
1.153954187
1.152591918
1.144211959
1.143938821
1.144310923
1.146244029
1.149271478
1.153945982
1.155569716
1.142972501
1.070447631
0.8369331255
0.4197241914
0.06835648363
0.2291649201
0.4595972827
0.6916835444
0.8916759157
1.031716387
1.11181271
1.15258484
1.162868431
1.161318953
1.156901658
1.153726798
1.152353774
1.144004143
1.143781578
1.144221443
1.146216161
1.149166674
1.153615432
1.154251095
1.138713162
1.056981772
0.8143442033
0.4039412726
0.069871398
0.2351517535
0.4638067001
0.6932106055
0.8907574132
1.029872319
1.110174295
1.151432789
1.162105912
1.161002548
1.156770621
1.15364299
1.152255918
1.143753442
1.143564797
1.144050218
1.146078651
1.149059881
1.153245441
1.152770063
1.133968151
1.043194351
0.7929686617
0.3896205296
0.07166701229
0.2409398096
0.4679202569
0.6947436257
0.8899247165
1.028091975
1.108553493
1.15029214
1.161350172
1.160583188
1.156516261
1.153430042
1.152035028
1.143492837
1.143359628
1.143921121
1.14602329
1.148942508
1.152834336
1.151113421
1.128753429
1.029225425
0.7727233171
0.3765971113
0.07360467357
0.2466056855
0.4719882766
0.696316053
0.8891936046
1.026389855
1.106964422
1.149170516
1.160612261
1.160210934
1.156318118
1.153283027
1.151875973
1.143333135
1.143230157
1.14383374
1.145959373
1.148824847
1.152383367
1.149282588
1.123092181
1.015176347
0.7535249783
0.3647286992
0.075755482
0.2521931076
0.4760373591
0.6979440718
0.8885729918
1.024777269
1.105418142
1.148086897
1.159892983
1.159925056
1.156156789
1.153153298
1.151741913
1.14302128
1.142989444
1.143691076
1.145894313
1.148723844
1.151910954
1.147332453
1.117041534
1.001202679
0.7354290156
0.3539404684
0.07821306951
0.2576973028
0.4800436816
0.6996117468
0.8880584873
1.023259529
1.103920442
1.147108493
1.159260455
1.15943328
1.155882496
1.152946769
1.151525706
0.2123376576
0.05875420457
0.04860247879
0.4658930192
0.08351120787
0.06162829535
0.5698921103
0.1174864777
0.08748932001
0.4949294883
0.1490220798
0.1225363555
0.4354468654
0.05121105587
0.06456371039
0.1848968182
0.1530079101
0.3272634287
0.09818287616
0.05269012581
0.1252058741
0.2522898478
0.1881530326
0.09524574949
0.06461687196
0.0503267264
0.09476953351
0.02994914597
0.02074977113
0.06370898635
0.1119587685
0.1163743122
0.4191167423
0.445907351
0.2500381299
0.03917089394
0.0503436972
0.08816018612
0.1268254939
0.1140257395
0.523633498
0.6149824885
0.4677761489
0.5472750753
0.217238467
0.2507868797
0.06580762357
0.04806880756
0.1204276994
0.1547101776
0.1327284232
0.5677316042
0.595483541
0.6308419754
0.5337473783
0.1340198723
0.1785992879
0.1161116757
0.08751937919
0.5548626856
0.518383878
0.5870683697
0.472184972
0.07564166351
0.1019546669
0.02165851214
0.1401724605
0.1350772901
0.5540522815
0.4000715575
0.5081545771
0.3925491953
0.0284890877
0.0475418077
0.2590138413
0.1348968486
0.1023778304
0.0777893548
0.2022904321
0.0364643837
0.06994865341
0.04884354869
0.03120627545
0.05105681201
0.03306800581
0.04693342613
0.2555546629
0.2913150321
0.3767201169
0.2234405149
0.2018582435
0.2442457517
0.2276482218
0.04763313005
0.03896823071
0.07308920476
0.05622489233
0.06295530053
0.04819042287
0.05650792856
0.07159781046
0.1819010585
0.2124366241
0.5726875928
0.1629465785
0.1343267735
0.199571323
0.1653501302
0.08366433207
0.06730111991
0.1046580304
0.0895395648
0.1127822084
0.0635199348
0.08654227224
0.100150765
0.1034771799
0.1321681301
0.5244848615
0.1047886946
0.07779333886
0.1327155771
0.1062737583
0.134142026
0.1204918432
0.0485097517
0.07381322171
0.4697970527
0.01499243835
0.05109379707
0.03027755476
0.0766758251
0.05266314135
0.01321972383
0.1463099286
0.1418082356
0.02451156558
0.004669065018
0.02816163922
0.3869101262
0.08215781221
0.01773814445
0.009985651392
0.02993501462
0.01807525518
0.07883162718
0.3007366728
0.2227378148
0.115418381
0.12686966
0.07764242657
0.04319495229
0.01742286058
0.008841357937
0.3440063964
0.2962128444
0.2231861997
0.009235838832
0.1553846203
0.1916514933
0.1631922786
0.01004053913
0.07121969644
0.06231198888
0.09506587207
0.162587539
0.1500141415
0.1961981204
0.08669358078
0.1434381508
0.04222394208
0.01418512585
0.02477233458
0.02379840794
0.03137051926
0.04964484855
0.0604536923
0.04384065442
0.137508205
0.127794663
0.1361266858
0.1162746403
0.1265441957
0.1341973727
0.03490565325
0.01149521931
0.0626016199
0.02547194223
0.04402842755
0.03545442151
0.02103809843
0.03299183603
0.02426714717
0.01723260143
0.02405121633
0.02196873349
0.01062468773
0.01750582239
0.02276386743
0.04935422262
0.05012278449
0.05712689073
0.05588194021
0.02184229485
0.01047906997
0.1034774237
0.01845491024
0.03421642149
0.009662489105
0.01563035999
0.0992942757
0.09039165435
0.2653237357
0.2507103885
0.08937487122
0.07588450974
0.01020426692
0.04257128978
0.1882287287
0.1743353827
0.207482071
0.1938638144
0.04294244268
0.05257594972
0.04256563735
0.1168192504
0.06921773009
0.06580605605
0.04010326371
0.06861532745
0.1326974491
0.04447639384
0.02593979155
0.01626143611
0.05843686933
0.02888522525
0.04945590591
0.02750606245
0.06964153975
0.03908629673
0.03859863788
0.2180073764
0.03031804403
0.2170581052
0.249723289
0.034390016
0.0389845394
0.03077507567
0.03383643713
0.2441165032
0.04578118125
0.0454486542
0.0600904643
0.06988763862
0.0652751151
0.0764713731
0.07147419382
0.06042409432
0.05850642829
0.05763012358
0.05254634038
0.06358362208
0.05903095326
0.06001513604
0.1488068786
0.1469595199
0.1836289359
0.1814931495
0.07932240574
0.00943392224
0.0778374741
0.09464393798
0.09271500681
0.1188146925
0.1170286865
0.03656295595
0.05390700055
0.131657455
0.040818622
0.0235447078
0.06455978386
0.2266877656
0.2124577913
0.2458101567
0.2314313395
0.06589747102
0.03177054176
0.04657771801
0.04557813438
0.06928684638
0.06840800863
0.00668035233
0.04208545702
0.1077572413
0.09408116328
0.1689044857
0.1584143045
0.02235374892
0.01141093685
0.02594924855
0.01670700841
0.02846683427
0.01107110281
0.0155543532
0.01133582307
0.02849447993
0.06699943746
0.01197745056
0.02207742524
0.003529205353
0.02255793434
0.01677872371
0.6270747866
0.3658712157
0.3806746139
0.2436836319
0.00811054922
0.005329049002
0.1769945523
0.3836829628
0.2847802573
0.006284593076
0.01461333754
0.01101172466
0.1230862132
0.1126052987
0.04546789587
0.2028827818
0.1690462244
0.09864621738
0.01041559773
0.01793371804
0.01415819254
0.009160083883
0.01375297177
0.009688700916
0.04217969866
0.01855128656
0.01735166015
0.05360208545
0.06162166426
0.01860661557
0.02541341199
0.01186005119
0.01182243951
0.05012547077
0.1497960846
0.3425746375
0.3278401383
0.3624155233
0.3475155066
0.1534025676
0.2844704001
0.2699660701
0.09175440336
0.03137164096
0.09287060517
0.08739592786
0.01070085467
0.01611987973
0.1109110983
0.04514035864
0.02103715127
0.01872157617
0.03836096838
0.04466743389
0.04047755387
0.05096375809
0.04613195558
0.03959069191
0.0466824265
0.01234304999
0.0119264151
0.04061713884
0.1948140067
0.3823589191
0.3673510491
0.05874133673
0.06080574559
0.1396949618
0.02697196875
0.02945832146
0.07144439623
0.09885707469
0.1048356747
0.09684048237
0.07062099292
0.08428466137
0.07840057559
0.09392947151
0.08661094844
0.07187535494
0.1178401359
0.3036782747
0.2892195722
0.3229794319
0.3085086482
0.1197945395
0.1005134228
0.03533574318
0.03606058308
0.02043868823
0.02123017585
0.0823943739
0.1269733185
0.05442709861
0.05831852945
0.03637028525
0.03705201783
0.1107424133
0.1331564473
0.05658545845
0.07540466876
0.007029274372
0.02158450697
0.04876176511
0.0369742056
0.07345638177
0.01980747819
0.02029461368
0.01936952523
0.06192111973
0.01063135692
0.004379394027
0.1199007417
0.1008646499
0.08550780683
0.08104502426
0.02775170492
0.02400444441
0.03737521657
0.08791099362
0.01750544151
0.01109428745
0.02310171135
0.0306549642
0.00287006005
0.02943947932
0.01907836054
0.01256151616
0.006451518982
0.01233982025
0.009360487009
0.009218401875
0.03316557065
0.02532033112
0.006596111373
0.03869664722
0.04056824271
0.01652258977
0.0114240085
0.007834139625
0.01188710589
0.01804444451
0.01113121934
0.01534243097
0.05142419321
0.01004757762
0.009361282578
0.01084641861
0.01365442841
0.0418576278
0.01083389224
0.01056632603
0.0138412404
0.01082210592
0.01107390965
0.02275491898
0.01549889437
0.03252840183
0.02560501975
0.01084872794
0.02007664364
0.02210214887
0.0190169688
0.03096697832
0.02353934713
0.01861415159
0.01673994894
0.01297253585
0.01591337134
0.0124267053
0.0445379775
0.05275620457
0.01704059551
0.01600844395
0.01735908047
0.01799648517
0.0601770322
0.01064884325
0.01091993665
0.01432751898
0.01087902662
0.01104069003
0.05148003763
0.01137977499
0.01698175886
0.0147836266
0.01322805994
0.02447843259
0.063674757
0.05806009276
0.01213291042
0.04812532748
0.04137986346
0.05600911245
0.05046689304
0.01275560601
0.01221089071
0.04399912097
0.03628973069
0.1016463353
0.09485155764
0.03495397679
0.04510670695
0.1092267233
0.1035208608
0.04661198797
0.04557393468
0.07217506501
0.09119012684
0.1156941911
0.06816458181
0.08517267223
0.07333817529
0.06232646523
0.1540639948
0.1395525583
0.1282952716
0.158208463
0.06223893235
0.04226590422
0.04987297243
0.06241109747
0.03657812159
0.04123979158
0.02912175681
0.02764560754
0.04380841318
0.02012672199
0.02025603851
0.01603942606
0.02894259808
0.03248042751
0.02106467932
0.02919021349
0.0350714844
0.03750219593
0.03050674162
0.02841219235
0.09861766059
0.08534197678
0.1061189445
0.101455897
0.02958424955
0.07587691556
0.07334823475
0.08157527236
0.07679418926
0.03607043052
0.1265723771
0.1208688734
0.1360105712
0.1286271939
0.03673330179
0.03199692724
0.1123551488
0.1077573284
0.1190698787
0.1139786207
0.0323722832
0.01301841519
0.0125326699
0.04642496559
0.04226437341
0.01279625122
0.01319248878
0.04207527067
0.04126820601
0.04432994391
0.04235286242
0.0398072746
0.03872764745
0.04100425581
0.04008282609
0.06955097181
0.0673803949
0.07256736582
0.07031582248
0.06147474196
0.04712086298
0.06646882843
0.06420089996
0.03027831896
0.02558482766
0.0394161796
0.03284583261
0.008273327893
0.0162454155
0.01519159157
0.02388267918
0.01682032718
0.03436956868
0.03497788792
0.09905646511
0.0203555408
0.0201570242
0.02099751629
0.02054136234
0.01952186648
0.08484764021
0.0218094566
0.03231391601
0.039218112
0.05246232284
0.1249915717
0.03588595627
0.02308353181
0.03858657046
0.03560279937
0.02176022213
0.0212325768
0.02266930066
0.02198257535
0.1122648681
0.03728663799
0.03818171546
0.006522582718
0.03338332135
0.009325358022
0.01001787253
0.00931295066
0.03093196868
0.007246129958
0.02425128616
0.01038420396
0.01071720837
0.04810365217
0.04168887357
0.01920512728
0.01969854229
0.07247539664
0.06413089866
0.01832737483
0.01913580208
0.009918602636
0.02666603483
0.07832617711
0.06974278434
0.0120901225
0.01172252025
0.0167049955
0.01134085895
0.01194407833
0.02078103585
0.02932518838
0.007695444718
0.0127721471
0.01109178222
0.01182174904
0.01987746309
0.0576432129
0.1226622152
0.1587507845
0.009704660596
0.009673269247
0.1921728715
0.2443686305
0.2030669695
0.006549082672
0.04412206321
0.01518033995
0.02199067127
0.1405393866
0.146373672
0.1637355212
0.005103005012
0.008102785652
0.00605059574
0.005014823638
0.006152466394
0.004832531596
0.06191089563
0.03894538994
0.02426919374
0.02687566674
0.02374702207
0.02750754029
0.2316883543
0.422554219
0.4074544718
0.4427355834
0.4276001987
0.2364354405
0.05398998992
0.04672322849
0.01388381187
0.07990694889
0.09333854214
0.1376693179
0.116848255
0.1110434284
0.04559765164
0.0291433546
0.03488143678
0.03371665464
0.4024229089
0.3873433245
0.1990186537
0.1565558666
0.06688058553
0.070947482
0.07421751368
0.085732354
0.1726426334
0.05609336116
0.125544099
0.1188631705
0.01071846789
0.01096217229
0.01679085573
0.01891951471
0.01920155634
0.03109018423
0.01182656745
0.01015464026
0.01024601251
0.03228250145
0.06480391806
0.05605389467
0.01769733132
0.02971761213
0.01849935032
0.01866076024
0.0180863103
0.01494408914
0.009536004555
0.01233948133
0.01129688246
0.01004201342
0.02772238552
0.03468772846
0.07076554653
0.04079101753
0.03916455332
0.03574957198
0.02635000825
0.05383259433
0.01796681102
0.02508549752
0.01079304189
0.007547726364
0.007655366271
0.01095823512
0.01079632587
0.02519770598
0.01588488098
0.01076985565
0.02231065402
0.02018843947
0.01853330501
0.01940022117
0.02340693802
0.0199879782
0.01136130489
0.01222746543
0.007046675817
0.009282444911
0.01167547711
0.07148178616
0.06553426996
0.02664228475
0.009397287253
0.0163257121
0.01464225491
0.01087615797
0.01642616905
0.01418278419
0.05018454894
0.03809276632
0.04362551722
0.07032508088
0.1019184408
0.1000979892
0.04181752602
0.0697625654
0.06561280393
0.09883423492
0.09639470261
0.06680056351
0.03725084058
0.04510490241
0.0385220742
0.02939422356
0.03048451573
0.02488934908
0.04948185661
0.04781507167
0.05664973938
0.02266974601
0.0330553943
0.03137190037
0.0524026362
0.05198982179
0.03005074461
0.02759789565
0.0271697031
0.03031759632
0.0295892566
0.03498510292
0.05939758032
0.05867964314
0.06373192837
0.06281540096
0.03815063766
0.03113469242
0.05379445277
0.05321573845
0.057943392
0.05722331267
0.03332983407
0.06405739844
0.06611531294
0.1545630808
0.1414203143
0.06142468579
0.06340738819
0.09333881627
0.09692480213
0.1903862277
0.02554407741
0.02540589039
0.0269242493
0.02670387881
0.01940931489
0.02512705139
0.02502917379
0.1748636062
0.08815746786
0.0920039469
0.009651232264
0.00972504239
0.01413697656
0.01341740439
0.009472772773
0.00963754943
0.009193497166
0.07289758758
0.03064653131
0.03766825606
0.134236302
0.1277727817
0.05930546461
0.068921274
0.142032471
0.1361701979
0.03046135122
0.03052997959
0.04694158761
0.04524029389
0.03006849663
0.03003448599
0.009984938727
0.02125639407
0.03348519446
0.03325533345
0.008308022345
0.01357817554
0.02305301292
0.01210688567
0.01165389357
0.01761564407
0.0178584465
0.02891117926
0.011187078
0.008040156011
0.01108121316
0.01104309803
0.0269996656
0.01713450161
0.01771111048
0.01537389466
0.04119785968
0.0348872436
0.009862970229
0.009906432328
0.01082127032
0.01135112102
0.01861596639
0.006776610341
0.004461960321
0.008233499692
0.01279706001
0.00953474133
0.01030300851
0.009485163954
0.009741546599
0.01147772995
0.01082872821
0.007167227141
0.005462079912
0.01582445576
0.01632378292
0.01525606709
0.01543626638
0.01800797867
0.02730556971
0.02770857359
0.02676650425
0.02713208994
0.01783454642
0.01168362742
0.02069142342
0.02064781573
0.0213603375
0.02082523589
0.01146406644
0.01999869295
0.03058268942
0.03388586029
0.02803686889
0.02893697948
0.01938840921
0.0122831658
0.02067330327
0.0206572464
0.02061291096
0.02065157994
0.01209463973
0.01466028718
0.01500001821
0.01409366568
0.01482688525
0.03549341648
0.05455515469
0.05407637418
0.02068784144
0.03407005386
0.0338323079
0.03533324331
0.03440979846
0.02088629735
0.01036949886
0.01018694694
0.01038138461
0.01038793171
0.01921805001
0.01903136436
0.01962743819
0.01941832794
0.01497942913
0.03306283147
0.01978062224
0.02067392062
0.0199876952
0.03337748806
0.03316462724
0.0336892602
0.03351466536
0.02011673616
0.02049542845
0.01991862373
0.02989836779
0.02143428059
0.01539357846
0.006886423926
0.01011111522
0.01098025959
0.006806604593
0.03978463941
0.02741448359
0.003043227576
0.02775506848
0.04245665373
0.04206734177
0.01746754361
0.01106306378
0.008140723604
0.004136019673
0.01186557691
0.011908023
0.01828190913
0.01843279443
0.02963882837
0.01850470481
0.009684905957
0.008885164132
0.01533605379
0.004099944779
0.009420880977
0.007321308306
0.00537717944
0.006646744789
0.009327307053
0.007532193752
0.009823389224
0.01081267227
0.01014784054
0.04054585726
0.03077718776
0.00876292758
0.01094626061
0.0122823655
0.01902795593
0.02141257272
0.01312069481
0.01618439255
0.01495537473
0.009600127157
0.006500908582
0.00964099867
0.01048596631
0.007227036797
0.01058074462
0.01064188881
0.01233782791
0.01094957612
0.01077404641
0.01082065483
0.01064246765
0.01151469732
0.01125947017
0.01096271733
0.01091294774
0.01111515069
0.01271850816
0.01196850735
0.02498561987
0.0220135467
0.02474116959
0.02758001689
0.03025674913
0.02427539275
0.02253143377
0.02410799061
0.01513627327
0.02411177859
0.02561525405
0.01750510638
0.02421781778
0.0160598903
0.0166759757
0.0262255215
0.02658869174
0.02561901147
0.02609483617
0.01645586342
0.01755165838
0.03076433905
0.03026469394
0.01078786845
0.01085824217
0.01237245312
0.009827543069
0.01015001181
0.01048899129
0.01093921693
0.01052428103
0.01366214068
0.02551839174
0.02282992566
0.02946877738
0.02797292239
0.01591778495
0.009239148018
0.01032376568
0.01753999435
0.006752409061
0.009279341783
0.009267601074
0.01263191474
0.009288907999
0.009508419854
0.02145510224
0.01906090505
0.01060997589
0.04810546086
0.04430861842
0.08766500511
0.07766725621
0.0439301791
0.06648083935
0.09527164436
0.09094930187
0.0369142131
0.03367160753
0.03301569865
0.02369491098
0.03001866339
0.04796712301
0.04719084983
0.04077170601
0.02903507403
0.04115816358
0.04177748867
0.03752445776
0.03877435237
0.02740221552
0.01914105044
0.02049348722
0.03080519247
0.02209017914
0.02107961943
0.02337739582
0.02228309868
0.03127547934
0.02157291273
0.02226743461
0.01787199334
0.02305287307
0.04755751361
0.04777355236
0.02991895927
0.0295436922
0.05087557949
0.05086685964
0.02831660868
0.02790509563
0.0291205432
0.02867886288
0.0607351189
0.06003600165
0.03542604059
0.03742491064
0.06210808658
0.06142566289
0.05516705819
0.0545420206
0.031617784
0.03279907916
0.05649003767
0.05582499223
0.01280948449
0.02071742257
0.02073181912
0.02071007716
0.02072948757
0.01273919784
0.01330611657
0.01921230174
0.01669938614
0.02062124669
0.02024811367
0.01325563865
0.04179265957
0.02425930432
0.0245287676
0.02384780987
0.02404795846
0.04153668722
0.04318481796
0.02545302862
0.0259180167
0.02478815641
0.02509624476
0.04268724304
0.0394127689
0.0226446186
0.02288464871
0.02228278419
0.02251221156
0.03917842461
0.0407136301
0.0234638299
0.02364937088
0.02304468873
0.02327958328
0.04043488604
0.02598621646
0.0258065928
0.06883601819
0.04525832972
0.04559728923
0.04451425065
0.04480617635
0.06803664458
0.02643789188
0.02623379334
0.02391658913
0.02516506276
0.05929715574
0.04063796752
0.04031767608
0.02679395109
0.02818094905
0.05261991963
0.06595730556
0.04377129196
0.04397682621
0.04301363921
0.04295783538
0.06460632663
0.02469586686
0.02474827806
0.009605142414
0.009901063347
0.009338364315
0.01270754254
0.0110243802
0.0158593229
0.01012965073
0.0100275803
0.01017059647
0.01015838526
0.01563757048
0.02137149964
0.01152992774
0.01340962823
0.01024283482
0.009923885867
0.01850735799
0.03430151636
0.0519361875
0.05161975689
0.05336299562
0.05299639331
0.03488091841
0.02031571246
0.02008252808
0.02088042546
0.02060849467
0.02065429561
0.01625240822
0.02288346794
0.04227258629
0.03760110528
0.04944754705
0.04765533062
0.03237785914
0.02502866156
0.01750586573
0.02245029691
0.02379888654
0.03789765572
0.02194229333
0.02222438004
0.02129992785
0.02200187279
0.03796391514
0.02159992407
0.02137423453
0.02241338414
0.02217043297
0.009567789341
0.01259638619
0.01194414027
0.01658286153
0.01385941477
0.009499916517
0.009269829494
0.009507788357
0.01120667423
0.01022786234
0.006570834129
0.01053388658
0.01094373527
0.01081693112
0.01287277668
0.01168924063
0.01036811055
0.01860240166
0.01855930991
0.01883821336
0.0187797949
0.02849755141
0.02844163763
0.04330519523
0.01782050043
0.01881877492
0.01833820053
0.0184001007
0.01942015764
0.0326096713
0.03226970167
0.03301778017
0.03274860268
0.01950293574
0.018862358
0.03158554795
0.02985055612
0.0321386722
0.03159653361
0.01885457279
0.01018205816
0.04048191685
0.03985512428
0.0265027747
0.01216855922
0.01035452039
0.01045609022
0.007715200482
0.01070253982
0.01178786233
0.01728170887
0.01159195455
0.01190777424
0.01176556649
0.02903485095
0.01796602113
0.01816904251
0.01087655818
0.01123809338
0.01113180849
0.01134876341
0.01150329193
0.008118830209
0.008074576941
0.01154389378
0.01118587769
0.01138807081
0.01456319909
0.01795136129
0.02707296447
1.154777707
1.15502465
1.155440744
1.155136346
1.155604385
1.155726273
1.155801824
1.156581342
1.156215516
1.15689708
1.14746936
1.156906313
1.103876013
1.010927828
1.157662434
1.001777402
0.9270568319
1.111991915
0.9275092337
0.945095752
1.11527807
0.9563133958
1.03315234
1.157696496
1.061193279
1.157953075
1.156955723
1.157617946
1.156682806
1.156300071
1.154240722
1.154777236
1.154923598
1.155027352
1.156082887
1.155633987
1.156620618
1.060570386
1.156875405
0.9864834363
0.8045275724
1.058027969
0.7610344862