/*--------------------------------*- C++ -*----------------------------------*\
| =========                 |                                                 |
| \\      /  F ield         | OpenFOAM: The Open Source CFD Toolbox           |
|  \\    /   O peration     | Version:  v1912                                 |
|   \\  /    A nd           | Website:  www.openfoam.com                      |
|    \\/     M anipulation  |                                                 |
\*---------------------------------------------------------------------------*/
FoamFile
{
    version     2.0;
    format      ascii;
    class       volScalarField;
    location    "1.2";
    object      omega;
}
// * * * * * * * * * * * * * * * * * * * * * * * * * * * * * * * * * * * * * //

dimensions      [0 0 -1 0 0 0 0];


internalField   nonuniform List<scalar> 
12556
(
31.93050183
31.93131419
31.93220782
31.93305328
31.96657335
31.96708102
31.96742951
31.96806886
31.96936261
31.97179962
31.97581073
31.98106224
31.9858385
31.98869109
31.98698782
31.98267816
31.9775947
31.97280216
31.97042477
31.96826222
31.93504482
31.93360601
31.93244987
31.93136384
31.79323396
31.79564333
31.79828997
31.80077859
31.83497604
31.83674953
31.83861289
31.85729803
31.86330992
31.87469729
31.89350921
31.91861843
31.94214764
31.95545285
31.95064921
31.93147119
31.90703352
31.8858117
31.85555609
31.84469716
31.8067625
31.80301963
31.79972896
31.79672147
31.65745928
31.66181095
31.66644346
31.67040304
31.70516351
31.70842159
31.71261929
31.73499406
31.74980337
31.77725558
31.82420161
31.88496292
31.93169068
31.95648805
31.94583089
31.90488406
31.85097462
31.80306844
31.75147451
31.72795615
31.683552
31.67607237
31.67016709
31.66512589
31.52338134
31.52911552
31.53535297
31.54079973
31.57649644
31.58198343
31.59070421
31.62091168
31.65228268
31.71650054
31.82256236
31.95742996
32.05329965
32.08134652
32.03186014
31.94769354
31.84760773
31.7542316
31.66867093
31.62380587
31.56555411
31.55310314
31.5439911
31.53672699
31.39114701
31.39873819
31.40676585
31.41372255
31.45026469
31.45869032
31.47391887
31.51672644
31.58539287
31.72576719
31.97957029
32.31446822
32.59259425
32.57106739
32.36984394
32.14604152
31.94686605
31.76411829
31.61812017
31.53743252
31.45620868
31.43462531
31.42072892
31.41090255
31.26053848
31.26950914
31.27905254
31.28772671
31.32666447
31.34010128
31.36672559
31.43023552
31.56052795
31.86559845
32.52298561
33.70196593
34.68212606
34.28449146
33.3450785
32.67071782
32.23072604
31.87164212
31.61113014
31.47257367
31.35586467
31.31934968
31.2991099
31.28597098
31.13199609
31.14263898
31.1542017
31.16505851
31.20586607
31.22614047
31.2695141
31.36521448
31.58624343
32.21158694
33.87704814
39.11318519
45.37958594
42.37573728
35.94348828
33.80661934
32.80012653
32.12277782
31.64805048
31.43118017
31.26450898
31.20803989
31.17878638
31.16152188
31.00546822
31.01757742
31.03095314
31.04430071
31.08901904
31.11812409
31.18286195
31.31624149
31.66176796
32.72484298
36.09977406
52.67599156
68.9711981
41.99183153
35.84865723
33.74028108
32.54674083
31.75207594
31.41031486
31.18187179
31.10003894
31.05927992
31.03715707
30.88183355
30.89588667
30.91198265
30.92883369
30.97721007
31.01708692
31.10667869
31.27994375
31.77024976
33.26671569
37.96184929
62.86750404
128.1506286
51.03533894
38.70556927
34.98690155
33.10991969
31.907558
31.4104814
31.10795657
30.99735397
30.94250184
30.91469308
30.76113375
30.77687566
30.795377
30.81601205
30.87094367
30.92293295
31.03924485
31.25255954
31.8854526
33.72423151
39.1414137
70.23575598
160.5184904
59.08523203
41.7345686
36.39539056
33.74027424
32.09105461
31.42221134
31.04187045
30.90058406
30.8304762
30.7964164
30.64508089
30.66303733
30.68488863
30.71065071
30.77002874
30.8353975
30.97876558
31.23460277
32.00713089
34.13055866
40.16993922
79.66610329
161.4212014
63.99687133
44.42202106
37.73826725
34.35345129
32.27071361
31.44404376
30.98319083
30.81270741
30.72661112
30.68569407
30.53242956
30.55216913
30.57683503
30.60792703
30.67387526
30.7537284
30.92334325
31.22453661
32.13106786
34.52141105
41.35103599
91.05903013
150.0110024
66.2548105
46.43357008
38.82453746
34.84776361
32.41974747
31.46595219
30.93106244
30.73238123
30.63157005
30.58385651
30.42539768
30.44751408
30.47601365
30.51319448
30.58181607
30.67689054
30.87184594
31.22117918
32.25614965
34.91781895
42.88930389
101.6990565
674.9417073
129.6762082
66.98377018
47.71161664
39.64344299
35.18731043
32.52146984
31.47909087
30.88285023
30.66064563
30.54584719
30.49143636
30.32114121
30.34540367
30.37759564
30.42020737
30.49662767
30.61168292
30.83742519
31.236036
32.42410701
35.45522951
45.33844162
152.2582624
423.391546
121.1955479
67.06997161
48.68443463
40.07443321
35.34129155
32.57606621
31.475631
30.83262262
30.59295197
30.46640703
30.40632568
30.22148862
30.24796236
30.28371888
30.33112501
30.41255992
30.54258658
30.78870423
31.21723726
32.44815328
35.64276955
47.8890921
497.5485753
303.3218859
114.122635
67.07859213
49.09190637
40.25169268
35.35271534
32.57370128
31.45399576
30.78146618
30.52832863
30.39123827
30.32577749
30.12270183
30.15126894
30.19055305
30.24329298
30.33079577
30.47397517
30.73969561
31.18404528
32.3949249
35.54237231
48.74893717
636.6254994
278.2477324
114.1350567
68.27883803
49.49753571
40.1567197
35.25829872
32.53563095
31.41502501
30.72252732
30.46003263
30.31597217
30.24630451
30.02731545
30.05801066
30.10051885
30.15761255
30.24998923
30.40456816
30.68924804
31.15333083
32.31916431
35.27032225
47.07510529
392.1519773
308.2400024
120.4515709
70.30010923
49.73740654
39.88929335
35.12084456
32.46700001
31.36125442
30.65823778
30.39020413
30.23965316
30.16632
29.93047854
29.96306883
30.00874068
30.07082737
30.16916533
30.33349032
30.63544278
31.13326843
32.29654253
35.07457272
45.45686483
243.0667841
366.1559158
128.0326243
71.4530979
49.2963941
39.52520491
34.95382434
32.37401435
31.28830461
30.58252405
30.31144939
30.15785976
30.0816947
29.83619472
29.87058383
29.91904234
29.9849196
30.08744904
30.26023564
30.57801446
31.10822541
32.3427336
35.2138678
45.70554118
204.6290938
375.009108
128.4329584
70.16461637
48.45486704
39.17458582
34.77264065
32.26608286
31.20244672
30.49952964
30.22780202
30.07210274
29.99429132
29.73846523
29.77427736
29.82544149
29.89601585
30.00433378
30.18463141
30.5172193
31.07824248
32.38733215
35.52752983
48.26829456
238.2364429
325.6788791
122.1863749
68.43070494
47.72590997
38.84607582
34.5877405
32.14854193
31.10651117
30.40721263
30.13534145
29.97844506
29.89971394
29.6435126
29.68051795
29.73383828
29.80753805
29.9193192
30.10665997
30.45352226
31.04452738
32.430288
35.87525609
51.85871462
273.7789285
285.6650786
116.7672738
67.01074105
47.11648061
38.54273599
34.40490558
32.02502444
31.00282061
30.30980884
30.0392502
29.88193304
29.80274703
29.54352137
29.5812974
29.63669358
29.71467391
29.83226492
30.0263558
30.38737177
31.00813746
32.47451198
36.27541005
56.04728891
298.1987734
256.242773
112.0942904
65.77298323
46.62408491
38.26812558
34.22743996
31.89822936
30.89330218
30.20453212
29.93466783
29.77731692
29.69821216
29.44770468
29.4860123
29.54281564
29.62296198
29.74301156
29.9438465
30.31921421
30.97012973
32.52334604
36.77789514
60.11789222
313.1656698
233.8150985
108.0133911
64.66245991
46.22081721
38.02566128
34.05798787
31.77031809
30.77960027
30.09724811
29.82933118
29.67241435
29.59362394
29.3451591
29.38366963
29.44196635
29.52596817
29.65189828
29.85941934
30.24960507
30.93183654
32.58260104
37.4477023
63.85965866
319.3165905
216.0537979
104.407113
63.65244739
45.87388976
37.81407283
33.89841617
31.6430204
30.66320067
29.98333058
29.71585421
29.55934189
29.48116132
29.24928094
29.28783716
29.3469349
29.43213273
29.55908666
29.77353897
30.17932772
30.895039
32.66115658
38.28227701
67.28721191
318.9965727
201.4504565
101.1838592
62.72522018
45.56172078
37.6277076
33.74920839
31.51750387
30.54525078
29.87079796
29.60529492
29.44950602
29.37198394
29.14423933
29.18264573
29.24287978
29.33185018
29.4652546
29.68675452
30.10927071
30.86169466
32.76912804
39.21468283
70.42827456
314.6886254
189.0532911
98.26917336
61.86523342
45.27214217
37.45994065
33.60953391
31.39432687
30.42667796
29.75163113
29.48571627
29.33032699
29.25358609
29.04965165
29.0878351
29.14849912
29.23787005
29.37053658
29.59961473
30.04024245
30.83369979
32.91388047
40.18040089
73.27938305
306.9307486
178.3209216
95.60750004
61.06070643
44.99846374
37.30538968
33.47796018
31.2736389
30.30803246
29.63761455
29.37358194
29.21891932
29.14290108
28.94201777
28.97988202
29.04152774
29.13497655
29.27571769
29.51259152
29.97290973
30.8127448
33.09736896
41.14539988
75.87126884
297.0582158
168.963391
93.15460075
60.30241133
44.73662811
37.16016597
33.35297639
31.15534258
30.18981653
29.51495258
29.24941183
29.09495792
29.01969387
28.85040454
28.88793806
28.94983968
29.04304291
29.18063216
29.42609221
29.90787006
30.800465
33.31631329
42.09532124
78.25405688
286.2064366
160.7445152
90.87945484
59.58256757
44.48363136
37.02151416
33.23325984
31.03925833
30.07216141
29.40249255
29.13889511
28.98504335
28.91041628
28.73953235
28.77669414
28.83953419
28.937361
29.08620997
29.34047457
29.84570596
30.79840698
33.56409827
43.01999551
80.42863969
274.9082486
153.4677376
88.75546126
58.89445236
44.23719427
36.88742944
33.11768726
30.9251744
29.95541799
29.27636841
29.01010105
28.85622932
28.78223918
28.65297744
28.68980519
28.75288271
28.85000965
28.99187668
29.25606204
29.78702135
30.80731824
33.83402977
43.91516479
82.40252018
263.5067948
146.9455905
86.75855965
58.23297242
43.99554719
36.75639049
33.00532194
30.81289758
29.83945281
29.16861635
28.90447906
28.75100786
28.67750669
28.53742241
28.57389389
28.63790065
28.74012962
28.89893326
29.17317753
29.73243766
30.82821172
34.12089515
44.7825116
84.20708972
252.301211
141.0531795
84.87487785
57.59417802
43.75710882
36.62720107
32.89539324
30.70227025
29.72470486
29.03714218
28.76937633
28.61572057
28.5427243
28.45867912
28.49487959
28.55923608
28.66084139
28.80626711
29.09215777
29.68255306
30.86114112
34.42060404
45.6233994
85.85325706
242.0535021
135.6911487
83.09212479
56.97400159
43.520439
36.49890329
32.78722742
30.59321339
29.61084569
28.93856907
28.67281257
28.51929033
28.44663049
28.33594317
28.37183293
28.4371183
28.54351595
28.71606549
29.01348535
29.63793505
30.90584214
34.72986763
46.43803624
87.34262823
232.4318302
130.7672384
81.39653739
56.36894376
43.28448836
36.37078181
32.68032737
30.48587576
29.49883569
28.79694591
28.5276833
28.37392298
28.30165921
28.26851416
28.3042587
28.3700668
28.47753468
28.62675917
28.93790485
29.59928357
30.96190588
35.04624244
47.22691292
88.68020008
223.1658989
126.2223804
79.78024595
55.77727623
43.04864826
36.242285
32.57423428
30.38093624
29.38867428
28.71508152
28.44589039
28.29197677
28.21988995
28.11258529
28.14808737
28.2152782
28.32831929
28.54286445
28.86684996
29.56778708
31.0283434
35.36597197
47.98537313
89.87160628
214.199949
122.0356691
78.25135586
55.20319477
42.81410117
36.11354829
32.46886045
30.28035595
29.28366271
28.53248633
28.25954857
28.10513268
28.0333784
62.20814645
150.0649282
77.32069222
69.12665573
192.1999003
155.7705374
78.46443862
190.9215427
193.8538978
89.67652481
173.429456
188.8303798
100.5749283
822.0483714
704.7910591
156.651772
170.8935303
130.8476915
521.8694643
806.1863834
441.6552148
152.8507235
155.0146176
50.53627694
44.82584784
70.8197472
42.19371051
424.0129735
153.0668912
121.4526264
55.26171941
45.44039272
38.88786371
59.20697686
55.08800978
1417.843632
995.8489037
158.6656781
67.12630327
58.61173736
39.93866095
66.02680011
59.9354254
73.78125857
213.9863583
189.0764338
829.2328247
1123.999055
162.4063737
73.83021137
69.37035169
41.10450587
74.02250063
66.94522613
83.52764315
320.7212112
251.4321973
481.6221334
630.036738
42.56323233
84.63455944
75.06087658
93.38025873
506.2591238
399.1740475
1822.868862
316.2332086
367.5053181
44.91511224
106.6315291
86.25593991
110.6340091
1135.799456
737.1060554
159.2211896
399.8240116
514.0787434
147.5921119
178.5175394
94.10183692
142.2543643
968.1526182
446.0741364
118.0958419
362.7735541
684.9415905
185.9941154
165.5041979
65.86256135
218.6879389
235.8953242
184.3172412
215.2685729
1135.867314
1420.355148
176.463605
1001.20852
881.9557772
708.1712246
997.6795802
174.0172976
247.8796486
218.0790698
74.95865043
282.3070389
329.2739801
238.1943801
278.8639033
657.2940123
812.0531762
194.55254
625.7865622
498.8049714
873.5125282
646.9802075
195.1418595
394.5870111
324.3048121
84.91860632
400.1149812
507.0435214
332.3717021
395.8072216
378.2501768
464.8121909
725.6061875
516.441174
93.78441459
2695.942574
708.7768013
1092.317968
512.5630463
691.5775876
3121.859932
291.0757125
310.8813169
1606.71656
8515.747902
1146.805782
112.1225381
596.0307451
1794.937349
7578.275679
1101.884981
1762.046153
611.9849584
37.58873799
54.52356183
47.21019683
58.11306958
117.2286004
82.46390652
2415.042801
419.6444146
65.2354579
163.0242058
141.7331092
5093.278584
151.8419511
76.09871374
74.79641154
5420.416897
693.8818597
769.2873015
537.0102766
258.3972082
281.239558
138.3538266
120.2719296
59.35925269
1301.820511
203.3800909
483.8566516
129.3012833
322.2013733
109.2557491
785.8840245
996.5653944
180.0440784
385.1022746
328.5189166
483.117157
395.565202
182.5456653
1128.391231
4167.343886
713.5338127
68.50024184
57.11443257
86.492254
134.4045382
67.57280586
70.76406479
3262.213527
299.1453624
2322.75341
320.298447
1714.473224
270.0517138
1152.296302
1136.833688
949.2603477
969.7880416
1868.437047
4255.945675
537.6433844
2234.201634
1240.108325
4770.15803
2647.657148
559.3048695
438.1068877
164.5243695
172.7160724
584.4055927
662.0000025
4813.240361
800.1027431
220.150454
234.7603074
202.8342251
214.6915947
796.6186081
1124.140423
1301.927453
159.701936
804.8791883
630.9895606
1284.003844
807.2684846
163.4056241
118.0272719
342.3155726
166.0234713
549.8829665
371.1960934
125.8468517
509.8522833
802.789006
681.5718968
646.6443383
221.4474423
1464.618744
222.0514685
198.0739214
1388.644754
1307.113399
1455.536033
1398.900045
202.2362375
1197.461955
1208.685019
930.5146646
326.9988729
318.2909093
329.5675729
328.4610232
924.3949725
842.9292608
290.1802936
266.1673918
314.0828773
297.2611523
859.3056146
303.7315295
306.7720207
255.5096307
258.0208321
695.3580424
4947.603171
707.8176384
432.6604507
439.8384522
363.1767823
367.5339069
1173.013534
867.1127338
422.4727431
1054.005756
1733.857683
572.9675307
188.2093637
198.7975014
175.6615695
184.930636
563.6079115
1234.884352
758.3946213
772.0928728
552.7112147
557.7266853
5650.763745
957.6466204
502.7827594
561.1464894
241.1398322
254.0635169
1427.603328
2884.668455
1391.73211
2376.978254
1143.391113
6305.714889
2659.250369
5388.040218
1139.540846
680.9527092
3772.351798
1773.915937
2954.417721
1758.950408
2395.27631
47.27519123
117.1922995
109.9707806
171.5318468
4186.933525
7755.510879
316.3324943
140.1414487
149.7837328
973.7114249
2775.948898
3978.225418
442.752219
484.4569464
900.9350404
237.655713
251.01479
523.118584
132.0082049
97.00933465
186.8553449
338.5916588
120.0297543
138.9996745
1332.018454
3184.218564
3341.291294
1066.689512
882.0131725
2425.233727
1788.998336
4067.005478
4019.019536
1075.804645
292.6911613
131.8680147
137.0342098
125.5003028
130.2227016
286.7228078
154.9659415
162.1032166
433.1214536
1044.22216
408.8690548
429.5082351
6375.638232
3150.38742
478.0913395
839.51291
2862.482617
3169.992106
480.8643606
214.9496934
181.4991254
256.4588528
226.4308772
502.331396
1164.772911
4004.099242
4072.672464
1355.130922
234.3081717
119.6525357
124.0082415
691.6559071
676.5268904
319.2885548
1694.125626
1561.939429
767.5782318
567.8979798
298.783345
309.382305
786.2592843
324.2294793
328.95113
313.0712178
321.6267504
772.7222264
355.2458748
146.4608706
152.7729752
138.8293643
144.4702821
350.5872398
413.063816
1023.135841
1011.855927
1644.618659
1594.257506
484.6659613
344.2538684
731.623099
694.2123021
1006.931054
998.5741427
383.5102912
409.5881493
836.5417221
678.6452958
5840.921702
1825.275934
734.0094589
918.6759057
529.2070981
1680.466439
1652.480548
1690.707766
603.7669655
4690.432572
8811.052325
324.591102
377.6994598
437.3418321
456.2923735
1158.721525
1617.22547
1013.693879
553.1342094
1817.353642
7897.490863
1488.689231
1311.561568
16041.84966
1114.303081
1674.505553
1456.214179
1764.8768
1309.597384
5041.236756
5112.666792
1204.668464
1566.623999
5631.780017
1369.786813
1304.154518
315.8519608
1149.771009
469.5547122
1151.187716
342.9955698
3903.473209
2645.554067
883.5710847
4645.760981
5438.623368
4376.336893
3007.96155
958.9453511
4541.309237
5690.649239
2969.57824
4308.673319
6016.112394
1730.763002
2601.60811
1210.098505
1536.300436
5417.525345
3323.693937
979.3336379
609.4788058
1582.590108
1076.50591
550.9432093
351.489438
970.6516044
3516.61295
4446.387609
1267.082657
1083.527119
3381.458098
3523.905194
2653.393576
2517.648876
902.1882058
4392.9203
4309.535275
3147.308519
4275.754795
4272.167044
1048.439733
4165.095509
2729.032817
2790.414148
3142.60685
1686.063135
801.1001153
863.6141295
3547.822151
1003.612583
1132.756798
889.1298645
966.2481512
3323.360419
3429.754911
943.7473574
1111.011207
379.5867566
401.70822
947.7029977
766.2483842
358.1459475
374.0269051
1239.308577
1255.565745
786.5581582
273.5326873
297.0260999
246.4475345
266.7769087
778.1501571
864.3553975
339.7152487
373.8134719
305.4211136
330.9195773
869.9866777
483.3399566
222.0274202
240.6116155
710.157946
744.4094205
2056.200338
2149.297963
795.7243802
3033.738487
3053.698764
3869.403312
2099.069759
1755.033178
2947.254081
2076.589964
547.5983042
1483.504663
1964.713219
1514.075378
490.6130192
556.8080312
463.5797218
479.1896012
1473.555885
610.4310678
623.337658
578.8255656
605.8130243
1359.529932
406.1190029
420.9067547
382.6118975
400.945305
1347.49838
1431.842287
444.6307451
458.3378498
425.7482149
439.9338505
1426.672107
3885.422641
3958.141159
1173.538184
1302.612328
4070.763868
3862.583614
954.2752549
960.9154152
925.148205
952.1277373
976.3522873
991.0740343
963.2781272
973.229423
643.6108858
655.9533928
627.3866711
639.3665919
700.5963643
879.7971355
661.8416571
676.3826857
1472.7936
1716.969673
1178.691188
1371.868617
5186.819304
2697.594659
2942.389156
1831.832675
2590.257682
1038.681611
1029.826439
417.7503102
1671.46873
1676.995281
1635.083393
1660.822676
1725.860215
473.1103579
1556.078383
1095.458061
964.8697083
753.4366167
348.6299073
1044.002093
1528.982938
992.1370728
1054.421046
1595.097629
1621.726956
1550.226663
1583.876694
379.5107584
995.9055957
984.4281221
5512.562433
1247.955572
5361.158098
4596.252564
5339.42523
1334.755461
6056.177689
1620.211585
5772.105851
4935.164843
741.5285998
829.0934913
1717.638701
1686.060967
534.4061153
586.7959023
1787.992366
1720.863402
5592.900606
1203.658554
469.6374707
517.4569412
5816.681634
6617.019717
1900.358522
7196.804397
5139.851639
1862.486969
1116.338433
6275.792117
3528.122072
6965.569334
3990.227418
1613.241288
64.02987606
42.65631682
36.81904989
5514.300927
5489.724056
142.045177
76.11721281
76.29021497
5748.45307
919.9154925
2659.365068
1788.272763
320.360151
268.8116735
164.6123065
291.682161
209.4821317
432.7851669
1558.501552
286.3682144
311.2652274
53.44705224
62.54657806
118.2871399
370.635372
705.1988098
1029.91954
202.5061171
109.1236416
112.911192
104.3325638
107.897498
198.9983752
812.406596
901.6108004
2929.864462
648.4034667
571.4458763
343.6719611
339.1335826
353.4221014
760.6357437
1118.39101
1425.774834
516.9995188
114.2146282
118.263395
230.2458574
291.6428317
638.034958
610.4103532
587.6680844
519.764852
268.9757361
642.4106527
319.8152968
334.4412502
4350.540994
4057.369653
2376.531575
1705.253752
1682.127989
1068.195324
3631.032497
5586.44802
4968.153675
1219.374679
718.9955805
792.2556323
1797.989887
1107.838359
1741.521036
1727.83528
1762.072124
2571.408457
4917.857535
3372.584336
3802.578349
5348.115925
1443.050645
1167.048379
702.3041151
1329.63474
169.5439418
135.3224822
233.0200821
854.4710787
2244.921438
1593.268364
5829.543193
6166.783052
6279.518356
5188.983717
5988.046076
92.17309383
115.2356671
273.5633094
2669.733967
1753.593958
1357.287956
3421.68076
2721.615523
2045.920189
3782.526993
3446.750051
5424.551611
5131.317019
3669.556554
728.4841977
782.9541359
1553.515619
4927.810206
2570.165361
2881.753364
4165.79941
2436.276865
2859.982398
1171.910446
1564.084561
1285.089005
797.5178157
539.4347708
547.6677945
1244.817073
760.3573475
802.7329131
552.9272434
564.703676
822.8258205
195.4640922
216.6806548
455.4665099
580.2435116
1044.634678
748.2973074
1226.141349
1276.075364
805.7704231
1825.745802
1317.867992
1371.83276
900.8313017
903.4882238
1469.752197
1483.509004
1498.065126
1405.188401
1428.05046
1377.086655
847.5478079
852.3765879
820.9531447
827.6136114
1322.463641
1448.270458
888.8241562
893.3089838
857.5496417
862.7564222
1408.420554
655.3398356
642.7365386
294.6848434
316.2247056
672.3692132
659.4047381
487.4153475
474.545442
247.8808317
1538.490627
1541.065038
1503.900534
1509.210196
1907.210808
1549.308965
1550.47123
266.1202618
508.1172343
492.5977908
4833.253858
4777.744873
3010.526725
3198.319644
4914.602024
4823.078313
5021.949728
753.1302473
1507.118307
1262.103239
302.8133732
315.2366008
613.3669327
544.8271024
289.3224242
299.3275997
1095.837944
1095.620397
754.9538323
774.7788498
1104.335207
1108.701888
5598.642576
1506.369661
982.5115226
969.3950324
12528.70403
2369.131841
1676.108745
4584.366314
3720.873615
1814.951368
1792.198089
1127.681471
6078.771282
6621.072912
6324.50057
4949.320331
1200.426656
1862.735271
1803.617073
2693.751097
974.4471738
1131.254107
5415.328824
5324.197455
4092.583134
3786.9571
2146.315732
1185.345447
1228.091409
1340.003451
3230.42647
5426.372557
4603.304772
5481.986427
5241.610575
3690.840888
186.6953506
260.583726
818.2082759
3409.087609
3327.12879
3499.229167
3476.849829
3262.674105
2121.71189
2100.399879
2143.965625
2125.275002
3271.12378
4105.67142
2322.313495
2338.834602
2231.697486
2296.150708
4176.139727
2993.838392
1921.877795
1734.689703
2084.577383
2027.05743
3074.642099
3989.103228
2375.162376
2390.255723
2355.749561
2363.978196
4031.641329
3592.833434
3523.832132
3687.501475
3518.414329
1021.138429
706.1798151
710.0297587
1629.272983
1032.963753
1037.304997
1004.909442
1026.185667
1617.404796
5509.792943
5739.092502
4985.991341
5589.106862
1700.734275
1715.096342
1670.78521
1686.366896
2162.909154
1012.370071
1635.354538
1571.0658
1669.741739
1043.935647
1047.855619
1039.261347
1042.116076
1662.833462
1606.18823
1649.129833
1124.863177
1543.373745
2133.755662
5948.403789
5529.554209
4131.953276
5792.226478
861.026821
1219.205182
12883.55271
1160.09575
795.7088089
799.5469979
1820.162609
7520.622508
7772.75741
9198.368322
5852.801366
5418.703581
1757.921867
1745.981004
1108.955082
1724.147591
2221.608645
3121.201044
2188.564194
2930.213092
2194.448603
868.3229667
3040.728008
2206.563831
5094.875752
5297.733453
5577.818631
4137.779999
4765.998813
1328.928673
1661.920305
984.3825776
506.7127099
690.9014864
1078.533495
1187.998548
720.3463387
1051.603395
1378.74026
5281.686552
5557.89868
5193.295581
5171.140273
5961.596579
5907.640096
5746.74749
3434.102413
5062.855917
4588.55494
5709.5322
5908.152453
3857.556197
4198.05556
4647.460118
5940.912251
4813.065976
3373.622503
3720.873905
2510.840162
1814.604261
2551.252382
1348.188306
1949.295109
2591.344331
2848.531923
2635.636014
3662.103302
2306.7971
2182.807392
3139.958173
2277.470485
3434.249121
3429.903447
2166.545336
2147.745218
2194.779897
2165.905276
3451.862835
2609.524176
1574.11611
1599.594779
4342.06084
4334.564482
3684.429481
4772.37718
4594.485196
4417.518251
4347.297586
4554.209544
3431.945107
1872.535424
2085.80685
1640.261198
1719.929451
2926.399971
5163.588094
4352.98029
2338.149646
5514.095385
5274.281705
5254.436858
3336.556711
5152.409559
4987.458528
1951.757244
2195.831788
4178.943597
1212.77611
1277.199181
613.8040065
688.0259235
1197.202376
822.2113951
569.4619431
593.6776082
1160.432266
1122.481635
667.303173
1141.92929
1480.484075
749.4737011
1217.931129
1200.213004
2057.719054
1421.911203
1398.578509
1562.730149
1512.370805
2174.410078
3209.969324
3005.733094
1965.951431
2873.697698
3008.913182
2708.253846
2847.529157
1931.100746
2884.002769
2826.227222
3622.841438
2699.553703
963.7805323
956.1229374
1436.024206
1480.895194
915.8474049
912.7487567
1463.170715
1475.62308
1441.028365
1453.64778
839.646196
843.9381734
1371.639336
1335.224508
831.7303306
835.5894736
877.8690306
882.543998
1438.622944
1418.940764
868.2624187
873.1236447
3929.182857
2425.512848
2438.079702
2398.084148
2409.851787
3919.188272
3881.768781
2672.302
3086.732267
2465.523273
2524.295554
3874.948564
956.6351403
1532.073111
1521.489863
1546.891848
1539.966368
958.6477597
943.1020715
1486.010156
1468.101965
1511.619807
1499.846635
949.0964872
981.7248191
1593.176572
1582.927289
1608.287614
1598.329238
984.3735472
966.1058001
1560.439884
1554.357184
1576.780209
1567.395355
968.9679254
1527.180352
1531.268557
647.58465
939.3948304
936.5514681
946.3120635
943.9854914
652.2886832
1516.195895
1520.93581
1595.201541
1511.069208
721.769257
1003.578346
1013.228009
1432.579118
1378.853851
800.0605014
664.4004523
953.7408575
952.5182721
961.5979259
965.2442146
674.64252
1561.738443
1554.513809
4790.094852
4651.892201
4996.313871
3417.712902
4032.873601
2778.424067
4591.332643
4652.658358
4580.354561
4590.307724
2839.71801
2038.798125
3889.045957
3286.095424
4506.653112
4646.960399
2350.747829
1042.899263
730.6655852
732.5302582
716.7029118
719.3572631
1030.521523
1671.908691
1686.101731
1640.976016
1658.051571
1629.754538
2069.713392
1490.878792
865.6739575
954.4684936
759.0893426
781.877659
1084.404603
1433.827999
1985.078398
1569.176555
1492.472661
1004.257168
1622.502661
1608.958712
1659.232956
1614.829581
1000.411056
1602.769781
1614.767173
1562.857173
1574.855947
5151.614672
3297.636065
3537.906772
2447.220553
2953.474758
5241.250257
5262.268209
5093.9801
3857.651119
4451.396559
5614.639767
5571.356102
4108.372867
4369.1269
3213.069354
3685.393588
5753.900465
1747.441069
1748.492793
1730.221935
1733.594165
1151.010809
1162.997374
804.6099766
1810.694704
1712.100417
1766.672377
1757.210618
1702.544927
1057.484479
1065.545706
1049.922894
1055.590672
1698.678449
1740.145128
1079.364265
1137.000347
1067.239824
1082.249574
1743.355281
5380.8304
828.6986745
834.4973643
1207.625485
5648.150958
8592.350472
8952.629819
8374.893656
8410.123656
6270.919095
1849.125757
6227.811345
4407.061203
4798.534114
1125.160659
1782.943631
1766.253187
6241.626155
6859.194964
6603.631427
5372.567087
5863.066177
7263.853818
6899.241655
4385.288927
6539.316498
5613.698061
2208.303009
1774.746528
1189.132996
31.76497246
31.77331866
31.86119823
31.77693945
31.79291556
31.87082138
31.79933551
31.82634566
31.887456
31.83660653
31.87327944
31.9112959
31.8849238
31.92009892
31.93630396
31.92736604
31.94719597
31.95345961
31.9497984
31.94631226
31.95376851
31.94181421
31.91547082
31.9378233
31.90525994
31.87194619
31.91375952
31.86137726
31.82953398
31.89108336
31.64855862
31.66640782
31.74527768
31.67458145
31.71049347
31.76919461
31.72675287
31.79024374
31.81100577
31.8145897
31.89622778
31.87016709
31.91894414
31.98252916
31.92262039
32.00244738
32.02789896
31.95402653
32.02685216
32.0103561
31.95125644
31.99862577
31.94848429
31.91668792
31.92878353
31.86380369
31.86328803
31.84207461
31.77976014
31.81304959
31.54200684
31.5796992
31.64226448
31.59847724
31.68007956
31.69681369
31.7153815
31.85787277
31.79347447
31.91641894
32.10765626
31.92334534
32.15828762
32.33268341
32.03961557
32.35755709
32.39543944
32.08169225
32.35729779
32.29006514
32.04810878
32.25102271
32.13279468
31.97037255
32.08821071
31.95140817
31.87330668
31.90786452
31.78967391
31.77454882
31.44979621
31.52447688
31.56235974
31.56105239
31.73004213
31.6832765
31.81369794
32.17570096
31.90487637
32.3315896
32.95099218
32.21250822
33.09697369
33.63106479
32.55969668
33.73536211
33.75914412
32.5574966
33.52044787
33.15363829
32.41706083
32.9976863
32.64313734
32.2003784
32.53012244
32.22620526
31.99570941
32.13550967
31.90856094
31.80574296
31.37956852
31.50832919
31.51706995
31.57573476
31.9244413
31.76253282
32.10553952
32.98654588
32.31502434
33.4373949
35.80776519
33.28643107
36.74593732
42.66726089
34.50394691
42.69648666
40.32957207
34.35431413
38.32064047
35.68605457
33.52317394
35.03372873
33.81413401
32.80748248
33.5165149
32.81876244
32.32795955
32.62885086
32.17887984
31.95620598
31.32821898
31.5292187
31.51020133
31.64465949
32.25789627
31.9920262
32.59843724
34.43326717
33.29090041
35.52704176
45.67704583
36.86980754
42.5999748
49.09107331
41.00408646
61.21883652
59.09053928
45.37217393
48.04376381
42.47117021
39.90080783
40.06612748
36.10867957
34.18360786
35.37177027
33.83294961
33.01123032
33.46647679
32.64587582
32.2711741
31.28816088
31.57418537
31.53477718
31.74215051
32.63591987
32.34237572
33.13853329
35.91073673
34.83285623
36.6570832
38.74199223
37.97364602
54.72370182
62.10717607
59.199173
91.38361173
65.59111807
55.05331427
48.66863028
39.62398619
36.77348549
38.15778127
35.31797612
34.14128214
34.6861392
33.30356327
32.78826202
31.25850929
31.63652814
31.58910452
31.85548732
32.99098112
32.72937664
33.61585577
36.93925112
36.20305859
38.3033148
40.98568722
40.5351461
63.69075121
75.52989677
74.24087805
144.9690758
90.58334761
81.58993848
57.27416406
43.50788866
40.43467954
41.28320811
37.00622488
35.65452214
36.07571132
34.07138124
33.48378929
31.23781561
31.70830497
31.65420276
31.97436676
33.31296174
33.07459863
34.03059503
37.74651191
37.14485613
39.41655598
42.47981846
42.10262652
71.38618179
94.21287318
91.42977394
163.5513989
104.3556666
100.7128739
62.93787206
46.77192588
44.21277446
43.99698141
38.65091686
37.35035747
37.44028096
34.83964409
34.26076179
31.22479016
31.78654633
31.7294566
32.09701327
33.62147288
33.39248968
34.42327602
38.55514669
37.9303865
40.49219412
44.12820973
43.60075363
80.89916126
110.917183
107.3905294
157.9611641
106.8856969