/*--------------------------------*- C++ -*----------------------------------*\
| =========                 |                                                 |
| \\      /  F ield         | OpenFOAM: The Open Source CFD Toolbox           |
|  \\    /   O peration     | Version:  v1912                                 |
|   \\  /    A nd           | Website:  www.openfoam.com                      |
|    \\/     M anipulation  |                                                 |
\*---------------------------------------------------------------------------*/
FoamFile
{
    version     2.0;
    format      ascii;
    class       pointVectorField;
    location    "1.2";
    object      pointDisplacement;
}
// * * * * * * * * * * * * * * * * * * * * * * * * * * * * * * * * * * * * * //

dimensions      [0 1 0 0 0 0 0];


internalField   nonuniform List<vector> 
26316
(
(0 0 0)
(0 0 0)
(0 0 0)
(0 0 0)
(0 0 0)
(0 0 0)
(0 0 0)
(0 0 0)
(0 0 0)
(0 0 0)
(0 0 0)
(0 0 0)
(0 0 0)
(0 0 0)
(0 0 0)
(0 0 0)
(0 0 0)
(0 0 0)
(0 0 0)
(0 0 0)
(0 0 0)
(0 0 0)
(0 0 0)
(0 0 0)
(0 0 0)
(0 0 0)
(0 0 0)
(0 0 0)
(0 0 0)
(0 0 0)
(0 0 0)
(0 0 0)
(0 0 0)
(0 0 0)
(0 0 0)
(0 0 0)
(0 0 0)
(0 0 0)
(0 0 0)
(0 0 0)
(0 0 0)
(0 0 0)
(0 0 0)
(0 0 0)
(0 0 0)
(0 0 0)
(0 0 0)
(0 0 0)
(0 0 0)
(0 0 0)
(0 0 0)
(0 0 0)
(0 0 0)
(0 0 0)
(0 0 0)
(0 0 0)
(0 0 0)
(0 0 0)
(0 0 0)
(0 0 0)
(0 0 0)
(0 0 0)
(0 0 0)
(0 0 0)
(0 0 0)
(0 0 0)
(0 0 0)
(0 0 0)
(0 0 0)
(0 0 0)
(0 0 0)
(0 0 0)
(0 0 0)
(0 0 0)
(0 0 0)
(0 0 0)
(0 0 0)
(0 0 0)
(0 0 0)
(0 0 0)
(0 0 0)
(0 0 0)
(0 0 0)
(0 0 0)
(0 0 0)
(0 0 0)
(0 0 0)
(0 0 0)
(0 0 0)
(0 0 0)
(0 0 0)
(0 0 0)
(0 0 0)
(0 0 0)
(0 0 0)
(0 0 0)
(0 0 0)
(0 0 0)
(0 0 0)
(0 0 0)
(0 0 0)
(0 0 0)
(0 0 0)
(0 0 0)
(0 0 0)
(0 0 0)
(0 0 0)
(0 0 0)
(0 0 0)
(0 0 0)
(0 0 0)
(0 0 0)
(0 0 0)
(0 0 0)
(0 0 0)
(0 0 0)
(0 0 0)
(0 0 0)
(0 0 0)
(-3.662755046e-07 1.365075606e-05 2.775557562e-17)
(0 0 0)
(0 0 0)
(-2.024402779e-07 0.0001529099594 3.330669074e-16)
(9.328394707e-07 0.0001299827776 2.91433544e-16)
(0 0 0)
(0 0 0)
(0 0 0)
(0 0 0)
(0 0 0)
(0 0 0)
(0 0 0)
(0 0 0)
(0 0 0)
(0 0 0)
(0 0 0)
(0 0 0)
(0 0 0)
(0 0 0)
(0 0 0)
(0 0 0)
(0 0 0)
(0 0 0)
(0 0 0)
(0 0 0)
(0 0 0)
(0 0 0)
(0 0 0)
(0 0 0)
(0 0 0)
(0 0 0)
(0 0 0)
(0 0 0)
(0 0 0)
(0 0 0)
(0 0 0)
(0 0 0)
(0 0 0)
(0 0 0)
(0 0 0)
(0 0 0)
(0 0 0)
(0 0 0)
(0 0 0)
(0 0 0)
(0 0 0)
(0 0 0)
(0 0 0)
(0 0 0)
(0 0 0)
(0 0 0)
(0 0 0)
(0 0 0)
(0 0 0)
(0 0 0)
(0 0 0)
(0 0 0)
(0 0 0)
(0 0 0)
(0 0 0)
(0 0 0)
(0 0 0)
(0 0 0)
(0 0 0)
(0 0 0)
(0 0 0)
(-2.281892957e-05 0.0002137595533 4.857225733e-16)
(-0.0001313286821 0.001340816911 3.080868893e-15)
(-1.717205098e-06 1.767174073e-05 4.163336342e-17)
(-0.0002493862175 0.00351377247 8.007483565e-15)
(-0.0006194105116 0.008667982438 1.99146255e-14)
(-0.0007351974849 0.01174071658 2.69784195e-14)
(-0.0003427808738 0.005508733156 1.255939797e-14)
(-0.0004176252278 0.01160788167 2.645106356e-14)
(-0.0007325456904 0.02028385113 4.660161146e-14)
(-0.000611755632 0.02241320417 5.150047055e-14)
(-0.000359813858 0.01321005128 3.011479954e-14)
(-1.650278555e-05 0.0154502625 3.522182546e-14)
(-2.278078974e-05 0.02533722373 5.821731985e-14)
(0.0001969455228 0.0250108399 5.746791931e-14)
(0.0001160364764 0.01519736308 3.463895837e-14)
(0.0003925198266 0.01164997045 2.654820808e-14)
(0.0006941959293 0.02034180786 4.675426712e-14)
(0.000761731791 0.01777351292 4.084232952e-14)
(0.0004131487589 0.009752320121 2.223221607e-14)
(0.0002432899308 0.00355844635 8.10462808e-15)
(0.0006034627129 0.008742549345 2.008115896e-14)
(0.0004541401583 0.005841043072 1.341982081e-14)
(0.0001421528955 0.001845072089 4.204969706e-15)
(0 0 0)
(2.393747951e-05 0.0002302042742 5.273559367e-16)
(0 0 0)
(0 0 0)
(0 0 0)
(0 0 0)
(0 0 0)
(0 0 0)
(0 0 0)
(0 0 0)
(0 0 0)
(0 0 0)
(0 0 0)
(0 0 0)
(0 0 0)
(0 0 0)
(0 0 0)
(0 0 0)
(0 0 0)
(0 0 0)
(0 0 0)
(0 0 0)
(0 0 0)
(0 0 0)
(0 0 0)
(0 0 0)
(0 0 0)
(0 0 0)
(0 0 0)
(0 0 0)
(0 0 0)
(0 0 0)
(0 0 0)
(0 0 0)
(0 0 0)
(0 0 0)
(0 0 0)
(0 0 0)
(0 0 0)
(0 0 0)
(0 0 0)
(0 0 0)
(0 0 0)
(0 0 0)
(0 0 0)
(0 0 0)
(0 0 0)
(0 0 0)
(-6.372995798e-05 0.0004344168721 1.026956298e-15)
(-0.0003481437396 0.002530442561 6.022959909e-15)
(-8.246617058e-05 0.0006043376802 1.415534356e-15)
(-0.001176713427 0.01077040014 2.536859611e-14)
(-0.001882029746 0.01709785262 4.062028491e-14)
(-0.002401167278 0.02380350587 5.653810753e-14)
(-0.001617828674 0.01615378077 3.805289417e-14)
(-0.002516003414 0.03455474107 8.137934771e-14)
(-0.003328566034 0.04543444564 1.07913678e-13)
(-0.00334855491 0.05226688009 1.241229342e-13)
(-0.002585678661 0.04058918124 9.559020242e-14)
(-0.002023965225 0.05554307896 1.308259057e-13)
(-0.002515335118 0.06880536801 1.634109514e-13)
(-0.001989213378 0.07254978003 1.723204912e-13)
(-0.001615202841 0.05899291911 1.389444115e-13)
(-1.89882366e-05 0.06358651659 1.497968416e-13)
(-8.279894752e-06 0.07749238253 1.840888553e-13)
(0.0006895780162 0.07695151218 1.828120988e-13)
(0.0005484073976 0.06308222817 1.486033518e-13)
(0.001978978993 0.05563585406 1.310895836e-13)
(0.002484705972 0.06890168617 1.637162628e-13)
(0.002894020341 0.06422315721 1.526140325e-13)
(0.002285273232 0.05135689522 1.210143097e-13)
(0.002472212791 0.03471539721 8.179568134e-14)
(0.003283602764 0.04561527068 1.084132784e-13)
(0.003111308528 0.03843947402 9.135747714e-14)
(0.002280921674 0.02847409065 6.709910405e-14)
(0.001164794365 0.01090678324 2.570166302e-14)
(0.001862384143 0.01727507214 4.105049634e-14)
(0.001316881391 0.01127661343 2.679800826e-14)
(0.0007312797956 0.006319764378 1.489086632e-14)
(0 0 0)
(6.326690351e-05 0.0004391857069 1.040834086e-15)
(0 0 0)
(0 0 0)
(0 0 0)
(0 0 0)
(0 0 0)
(0 0 0)
(0 0 0)
(0 0 0)
(0 0 0)
(0 0 0)
(0 0 0)
(0 0 0)
(0 0 0)
(0 0 0)
(0 0 0)
(0 0 0)
(0 0 0)
(0 0 0)
(0 0 0)
(0 0 0)
(0 0 0)
(0 0 0)
(0 0 0)
(0 0 0)
(0 0 0)
(0 0 0)
(0 0 0)
(0 0 0)
(0 0 0)
(0 0 0)
(0 0 0)
(0 0 0)
(0 0 0)
(0 0 0)
(0 0 0)
(0 0 0)
(0 0 0)
(0 0 0)
(0 0 0)
(-2.741878939e-05 0.0001516577995 3.747002708e-16)
(0 0 0)
(-0.001167103971 0.007756380936 1.890154699e-14)
(-0.001734668625 0.01141248466 2.806088695e-14)
(-0.002714661956 0.01907188521 4.6893045e-14)
(-0.001993244601 0.01413557179 3.445854713e-14)
(-0.004556124597 0.04046364366 9.860168237e-14)
(-0.005529342446 0.04872164959 1.197653088e-13)
(-0.006183561532 0.05950188164 1.462441279e-13)
(-0.005201973057 0.05044491753 1.229155666e-13)
(-0.005922429932 0.07925078157 1.93067784e-13)
(-0.006751881334 0.08968362104 2.203792704e-13)
(-0.006453711247 0.0981256405 2.411404409e-13)
(-0.005717066174 0.08756213285 2.133154764e-13)
(-0.003941141595 0.106293522 2.589872761e-13)
(-0.004351668332 0.1165696893 2.865069293e-13)
(-0.003355715639 0.120333256 2.957911693e-13)
(-0.003055020707 0.1102545081 2.686600942e-13)
(3.468318084e-05 0.1153010179 2.810529587e-13)
(4.470006207e-05 0.125027393 3.074207555e-13)
(0.001213529553 0.1245205987 3.06213388e-13)
(0.001102359413 0.1147535265 2.797484466e-13)
(0.003981305927 0.106365464 2.593758541e-13)
(0.004411803715 0.1166204737 2.868955074e-13)
(0.005268322052 0.1116918613 2.747940764e-13)
(0.004726471857 0.1012682461 2.469691118e-13)
(0.005902942059 0.07943868935 1.937616734e-13)
(0.006745464236 0.08979821348 2.209760153e-13)
(0.006786513702 0.08041933502 1.978972541e-13)
(0.005873655624 0.07035342022 1.71612724e-13)
(0.004499539671 0.04043452172 9.862943795e-14)
(0.005605604939 0.04970459363 1.223326995e-13)
(0.004835187219 0.03957049423 9.740819262e-14)
(0.003833568764 0.03173955464 7.742417818e-14)
(0.001330318569 0.008955249691 2.184363801e-14)
(0.001987898294 0.01325538181 3.262667914e-14)
(0.00112201728 0.007045639973 1.733335697e-14)
(0.0006412495802 0.004064334084 9.908740495e-15)
(0 0 0)
(0 0 0)
(0 0 0)
(0 0 0)
(0 0 0)
(0 0 0)
(0 0 0)
(0 0 0)
(0 0 0)
(0 0 0)
(0 0 0)
(0 0 0)
(0 0 0)
(0 0 0)
(0 0 0)
(0 0 0)
(0 0 0)
(0 0 0)
(0 0 0)
(0 0 0)
(0 0 0)
(0 0 0)
(0 0 0)
(0 0 0)
(0 0 0)
(0 0 0)
(0 0 0)
(0 0 0)
(0 0 0)
(0 0 0)
(0 0 0)
(0 0 0)
(0 0 0)
(0 0 0)
(0 0 0)
(-0.000126728021 0.0006483320855 1.637578961e-15)
(-0.0002882001538 0.001460911512 3.719247132e-15)
(-0.001023688956 0.005460251734 1.393329896e-14)
(-0.0006882119755 0.003704518519 9.36750677e-15)
(-0.004046109755 0.02585138142 6.532274721e-14)
(-0.004786751964 0.03030901915 7.727152251e-14)
(-0.006171890144 0.04168802268 1.06276099e-13)
(-0.005350687684 0.03646861054 9.213463326e-14)
(-0.008456415826 0.07215500822 1.821737206e-13)
(-0.009338985977 0.07888882412 2.010336342e-13)
(-0.00984801159 0.0907800536 2.312872116e-13)
(-0.00900212413 0.08389276494 2.117750419e-13)
(-0.008916982748 0.115038671 2.902955654e-13)
(-0.009466568855 0.1205877082 3.070738108e-13)
(-0.008748186044 0.1276472675 3.25045546e-13)
(-0.008269913213 0.1221342536 3.081979116e-13)
(-0.005238057975 0.1364175926 3.443079155e-13)
(-0.005410010854 0.1389309944 3.538419557e-13)
(-0.00408128446 0.1402402762 3.572142582e-13)
(-0.00397923351 0.1386086792 3.498867862e-13)
(3.554699005e-05 0.1407558391 3.554379013e-13)
(1.862240433e-05 0.1409311367 3.591155151e-13)
(0.001391836862 0.1408908378 3.59060004e-13)
(0.001391493207 0.1405433302 3.549521788e-13)
(0.005337563885 0.1365546485 3.450434383e-13)
(0.005486518173 0.1389618737 3.543276783e-13)
(0.00673312778 0.136647017 3.484851296e-13)
(0.006505802837 0.1333160161 3.369110546e-13)
(0.008960531963 0.1150646596 2.909200658e-13)
(0.009529051674 0.1207400526 3.081424005e-13)
(0.01000263619 0.1127333381 2.877975636e-13)
(0.009310455211 0.1061304127 2.68410294e-13)
(0.00862391891 0.07406645422 1.873501354e-13)
(0.009503058502 0.08083163696 2.063627047e-13)
(0.008710417622 0.06851284991 1.749017597e-13)
(0.007813569679 0.06205593964 1.569716579e-13)
(0.004261821243 0.02761369274 6.983302825e-14)
(0.00502299021 0.03223400126 8.225364834e-14)
(0.003622488203 0.0218995104 5.587197371e-14)
(0.002968193873 0.01811703759 4.579669977e-14)
(0.0001960385505 0.001018325789 2.581268532e-15)
(0.0003367750289 0.001732693105 4.413136523e-15)
(8.549720526e-06 4.189311663e-05 1.110223025e-16)
(0 0 0)
(0 0 0)
(0 0 0)
(0 0 0)
(0 0 0)
(0 0 0)
(0 0 0)
(0 0 0)
(0 0 0)
(0 0 0)
(0 0 0)
(0 0 0)
(0 0 0)
(0 0 0)
(0 0 0)
(0 0 0)
(0 0 0)
(0 0 0)
(0 0 0)
(0 0 0)
(0 0 0)
(0 0 0)
(0 0 0)
(0 0 0)
(0 0 0)
(0 0 0)
(0 0 0)
(0 0 0)
(0 0 0)
(-1.206198334e-05 5.306188518e-05 1.387778781e-16)
(-3.291382077e-07 1.462086495e-06 0)
(0 0 0)
(-0.0009048054594 0.004459424463 1.169897512e-14)
(-0.001142017509 0.005575217549 1.476596623e-14)
(-0.002369428562 0.01217231519 3.222422329e-14)
(-0.002021511414 0.01048428309 2.749189765e-14)
(-0.006567721826 0.0404329111 1.059707877e-13)
(-0.007148467809 0.04358594983 1.153244167e-13)
(-0.008684965115 0.05647721512 1.493943858e-13)
(-0.008229334033 0.05404331616 1.416228246e-13)
(-0.01138708395 0.09343444236 2.447486658e-13)
(-0.01185421211 0.09628161711 2.545741395e-13)
(-0.0121715248 0.1077743151 2.849664948e-13)
(-0.01175018641 0.1051266844 2.753630657e-13)
(-0.01061794715 0.1301918074 3.41005002e-13)
(-0.01083285364 0.1312853919 3.47152862e-13)
(-0.009751755466 0.1346836206 3.561595463e-13)
(-0.009623813595 0.1346354759 3.526345882e-13)
(-0.005629721095 0.137130505 0)
(-0.005704348529 0.1357996164 0)
(-0.005012407915 0.1358011742 0)
(-0.00428283795 0.1358322599 0)
(-0.004239771252 0.1364909861 0)
(-0.004223825275 0.1371341295 0)
(-4.020509481e-05 0.1370975767 0)
(-4.982782089e-05 0.1364579615 0)
(0.0006509033179 0.13644798 0)
(0.0006567301092 0.1370875922 0)
(0.005593715141 0.1369603861 0)
(0.005604745118 0.1363031555 0)
(0.005620591896 0.1356356728 0)
(0.006317350998 0.1356050912 0)
(0.007004181718 0.1355873234 0)
(0.006993696927 0.1369069708 0)
(0.01062980595 0.1307990926 3.433642259e-13)
(0.01080039512 0.1317726852 3.492206524e-13)
(0.01163817529 0.1264733254 3.352040867e-13)
(0.01138138888 0.1247767012 3.275851812e-13)
(0.01154321504 0.09542764744 2.505773367e-13)
(0.01196165685 0.09793018399 2.596256543e-13)
(0.01136482246 0.08600034732 2.279981759e-13)
(0.0108475242 0.08289563262 2.17659224e-13)
(0.007014287271 0.04370281158 1.147276718e-13)
(0.007671422575 0.04733592496 1.254552018e-13)
(0.00604717517 0.03515315277 9.314771177e-14)
(0.005446366445 0.03196888033 8.390510509e-14)
(0.00121375735 0.006067729182 1.591782262e-14)
(0.001517122177 0.00751144169 1.990074772e-14)
(0.0005435911896 0.002564041649 6.786238238e-15)
(0.0003698579121 0.001761427973 4.62130334e-15)
(0 0 0)
(0 0 0)
(0 0 0)
(0 0 0)
(0 0 0)
(0 0 0)
(0 0 0)
(0 0 0)
(0 0 0)
(0 0 0)
(0 0 0)
(0 0 0)
(0 0 0)
(0 0 0)
(0 0 0)
(0 0 0)
(0 0 0)
(0 0 0)
(0 0 0)
(0 0 0)
(0 0 0)
(0 0 0)
(0 0 0)
(0 0 0)
(0 0 0)
(0 0 0)
(0 0 0)
(0 0 0)
(-0.0001086850271 0.0004595479281 1.276756478e-15)
(-6.193645142e-05 0.0002645190323 7.21644966e-16)
(-5.066941549e-05 0.0002185460468 5.967448757e-16)
(-0.00164089 0.007777607838 2.119138198e-14)
(-0.001701743589 0.007985896774 2.198241589e-14)
(-0.003151045388 0.0155585985 4.281297539e-14)
(-0.003067924265 0.01530087444 4.168887457e-14)
(-0.008256031337 0.04884206671 1.330185961e-13)
(-0.008386736975 0.04911077179 1.350725087e-13)
(-0.009987047776 0.06234831953 1.714461906e-13)
(-0.009848284832 0.06211671685 1.691424778e-13)
(-0.01279392734 0.1006415791 2.739475313e-13)
(-0.01292118058 0.1005677215 2.764594109e-13)
(-0.01309505564 0.1110224422 3.051864317e-13)
(-0.01298207715 0.1112635113 3.028410855e-13)
(-0.01115429289 0.1305096862 3.552852457e-13)
(-0.01120165308 0.1295413125 3.561595463e-13)
(-0.009928273437 0.1306041005 0)
(-0.009906932717 0.1319044117 3.591155151e-13)
(-0.00580946779 0.1318599652 0)
(-0.005823179921 0.1312000361 0)
(-0.005140668133 0.1311937766 0)
(-0.005127031436 0.131852667 0)
(0.005607223134 0.1317086798 0)
(0.005601330011 0.1310550369 0)
(0.006283562567 0.1310421256 0)
(0.006290159641 0.1316947903 0)
(0.01101844 0.130951113 3.573669138e-13)
(0.01102676126 0.1299765932 3.582273367e-13)
(0.01213602864 0.1273157645 3.509414981e-13)
(0.01208434877 0.1278488221 3.489430966e-13)
(0.013130734 0.1045717365 2.854660952e-13)
(0.01329022471 0.1048939514 2.891853423e-13)
(0.01283730061 0.09360889945 2.580713421e-13)
(0.01265408555 0.09312172568 2.541855615e-13)
(0.009006973632 0.054003209 1.473543509e-13)
(0.009210853905 0.05470116963 1.507405312e-13)
(0.007481480935 0.04184339763 1.152966611e-13)
(0.007288734471 0.04116100399 1.122990589e-13)
(0.002201205647 0.01058348098 2.885192085e-14)
(0.002485700074 0.01183309903 3.258504577e-14)
(0.001185604714 0.00537695493 1.480759959e-14)
(0.0009760098368 0.004470657034 1.21846977e-14)
(0 0 0)
(0 0 0)
(0 0 0)
(0 0 0)
(0 0 0)
(0 0 0)
(0 0 0)
(0 0 0)
(0 0 0)
(0 0 0)
(0 0 0)
(0 0 0)
(0 0 0)
(0 0 0)
(0 0 0)
(0 0 0)
(0 0 0)
(0 0 0)
(0 0 0)
(0 0 0)
(0 0 0)
(0 0 0)
(0 0 0)
(0 0 0)
(0 0 0)
(0 0 0)
(0 0 0)
(0 0 0)
(-0.0001784123394 0.0007241761685 2.095545959e-15)
(-0.0001611422067 0.0006608883492 1.887379142e-15)
(-0.0001413676132 0.0005857674862 1.665334537e-15)
(-0.002021890401 0.009204378523 2.611799665e-14)
(-0.002090677152 0.009420468474 2.700617507e-14)
(-0.003645927069 0.01728377835 4.952982469e-14)
(-0.003559945336 0.01705070334 4.836409051e-14)
(-0.008906925228 0.05056726749 1.433297925e-13)
(-0.009013288694 0.05063630814 1.450090048e-13)
(-0.01059782609 0.06344705542 1.816602424e-13)
(-0.01049421976 0.06349721553 1.799532745e-13)
(-0.01328635146 0.1000951413 2.835648383e-13)
(-0.01336218499 0.09956209659 2.849664948e-13)
(-0.01345587626 0.1091360751 3.12361248e-13)
(-0.01339302659 0.109849436 3.111955138e-13)
(-0.01130004911 0.1261748857 3.575334473e-13)
(-0.01132441209 0.1249657293 3.577554919e-13)
(-0.01000233667 0.1254248989 0)
(-0.009984677345 0.1267164889 0)
(-0.005893897788 0.1266562949 0)
(-0.005903123325 0.1260100567 0)
(-0.00522237303 0.1260001349 0)
(-0.005213057688 0.1266463717 0)
(0.005544636699 0.126494094 0)
(0.005535054899 0.1258440586 0)
(0.006215675597 0.1258334799 0)
(0.006225372206 0.1264831843 0)
(0.01099477017 0.1263895403 3.590738817e-13)
(0.01097510366 0.1251075917 3.591155151e-13)
(0.01219789469 0.1236516596 3.549938121e-13)
(0.01219988688 0.1247423815 3.544387006e-13)
(0.0136991661 0.1051986497 2.989691827e-13)
(0.01376804558 0.1047577661 3.008010507e-13)
(0.01345011418 0.094484955 2.712968739e-13)
(0.01335668974 0.0947135352 2.691735723e-13)
(0.009942257503 0.05734896162 1.629113511e-13)
(0.01008738614 0.05761679827 1.653677195e-13)
(0.008373165588 0.04502462308 1.292022045e-13)
(0.008222631662 0.04465631572 1.268429806e-13)
(0.002850493484 0.01317132873 3.738676035e-14)
(0.002966441169 0.01356872802 3.891331701e-14)
(0.001529804705 0.006665414308 1.910971381e-14)
(0.001442188148 0.00634798232 1.801336857e-14)
(0 0 0)
(0 0 0)
(0 0 0)
(0 0 0)
(0 0 0)
(0 0 0)
(0 0 0)
(0 0 0)
(0 0 0)
(0 0 0)
(0 0 0)
(0 0 0)
(0 0 0)
(0 0 0)
(0 0 0)
(0 0 0)
(0 0 0)
(0 0 0)
(0 0 0)
(0 0 0)
(0 0 0)
(0 0 0)
(0 0 0)
(0 0 0)
(0 0 0)
(0 0 0)
(0 0 0)
(0 0 0)
(-0.0002631810997 0.00102383577 3.094746681e-15)
(-0.0002372757151 0.0009330544989 2.789435349e-15)
(-0.00021421067 0.0008514010647 2.525757381e-15)
(-0.002261884829 0.009877298238 2.921274334e-14)
(-0.002331235133 0.01007205481 3.010092176e-14)
(-0.003943577724 0.01792240903 5.355438315e-14)
(-0.003858332791 0.01772393415 5.240252676e-14)
(-0.009274393446 0.05045513216 1.490751966e-13)
(-0.009377537267 0.05046109211 1.5068502e-13)
(-0.01095266673 0.06277966176 1.874334021e-13)
(-0.01085258217 0.06289704464 1.857958232e-13)
(-0.01355157214 0.09762918987 2.883110417e-13)
(-0.0136239557 0.09703317728 2.896155538e-13)
(-0.013674083 0.1059444718 3.162053952e-13)
(-0.01361444805 0.1067137797 3.151368055e-13)
(-0.01139031619 0.1212716891 3.582273367e-13)
(-0.01141218148 0.1200397545 3.583799923e-13)
(-0.01007083561 0.1202693755 0)
(-0.01005391587 0.1215575633 0)
(-0.005965798716 0.1214975289 0)
(-0.005974597457 0.1208537994 0)
(-0.005294772899 0.1208440411 0)
(-0.00529031321 0.1211659349 0)
(-0.005285857555 0.1214875593 0)
(0.00546058376 0.1212996101 0)
(0.005449063014 0.1206520589 0)
(0.006128921541 0.1206425695 0)
(0.006140528954 0.1212899099 0)
(0.01090634944 0.1212110031 3.590877595e-13)
(0.0108806524 0.1198980582 3.590183706e-13)
(0.012079642 0.1182549129 3.541611449e-13)
(0.0121188199 0.119687619 3.546329896e-13)
(0.01366305259 0.1010880671 2.995798054e-13)
(0.01359675745 0.09964850283 2.984834602e-13)
(0.01326867612 0.08971900372 2.687294831e-13)
(0.01333910389 0.09107157099 2.698813395e-13)
(0.009970138138 0.05527241552 1.637301406e-13)
(0.009901791472 0.05434061628 1.626893065e-13)
(0.008195859088 0.04232454125 1.266903249e-13)
(0.008259188127 0.04309063776 1.276201367e-13)
(0.002886364471 0.01280065281 3.788636072e-14)
(0.002848677904 0.01250178777 3.740063814e-14)
(0.001443077581 0.006031488168 1.804112415e-14)
(0.001469718267 0.006207863672 1.837419106e-14)
(0 0 0)
(0 0 0)
(0 0 0)
(0 0 0)
(0 0 0)
(0 0 0)
(0 0 0)
(0 0 0)
(0 0 0)
(0 0 0)
(0 0 0)
(0 0 0)
(0 0 0)
(0 0 0)
(0 0 0)
(0 0 0)
(0 0 0)
(0 0 0)
(0 0 0)
(0 0 0)
(0 0 0)
(0 0 0)
(0 0 0)
(0 0 0)
(0 0 0)
(0 0 0)
(0 0 0)
(0 0 0)
(-0.0003768932989 0.001402714183 4.440892099e-15)
(-0.0003460900276 0.001302647066 4.066191828e-15)
(-0.0003162967676 0.001203829632 3.719247132e-15)
(-0.002548067465 0.01065397117 3.28903571e-14)
(-0.002624458716 0.0108514165 3.388955783e-14)
(-0.004300145433 0.01869928869 5.838385331e-14)
(-0.004207847673 0.0185044584 5.712097462e-14)
(-0.009693112756 0.05043606401 1.556116347e-13)
(-0.009801913657 0.05042111768 1.573047248e-13)
(-0.01136284784 0.06223473904 1.941224959e-13)
(-0.01125795059 0.06237757603 1.924294057e-13)
(-0.01384259265 0.09518943906 2.935429677e-13)
(-0.01391681566 0.09456217699 2.948752353e-13)
(-0.01391360217 0.1027825119 3.204936316e-13)
(-0.01385320347 0.1035827024 3.19425042e-13)
(-0.01147464059 0.1163073673 3.587685704e-13)
(-0.01149436595 0.1150521787 3.588795927e-13)
(-0.01013718239 0.1151136103 0)
(-0.0101208202 0.116402555 0)
(-0.006035214877 0.1163427378 0)
(-0.00604363343 0.1156984038 0)
(-0.005364976775 0.115688633 0)
(-0.005360692661 0.1160107989 0)
(-0.00535637951 0.1163329045 0)
(0.005363469961 0.1161266999 0)
(0.005350106705 0.1154800745 0)
(0.006029316975 0.1154712835 0)
(0.006042827216 0.1161177271 0)
(0.01077978111 0.1157526334 3.581857033e-13)
(0.01073217289 0.1142334328 3.574640584e-13)
(0.01180334586 0.1114699029 3.488598299e-13)
(0.01189640049 0.1133785616 3.508859869e-13)
(0.01312764254 0.09345465851 2.892686091e-13)
(0.01285604322 0.09061667021 2.836342272e-13)
(0.01248634954 0.08113658415 2.539357613e-13)
(0.0127096691 0.08342711396 2.5821012e-13)
(0.009176484062 0.04881948712 1.510180869e-13)
(0.008945752772 0.04709033639 1.472988398e-13)
(0.007252708182 0.03590834188 1.122990589e-13)
(0.007468090034 0.03737257738 1.156019724e-13)
(0.002328462157 0.009895785796 3.058664433e-14)
(0.002203480656 0.009262784081 2.894906537e-14)
(0.000979608301 0.003921075578 1.225408663e-14)
(0.001063443273 0.004303678581 1.329492072e-14)
(0 0 0)
(0 0 0)
(0 0 0)
(0 0 0)
(0 0 0)
(0 0 0)
(0 0 0)
(0 0 0)
(0 0 0)
(0 0 0)
(0 0 0)
(0 0 0)
(0 0 0)
(0 0 0)
(0 0 0)
(0 0 0)
(0 0 0)
(0 0 0)
(0 0 0)
(0 0 0)
(0 0 0)
(0 0 0)
(0 0 0)
(0 0 0)
(0 0 0)
(0 0 0)
(0 0 0)
(0 0 0)
(-0.0004763420857 0.001692532643 5.606626274e-15)
(-0.0004926163625 0.001771119318 5.787037516e-15)
(-0.0004496889582 0.001635746055 5.287437155e-15)
(-0.002874169081 0.01148293692 3.71092046e-14)
(-0.002971808771 0.01173462618 3.83582055e-14)
(-0.004714956814 0.01957638364 6.397660179e-14)
(-0.004599115736 0.01932166768 6.242228956e-14)
(-0.01014896349 0.05040046047 1.627031843e-13)
(-0.01028108092 0.05044586258 1.647432191e-13)
(-0.01182234991 0.06173674381 2.015887457e-13)
(-0.01169613607 0.06182390515 1.995348331e-13)
(-0.01414895982 0.09267522359 2.990108161e-13)
(-0.01423478526 0.09207582908 3.005512506e-13)
(-0.01416909892 0.0995850304 3.250733016e-13)
(-0.01410082863 0.1003693407 3.238381785e-13)
(-0.01155021323 0.1112543692 3.590738817e-13)
(-0.0115677916 0.1099763958 3.591155151e-13)
(-0.01020162041 0.1099593435 0)
(-0.01018553213 0.1112479929 0)
(-0.00610060813 0.111188665 0)
(-0.006108457026 0.1105443823 0)
(-0.005431085324 0.1105347805 0)
(-0.005427099214 0.1108570407 0)
(-0.005423086754 0.111179061 0)
(0.005251782516 0.1109663138 0)
(0.005236565189 0.1103218421 0)
(0.005915544047 0.1103135935 0)
(0.005930970917 0.1109580621 0)
(0.01054165688 0.1092472774 3.537725668e-13)
(0.01045250795 0.1073466584 3.517047764e-13)
(0.01133648096 0.1031159125 3.378824998e-13)
(0.01148078733 0.1054318451 3.41462969e-13)
(0.01208905632 0.08263722102 2.676470157e-13)
(0.01188636816 0.08040734646 2.634836793e-13)
(0.01126112933 0.07016057876 2.29885555e-13)
(0.01161739498 0.07316261255 2.369354712e-13)
(0.007905369439 0.04027576878 1.303679387e-13)
(0.007409730173 0.03732884018 1.222494328e-13)
(0.005742462348 0.02720034841 8.905376436e-14)
(0.006239543455 0.02989060098 9.672818102e-14)
(0.00156329896 0.006354567168 2.055300374e-14)
(0.001365275097 0.005486382089 1.794397964e-14)
(0.0004433765446 0.001696369281 5.551115123e-15)
(0.0005580680879 0.002159826127 6.980527267e-15)
(0 0 0)
(0 0 0)
(0 0 0)
(0 0 0)
(0 0 0)
(0 0 0)
(0 0 0)
(0 0 0)
(0 0 0)
(0 0 0)
(0 0 0)
(0 0 0)
(0 0 0)
(0 0 0)
(0 0 0)
(0 0 0)
(0 0 0)
(0 0 0)
(0 0 0)
(0 0 0)
(0 0 0)
(0 0 0)
(0 0 0)
(0 0 0)
(0 0 0)
(0 0 0)
(0 0 0)
(0 0 0)
(-0.0008468464227 0.002865617292 9.950373858e-15)
(-0.0007720695918 0.002645418261 9.076073226e-15)
(-0.000660772233 0.002292024297 7.771561172e-15)
(-0.003285563259 0.01251400816 4.239664175e-14)
(-0.003529835661 0.01327917554 4.554689959e-14)
(-0.005351464042 0.02116356644 7.256695245e-14)
(-0.005053059159 0.0202336604 6.854239398e-14)
(-0.01072754188 0.05072214897 1.71682113e-13)
(-0.01092441779 0.05100121452 1.747491041e-13)
(-0.01240731486 0.06161921201 2.110811526e-13)
(-0.01224623348 0.06160316957 2.084721284e-13)
(-0.01451608183 0.09034185905 3.056305209e-13)
(-0.01456152052 0.08943960015 3.062827769e-13)
(-0.01446758454 0.0964968845 3.304578833e-13)
(-0.01438979923 0.09726806823 3.290562267e-13)
(-0.01161894771 0.1061141309 0)
(-0.01163680036 0.1048256277 0)
(-0.01026859259 0.1048058034 0)
(-0.01025978937 0.1054498322 0)
(-0.01025116486 0.1060939237 0)
(-0.006161957949 0.1060346814 0)
(-0.006165786319 0.1057129578 0)
(-0.005827008872 0.1057082753 0)
(-0.005823211781 0.1060299095 0)
(-0.0002855756268 0.105870297 0)
(-0.0002917111479 0.1057099026 0)
(-0.0002967682685 0.1055494621 0)
(3.497276631e-05 0.1055482684 0)
(4.667370709e-05 0.1058688561 0)
(0.005115132272 0.1058184877 0)
(0.005094986108 0.1051767844 0)
(0.00507457322 0.1045352648 0)
(0.006436535472 0.1045182586 0)
(0.006475637131 0.1058021321 0)
(0.00579563825 0.1058102462 0)
(0.01011393706 0.1010224995 3.430589146e-13)
(0.009943683406 0.09837653135 3.381739333e-13)
(0.01057719932 0.09248044133 3.179401187e-13)
(0.01085410987 0.09586177929 3.25572902e-13)
(0.01088092584 0.07124832632 2.419731082e-13)
(0.01049040462 0.06792730089 2.335215354e-13)
(0.009716605411 0.05790546762 1.990491105e-13)
(0.01012552469 0.06103183372 2.072508831e-13)
(0.00614105005 0.02988942598 1.014466289e-13)
(0.005771345952 0.02776119648 9.536815782e-14)
(0.004219094449 0.01907491096 6.551703624e-14)
(0.004544520349 0.02079125225 7.054079543e-14)
(0.0006455455115 0.002504406108 8.493206138e-15)
(0.0005247618357 0.002011561259 6.911138328e-15)
(4.160279897e-05 0.0001518329646 5.273559367e-16)
(7.948502205e-05 0.0002935904829 9.992007222e-16)
(0 0 0)
(0 0 0)
(0 0 0)
(0 0 0)
(0 0 0)
(0 0 0)
(0 0 0)
(0 0 0)
(0 0 0)
(0 0 0)
(0 0 0)
(0 0 0)
(0 0 0)
(0 0 0)
(0 0 0)
(0 0 0)
(0 0 0)
(0 0 0)
(0 0 0)
(0 0 0)
(0 0 0)
(0 0 0)
(0 0 0)
(0 0 0)
(0 0 0)
(0 0 0)
(0 0 0)
(0 0 0)
(-0.0008030778039 0.00259363953 9.492406861e-15)
(-0.0009075405527 0.002969461979 1.071365219e-14)
(-0.0009697613129 0.003214164582 1.144917494e-14)
(-0.003908767903 0.01422669047 5.066780329e-14)
(-0.003783100156 0.01359253034 4.904410211e-14)
(-0.005640126533 0.02130346499 7.684131109e-14)
(-0.005790654105 0.02215742056 7.889522369e-14)
(-0.01140920342 0.05154238451 1.833810881e-13)
(-0.01122443287 0.05004372563 1.803418526e-13)
(-0.01268304268 0.06015113833 2.167155344e-13)
(-0.01286373023 0.06182377949 2.199074256e-13)
(-0.01482770191 0.08817806995 3.135408599e-13)
(-0.01470549574 0.08626289555 3.107097912e-13)
(-0.01449598501 0.09236438403 3.327060849e-13)
(-0.01458535288 0.09423019059 3.350791866e-13)
(-0.01153916736 0.1009452195 0)
(-0.01155846001 0.09965652829 0)
(-0.01018643045 0.099635988 0)
(-0.01017678637 0.1002801839 0)
(-0.0101671378 0.1009246792 0)
(-0.006051108998 0.1008630592 0)
(-0.006060757564 0.100218564 0)
(-0.00537477272 0.1002082943 0)
(-0.005369946196 0.1005306916 0)
(-0.005365124153 0.1008527895 0)
(-0.005708116575 0.1008579244 0)
(-0.0005630815533 0.1007808994 0)
(-0.0005679030224 0.1004588015 0)
(-0.0005727292596 0.1001364042 0)
(0.0001132766627 0.1001261341 0)
(0.0001229252294 0.1007706294 0)
(0.004924947859 0.1006987396 0)
(0.004905655207 0.09941004842 0)
(0.006255105393 0.09900977489 3.577554919e-13)
(0.006292278821 0.1005986588 3.588518371e-13)
(0.009443299592 0.09075574857 3.239075674e-13)
(0.009213248892 0.08769078472 3.169964291e-13)
(0.009639336979 0.0809066058 2.924882558e-13)
(0.00991774047 0.08411226795 3.002181836e-13)
(0.009133920329 0.05713659523 2.03920214e-13)
(0.008765242767 0.05419211869 1.958988527e-13)
(0.007799843876 0.04432643986 1.602051825e-13)
(0.00833441076 0.04794918969 1.710992459e-13)
(0.004354887566 0.0201989356 7.203959651e-14)
(0.003794692811 0.01738172691 6.278311204e-14)
(0.002576753112 0.01109086105 4.005129561e-14)
(0.002936461078 0.01279843327 4.563016631e-14)
(0.0001080318849 0.0003991463528 1.415534356e-15)
(4.879645444e-05 0.0001780409333 6.383782392e-16)
(0 0 0)
(0 0 0)
(0 0 0)
(0 0 0)
(0 0 0)
(0 0 0)
(0 0 0)
(0 0 0)
(0 0 0)
(0 0 0)
(0 0 0)
(0 0 0)
(0 0 0)
(0 0 0)
(0 0 0)
(0 0 0)
(0 0 0)
(0 0 0)
(0 0 0)
(0 0 0)
(0 0 0)
(0 0 0)
(0 0 0)
(0 0 0)
(0 0 0)
(0 0 0)
(0 0 0)
(0 0 0)
(0 0 0)
(0 0 0)
(-0.0001875974073 0.0005741437168 2.206568261e-15)
(-0.0003403849925 0.001056133774 4.024558464e-15)
(-0.0005056864121 0.001590397354 5.967448757e-15)
(-0.002899189787 0.01001269394 3.758104938e-14)
(-0.002477234138 0.008441026537 3.212707878e-14)
(-0.004032731972 0.01444555304 5.495603972e-14)
(-0.004561329726 0.01656001111 6.215861159e-14)
(-0.009835858227 0.04213720156 1.58012492e-13)
(-0.00911999328 0.03855006252 1.46563317e-13)
(-0.0105714428 0.04752319861 1.806332861e-13)
(-0.01129781953 0.05147507964 1.92998395e-13)
(-0.01365362252 0.07686834485 2.880889971e-13)
(-0.0130534873 0.07249511025 2.754324546e-13)
(-0.01313632066 0.0791930529 3.008704397e-13)
(-0.01364910086 0.08342475415 3.126665593e-13)
(-0.01148630115 0.09475325479 3.552436123e-13)
(-0.01130813632 0.09193206021 3.493733081e-13)
(-0.01017291762 0.09367868132 3.560762796e-13)
(-0.01023796858 0.09571224886 3.589212261e-13)
(-0.006128288568 0.09570769574 0)
(-0.006147585701 0.09441870519 0)
(-0.004775586078 0.09439816535 0)
(-0.004756288944 0.0956871559 0)
(-0.005442303724 0.09569742604 0)
(-0.0006402601395 0.09562553593 0)
(-0.0006595572728 0.09433654538 0)
(0.000712451331 0.09431600541 0)
(0.0007317484643 0.09560499596 0)
(0.004808365693 0.09469215007 3.559236239e-13)
(0.004721702139 0.09196262231 3.503863866e-13)
(0.0058873995 0.08912779753 3.396449788e-13)
(0.006036499811 0.09250724993 3.477773625e-13)
(0.008446979964 0.0774251761 2.911837438e-13)
(0.008082072621 0.07308309617 2.78610468e-13)
(0.008226609972 0.06552991994 2.498140583e-13)
(0.008653057533 0.06987872946 2.628175455e-13)
(0.007249174646 0.04310534476 1.620925616e-13)
(0.006733510442 0.03948744329 1.50490731e-13)
(0.005702842153 0.03074311552 1.171562847e-13)
(0.006207385872 0.03393020433 1.275646255e-13)
(0.002427482012 0.01069347579 4.01761957e-14)
(0.002085432688 0.009061204829 3.451405828e-14)
(0.001066384254 0.004354355433 1.658395643e-14)
(0.001448738278 0.005997743875 2.25375274e-14)
(0 0 0)
(0 0 0)
(0 0 0)
(0 0 0)
(0 0 0)
(0 0 0)
(0 0 0)
(0 0 0)
(0 0 0)
(0 0 0)
(0 0 0)
(0 0 0)
(0 0 0)
(0 0 0)
(0 0 0)
(0 0 0)
(0 0 0)
(0 0 0)
(0 0 0)
(0 0 0)
(0 0 0)
(0 0 0)
(0 0 0)
(0 0 0)
(0 0 0)
(0 0 0)
(0 0 0)
(0 0 0)
(0 0 0)
(0 0 0)
(0 0 0)
(0 0 0)
(0 0 0)
(0 0 0)
(-4.608115175e-06 1.371326198e-05 5.551115123e-17)