/*--------------------------------*- C++ -*----------------------------------*\
| =========                 |                                                 |
| \\      /  F ield         | OpenFOAM: The Open Source CFD Toolbox           |
|  \\    /   O peration     | Version:  v1912                                 |
|   \\  /    A nd           | Website:  www.openfoam.com                      |
|    \\/     M anipulation  |                                                 |
\*---------------------------------------------------------------------------*/
FoamFile
{
    version     2.0;
    format      ascii;
    class       surfaceScalarField;
    location    "2.24";
    object      meshPhi;
}
// * * * * * * * * * * * * * * * * * * * * * * * * * * * * * * * * * * * * * //

dimensions      [0 3 -1 0 0 0 0];
oriented        oriented;


internalField   nonuniform List<scalar> 
25162
(
0
0
0
0
0
0
0
0
0
0
0
0
0
0
0
0
0
0
0
0
0
0
0
0
0
0
0
0
0
0
0
0
0
0
0
0
0
0
0
0
0
0
0
0
0
0
0
0
0
0
0
0
0
0
0
0
0
0
0
0
0
0
0
0
0
0
0
0
0
0
0
0
0
0
0
0
0
0
0
0
0
0
0
0
0
0
0
0
0
0
0
0
0
0
0
0
0
0
0
0
0
0
0
0
-4.538991992e-09
-1.162418822e-07
1.301680661e-06
0
7.311016256e-09
-1.106571743e-06
0
0
0
0
0
0
0
0
0
0
0
0
0
0
0
0
0
0
0
0
0
0
0
0
0
0
0
0
0
0
0
0
0
0
0
0
0
0
0
0
0
0
0
0
0
0
0
0
0
0
0
0
0
0
0
0
0
0
0
0
0
0
0
0
0
0
2.098888407e-08
1.959791167e-06
-1.925097122e-06
-1.241552973e-05
7.477565146e-06
0.0001100120705
-1.729552364e-05
-0.0001555808241
9.421980946e-06
0.0002878704303
-1.588903679e-05
-0.0003220322019
-1.803408628e-06
0.0003709951284
3.887455155e-06
-0.0003665926398
-9.748503451e-06
0.0002934765051
1.790910002e-05
-0.0002528983641
-4.550886672e-06
0.0001132237001
1.23095497e-05
-7.073453994e-05
0
2.112764427e-06
2.90108887e-07
0
0
0
0
0
0
0
0
0
0
0
0
0
0
0
0
0
0
0
0
0
0
0
0
0
0
0
0
0
0
0
0
0
0
0
0
0
0
0
0
0
0
0
0
0
0
0
0
0
0
0
1.020135735e-06
4.285068558e-06
-5.246247293e-06
-3.065212496e-05
3.73771895e-05
0.0002683209632
-5.830343825e-05
-0.0003837347475
6.579379661e-05
0.0007665987273
-8.57487872e-05
-0.0008907585114
3.758254546e-05
0.001200257917
-4.359959399e-05
-0.001273363579
-1.911411326e-05
0.001378840394
2.768825671e-05
-0.00137325317
-5.707123155e-05
0.001233014027
7.458750819e-05
-0.001147554685
-5.418794084e-05
0.0008022339285
7.303026478e-05
-0.0006688023657
-2.128145678e-05
0.0002810960362
3.487565954e-05
-0.0001751493957
0
4.372694943e-06
8.441307029e-07
0
0
0
0
0
0
0
0
0
0
0
0
0
0
0
0
0
0
0
0
0
0
0
0
0
0
0
0
0
0
0
0
0
0
0
0
0
0
0
0
0
0
0
0
0
-3.394711061e-07
-1.658084964e-06
4.36986759e-05
0.0002023432078
-6.509826093e-05
-0.0003464393074
0.0001376428603
0.0009171730229
-0.0001663157315
-0.001129898163
0.0001444535541
0.001740630872
-0.0001611059432
-0.001916971769
5.33935928e-05
0.00231747462
-5.38510834e-05
-0.002403928777
-6.04788135e-05
0.002524288403
7.163777207e-05
-0.002519753427
-0.0001352252613
0.002368155228
0.0001559922826
-0.002268444973
-0.0001383996665
0.001817840698
0.000161741372
-0.001622953551
-0.0001056769452
0.00100157137
0.0001301754743
-0.0007913395742
-2.173023034e-05
0.0002392195958
3.319483747e-05
-0.0001191650076
0
0
0
0
0
0
0
0
0
0
0
0
0
0
0
0
0
0
0
0
0
0
0
0
0
0
0
0
0
0
0
0
0
0
0
0
0
0
0
0
0
0
1.052637164e-05
2.402792091e-05
-1.730330243e-05
-0.0001037364343
0.0001367590541
0.0006286349872
-0.000160938025
-0.0008732168921
0.0002691866764
0.001716622303
-0.000279220925
-0.002001995136
0.0002021885899
0.002673270605
-0.0002322159061
-0.002815845152
5.154233466e-05
0.003104660229
-5.513068373e-05
-0.003142500179
-9.487338144e-05
0.003178321117
9.700561521e-05
-0.003177214732
-0.0002186583449
0.003133562288
0.0002327169736
-0.003078628705
-0.0003025698979
0.002788211113
0.0003171672395
-0.002584520192
-0.0001664627538
0.001799527787
0.0001848154671
-0.001517649241
-7.190768243e-05
0.0006941177219
8.498681475e-05
-0.0004634908425
3.185169421e-05
-2.365842785e-06
4.107075187e-06
-4.869368174e-07
0
0
0
0
0
0
0
0
0
0
0
0
0
0
0
0
0
0
0
0
0
0
0
0
0
0
0
0
0
0
0
0
0
0
0
-2.991576818e-07
-1.809627405e-08
-6.895110909e-07
4.007344977e-05
0.000122459291
-4.862326021e-05
-0.0002756846762
0.0002270616915
0.001017356821
-0.0002381014815
-0.001343224931
0.0003137579461
0.002301022785
-0.0003251974471
-0.00258274732
0.0002390329675
0.003208210441
-0.0002112513087
-0.003336034999
0.0001034795997
0.003449639287
-0.0001260519913
-5.565164593e-05
-0.001661060698
-0.001710354551
0.001651288931
-4.340792186e-05
4.351349837e-05
-0.001651394507
0.001699957299
-0.0003210926544
-0.003421156235
0.001734828272
0.0001406308454
0.0001668324731
0.003230561027
-0.0003055346803
0.0003217435734
-0.003101699653
-0.0002409777871
0.002427592913
0.0002556465128
-0.00212506802
-0.0001183557317
0.001135309759
0.0001277471007
-0.0008350307554
0.000167731535
-1.736758057e-05
2.224162608e-05
-5.331126646e-05
0
0
0
0
0
0
0
0
0
0
0
0
0
0
0
0
0
0
0
0
0
0
0
0
0
0
0
0
0
0
0
0
0
1.250253374e-06
0
-2.661889565e-06
-6.387354188e-06
-9.794020876e-06
6.640783745e-05
0.0002081652937
-6.856664907e-05
-0.0004072518426
0.0002725626834
0.001290681469
-0.0002766944029
-0.001639549387
0.0003395300491
0.002651073876
-0.0003388052527
-0.002932528487
0.0001896628524
0.003452322676
-0.0001838742282
-0.003491436366
3.273892741e-05
0.001766140763
-3.560868152e-05
-0.001763271009
0.00174920257
-0.0001223779283
0.0001197502292
-0.001746574871
0.003460754795
-0.0003466471736
0.0003520661263
-0.003388877609
-0.0002755373985
0.002786921073
0.0002803811942
-0.002485347792
-0.0001495563306
0.001446929351
0.0001545129853
-0.001105795222
0.0003003869317
-3.323303004e-05
3.794063255e-05
-0.0001317268698
0
0
0
0
0
0
0
0
0
0
0
0
0
0
0
0
0
0
0
0
0
0
0
0
0
0
0
0
0
0
0
0
0
3.440211236e-06
0
-4.339383807e-06
-1.772675908e-05
-2.004412697e-05
7.952285287e-05
0.0002643911602
-8.186613978e-05
-0.000487113867
0.0002912709105
0.001434324506
-0.0002941742544
-0.001798997172
0.0003412952812
0.002830541234
-0.0003418209583
-0.003105560466
0.0001775436764
0.003566074573
-0.000176895517
-0.003581541678
2.572363814e-05
0.001788402492
-2.57185614e-05
-0.001788407569
0.001798884702
-0.000114381026
0.000113457447
-0.001797961123
0.00359600133
-0.0003534024241
0.0003531880153
-0.00355168491
-0.0002959245489
0.003005185437
0.0002988874873
-0.002708881213
-0.0001651393639
0.001646479081
0.0001678321927
-0.001284100116
0.0003822683053
-4.37223032e-05
4.559082687e-05
-0.0001858885724
0
0
0
0
0
0
0
0
0
0
0
0
0
0
0
0
0
0
0
0
0
0
0
0
0
0
0
0
0
0
0
0
0
5.222740124e-06
0
-6.436142521e-06
-2.726991647e-05
-3.046978992e-05
8.768665324e-05
0.0003043339555
-9.004009749e-05
-0.0005434941374
0.0003014668276
0.001537006989
-0.0003043205247
-0.001913870442
0.0003433665808
0.002965144631
-0.0003439304204
-0.003240123092
0.0001757070123
0.003680487414
-0.000175499737
-0.003689198951
2.548588389e-05
0.001839997992
-2.607470412e-05
-0.0009184063241
-0.0009210028477
0.001851110377
-0.000110816711
0.0001101737118
-0.001850467378
0.003699434402
-0.0003493968322
0.0003475111625
-0.003649733968
-0.0002955268094
0.00307677886
0.0002936561973
-0.002770195534
-0.0001655167598
0.001676903271
0.0001644993155
-0.001306492028
0.000386892336
-4.423144097e-05
4.364053079e-05
-0.0001871462182
0
0
0
0
0
0
0
0
0
0
0
0
0
0
0
0
0
0
0
0
0
0
0
0
0
0
0
0
0
0
0
0
0
7.754830336e-06
0
-9.26980684e-06
-4.128391715e-05
-4.539955076e-05
9.739158044e-05
0.0003536921165
-9.997643352e-05
-0.0006115313203
0.0003129267884
0.001656040784
-0.0003158790383
-0.002045839347
0.0003455109055
0.003116326248
-0.0003460097544
-0.003390122653
0.000174455663
0.003804986457
-0.0001741973305
-0.003808502877
2.573065547e-05
0.001900290372
-2.589114638e-05
-0.00094906177
-0.0009510681113
0.001907264572
-0.0001083194912
0.0001077052678
-0.001906650349
0.003800526294
-0.000336822108
0.0003322489735
-0.003712761582
-0.000278066421
0.003027747079
0.0002754973125
-0.002708893551
-0.0001515011669
0.00157559618
0.0001478007833
-0.001203756346
0.0003147698897
-3.512467208e-05
3.317263009e-05
-0.0001352168493
0
0
0
0
0
0
0
0
0
0
0
0
0
0
0
0
0
0
0
0
0
0
0
0
0
0
0
0
0
0
0
0
0
1.11128211e-05
0
-1.180041932e-05
-6.051813935e-05
-6.273427652e-05
0.0001084049004
0.0004117572258
-0.0001116939906
-0.0006894153047
0.0003251595504
0.001785389784
-0.0003286756965
-0.002187306537
0.0003474415339
0.003272069958
-0.0003479115677
-0.00354254158
0.0001735563046
0.003924636474
-0.0001737361694
-0.003924763282
2.621569248e-05
0.001958669438
-2.619581732e-05
-0.0009780657248
-0.0009806235883
0.001959373159
-0.0001055865137
0.000105462409
-0.001959249054
0.003848776073
-0.0003175529721
0.0003110786636
-0.00370218884
-0.0002533569982
0.002892393579
0.0002405808294
-0.002535282669
-0.0001298091228
0.001368172658
0.0001205032173
-0.001005892032
0.0002095726561
-2.270386352e-05
1.952796181e-05
-6.829957527e-05
0
0
0
0
0
0
0
0
0
0
0
0
0
0
0
0
0
0
0
0
0
0
0
0
0
0
0
0
0
0
0
0
0
1.663596257e-05
0
-2.241464414e-05
-9.466320474e-05
-0.0001083101038
0.0001214146985
0.0004928487752
-0.0001299724118
-0.0007899640004
0.0003403532692
0.001942908078
-0.0003440888914
-0.002354560343
0.0003490886955
0.003441576777
-0.0003523464214
-0.003707212387
0.0001734361545
0.004041727552
-0.0001746805971
-0.002016666245
-0.002023816864
1.414318263e-05
0.001006392621
-1.44212533e-05
-0.001006114551
-1.042971995e-05
0.0005017105174
9.587584189e-06
-0.001003193553
0.0005023251716
0.002008694209
-0.0001048277096
0.0002189996277
-0.00402569231
0.002015356722
-0.0001125305392
-0.0002946288514
0.003815902606
0.0002804181832
-0.003595723322
-0.0002123288599
0.002652028346
0.0002038092862
-0.002265233467
-9.950101254e-05
0.001098093228
9.392772305e-05
-0.0007598098974
8.630817967e-05
-8.177604713e-06
6.457215396e-06
-8.508699966e-06
0
0
0
0
0
0
0
0
0
0
0
0
0
0
0
0
0
0
0
0
0
0
0
0
0
0
0
0
0
0
0
0
0
2.462477085e-05
0
-2.022832042e-05
-0.0001285638103
-0.000118078797
0.0001428663492
0.0005788904941
-0.0001384533175
-0.0009045566894
0.0003567549153
0.002113994601
-0.000351334242
-0.002537607077
0.0003460486773
0.003624560682
-0.0003452797307
-0.003875060719
0.0001692756382
0.004160049609
-0.0001692756382
-0.002076845608
-0.002083204001
1.222142269e-05
0.002076845608
-2.236734646e-05
1.014592376e-05
-0.001037024474
-0.001039821134
-4.405196045e-05
0.001037024507
4.405191041e-05
-0.002076845608
0.001039821151
0.004160049609
-0.0002287984191
0.0002270798507
-0.004149055709
-0.0002549700163
0.003670001296
0.0002484561199
-0.003393171316
-0.0001779188385
0.002290971633
0.0001657041951
-0.001895276808
-7.07007696e-05
0.0007704536967
6.418208939e-05
-0.0004916251531
1.190545181e-05
-1.289156338e-06
5.873996753e-07
0
0
0
0
0
0
0
0
0
0
0
0
0
0
0
0
0
0
0
0
0
0
0
0
0
0
0
0
0
0
0
0
0
0
1.255302107e-05
0
-4.583593729e-06
-5.966912097e-05
-3.746413854e-05
0.0001075589896
0.0004182594076
-9.288457384e-05
-0.0007039847208
0.0003101146521
0.001836839066
-0.0002884349049
-0.002253675589
0.0003340678941
0.003391989992
-0.0003251486223
-0.003687601536
0.0001771092783
0.004211106413
-0.0001827950209
-0.004264912134
2.236734645e-05
0.004278255746
-3.643312977e-05
-0.004278255746
1.406578335e-05
-9.640606282e-05
0.004278255746
9.640606284e-05
-0.004278255746
-0.000213902331
0.004201818656
0.000205409179
-0.004084840851
-0.0002139473081
0.003372734422
0.0002010975966
-0.003031052927
-0.0001302219457
0.001845266233
0.000120817279
-0.001444887642
-4.049075837e-05
0.0004422024644
3.271012114e-05
-0.0002313500809
0
0
0
0
0
0
0
0
0
0
0
0
0
0
0
0
0
0
0
0
0
0
0
0
0
0
0
0
0
0
0
0
0
0
0
0
0
1.115544001e-07
0
0
-3.321409855e-07
0
4.520531265e-05
0.0001434467655
-3.079989672e-05
-0.0003220731478
0.0002048774263
0.001185477888
-0.0001732647869
-0.001541750946
0.0002756264155
0.002624954422
-0.0002513283636
-0.002949562156
0.0001847342334
0.003698553507
-0.0001788709024
-0.003863838129
4.10226769e-05
0.004135839012
-4.340329883e-05
-0.004167333359
-8.835398582e-05
0.004124111493
8.049059612e-05
-0.00405954993
-0.0001663673129
0.003660243936
0.0001495402307
-0.003448201002
-0.0001532098621
0.002588624691
0.0001353071563
-0.002246787401
-8.578169849e-05
0.001190182957
7.267006172e-05
-0.0008675831315
-1.410615187e-05
0.0001586613763
8.540960095e-06
-4.343944799e-05
0
0
0
0
0
0
0
0
0
0
0
0
0
0
0
0
0
0
0
0
0
0
0
0
0
0
0
0
0
0
0
0
0
0
0
0
0
0
0
0
0
0
3.113958351e-06
3.290275241e-07
-5.065864512e-07
-2.47327052e-05
8.146056962e-05
0.0004255717815
-5.566696727e-05
-0.0006475097928
0.0001624795052
0.001439864513
-0.0001309506245
-0.001711581514
0.0001412324871
0.00242755103
-0.0001232662967
-0.002613306684
4.677651296e-05
0.002969239089
-4.538827423e-05
-0.003017802393
-4.829162114e-05
0.002953219976
3.728106878e-05
-0.002862514013
-9.468107735e-05
0.002394436742
7.699924165e-05
-0.002180387518
-8.114936509e-05
0.00142608203
6.4209934e-05
-0.001159995273
-3.367392086e-05
0.0004389167112
2.227615312e-05
-0.0002560443133
-1.276210165e-07
1.092161388e-06
0
0
0
0
0
0
0
0
0
0
0
0
0
0
0
0
0
0
0
0
0
0
0
0
0
0
0
0
0
0
0
0
0
0
0
0
0
0
0
0
0
0
0
0
0
0
0
0
6.196094668e-06
1.114551317e-05
-9.51091049e-07
-5.164687912e-05
4.773919387e-05
0.0003573825192
-2.758705137e-05
-0.0004968844479
6.348843275e-05
0.0009266138105
-4.485498699e-05
-0.001052541117
3.190064678e-05
0.001313519139
-2.514320047e-05
-0.001352327131
-1.21102767e-05
0.001309717545
7.160995593e-06
-0.001244378685
-3.274638326e-05
0.0009243644114
2.186216138e-05
-0.0007885570461
-2.188960397e-05
0.0003658990925
1.191829531e-05
-0.0002412504649
-1.168772623e-06
1.382443262e-05
3.303275429e-09
-1.487995421e-07
0
0
0
0
0
0
0
0
0
0
0
0
0
0
0
0
0
0
0
0
0
0
0
0
0
0
0
0
0
0
0
0
0
0
0
0
0
0
0
0
0
0
0
0
0
0
0
0
0
0
0
0
0
0
1.457654744e-07
0
0
-1.858640216e-06
5.998150816e-06
5.07718739e-05
-9.418651597e-07
-7.862490627e-05
5.934160685e-06
0.0001531462808
-2.013616593e-06
-0.000166317492
-6.659359988e-07
0.0001546533129
1.615000103e-07
-0.0001349160808
-2.230073664e-06
5.362267665e-05
1.871821139e-07
-2.954599227e-05
0
0
0
0
0
0
0
0
0
0
0
0
0
0
0
0
0
0
0
0
0
0
0
0
0
0
0
0
0
0
0
0
0
0
0
0
0
0
0
0
0
0
0
0
0
0
0
0
0
0
0
0
0
0
0
0
0
0
0
0
0
0
0
0
0
0
0
0
0
0
0
0
0
0
0
0
0
0
0
0
0
0
0
0
0
0
0
0
0
0
0
0
0
0
0
0
0
0
0
0
0
0
0
0
0
0
0
0
0
0
0
0
0
0
0
0
0
0
0
0
0
0
0
0
0
0
0
0
0
0
0
0
0
0
0
0
0
0
0
0
0
0
0
0
0
0
0
0
0
0
0
0
0
0
0
0
0
0
0
0
0
0
0
0
0
0
0
0
0
0
0
0
0
0
0
0
0
0
0
0
0
0
0
0
0
0
0
0
0
0
0
0
0
0
0
0
0
0
0
0
0
0
0
0
0
0
0
0
0
0
0
0
0
0
0
0
0
0
0
0
0
0
0
0
0
0
0
0
0
0
0
0
0
0
0
0
0
0
0
0
0
0
0
0
0
0
0
0
0
0
0
0
0
0
0
0
0
0
0
0
0
0
0
0
0
0
0
0
0
0
0
0
0
0
0
0
0
0
0
0
0
0
0
0
0
0
0
0
0
0
0
0
0
0
0
0
0
0
0
0
0
0
0
0
0
0
0
0
0
0
0
0
0
0
0
0
0
0
0
0
0
0
0
0
0
0
0
0
0
0
0
0
0
0
0
0
0
0
0
0
0
0
0
0
0
0
0
0
0
0
0
0
0
0
0
0
0
0
0
0
0
0
0
0
0
0
0
0
0
0
0
0
0
0
0
0
0
0
0
0
0
0
0
0
0
0
0
0
0
0
0
0
0
0
0
0
0
0
0
0
0
0
0
0
0
0
0
0
0
0
0
0
0
0
0
0
0
0
0
0
0
0
0
0
0
0
0
0
0
0
0
0
0
0
0
0
0
0
0
0
0
0
0
0
0
0
0
0
0
0
0
0
0
0
0
0
0
0
0
0
0
0
0
0
0
0
0
0
0
0
0
0
0
0
0
0
0
0
0
0
0
0
0
0
0
0
0
0
0
0
0
0
0
0
0
0
0
0
0
0
0
0
0
0
0
0
0
0
0
0
0
0
0
0
0
0
0
0
0
0
0
0
0
0
0
0
0
0
0
0
0
0
0
0
0
0
0
0
0
0
0
0
0
0
0
0
0
0
0
0
0
0
0
0
0
0
0
0
0
0
0
0
0
0
0
0
0
0
0
0
0
0
0
0
0
0
0
0
0
0
0
0
0
0
0
0
0
0
0
0
0
0
0
0
0
0
0
0
0
0
0
0
0
0
0
0
0
0
0
0
0
0
0
0
0
0
0
0
0
0
0
0
0
0
0
0
0
0
0
0
0
0
0
0
0
0
0
0
0
0
0
0
0
0
0
0
0
0
0
0
0
0
0
0
0
0
0
0
0
0
0
0
0
0
0
0
0
0
0
0
0
0
0
0
0
0
0
0
0
0
0
0
0
0
0
0
0
0
0
0
0
0
0
0
0
0
0
0
0
0
0
0
0
0
0
0
0
0
0
0
0
0
0
0
0
0
0
0
0
0
0
0
0
0
0
0
0
0
0
0
0
0
0
0
0
0
0
0
0
0
0
0
0
0
0
0
0
0
0
0
0
0
0
0
0
0
0
0
0
0
0
0
0
0
0
0
0
0
0
0
0
0
0
0
0
0
0
0
0
0
0
0
0
0
0
0
0
0
0
0
0
0
0
0
0
0
0
0
0
0
0
0
0
0
0
0
0
0
0
0
0
0
0
0
0
0
0
0
0
0
0
0
0
0
0
0
0
0
0
0
0
0
0
0
0
0
0
0
0
0
0
0
0
0
0
0
0
0
0
0
0
0
0
0
0
0
0
0
0
0
0
0
0
0
0
0
0
0
0
0
0
0
0
0
0
0
0
0
0
0
0
0
0
0
0
0
0
0
0
0
0
0
0
0
0
0
0
0
0
0
0
0
0
0
0
0
0
0
0
0
0
0
0
0
0
0
0
0
0
0
0
0
0
0
0
0
0
0
0
0
0
0
0
0
0
0
0
0
0
0
0
0
0
0
0
0
0
0
0
0
0
0
0
0
0
0
0
0
0
0
0
0
0
0
0
0
0
0
0
0
0
0
0
0
0
0
0
0
0
0
0
0
0
0
0
0
0
0
0
0
0
0
0
0
0
0
0
0
0
0
0
0
0
0
0
0
0
0
0
0
0
0
0
0
0
0
0
0
0
0
0
0
0
0
0
0
0
0
0
0
0
0
0
0
0
0
0
0
0
0
0
0
0
0
0
0
0
0
0
0
0
0
0
0
0
0
0
0
0
0
0
0
0
0
0
0
0
0
0
0
0
0
0
0
0
0
0
0
0
0
0
0
0
0
0
0
0
0
0
0
0
0
0
0
0
0
0
0
0
0
0
0
0
0
0
0
0
0
0
0
0
0
0
0
0
0
0
0
0
0
0
0
0
0
0
0
0
0
0
0
0
0
0
0
0
0
0
0
0
0
0
0
0
0
0
0
0
0
0
0
0
0
0
0
0
0
0
0
0
0
0
0
0
0
0
0
0
0
0
0
0
0
0
0
0
0
0
0
0
0
0
0
0
0
0
0
0
0
0
0
0
0
0
0
0
0
0
0
0
0
0
0
0
0
0
0
0
0
0
0
0
0
0
0
0
0
0
0
0
0
0
0
0
0
0
0
0
0
0
0
0
0
0
0
0
0
0
0
0
0
0
0
0
0
0
0
0
0
0
0
0
0
0
0
0
0
0
0
0
0
0
0
0
0
0
0
0
0
0
0
0
0
0
0
0
0
0
0
0
0
0
0
0
0
0
0
0
0
0
0
0
0
0
0
0
0
0
0
0
0
0
0
0
0
0
0
0
0
0
0
0
0
0
0
0
0
0
0
0
0
0
0
0
0
0
0
0
0
0
0
0
0
0
0
0
0
0
0
0
0
0
0
0
0
0
0
0
0
0
0
0
0
0
0
0
0
0
0
0
0
0
0
0
0
0
0
0
0
0
0
0
0
0
0
0
0
0
0
0
0
0
0
0
0
0
0
0
0
0
0
0
0
0
0
0
0
0
0
0
0
0
0
0
0
0
0
0
0
0
0
0
0
0
0
0
0
0
0
0
0.001783758145
-0.001783843751
2.580924415e-05
0.0001084891964
-0.001788650103
-0.0001094780451
0.00089728879
0.0008923501613
-0.0001245735246
0.001756541244
0.00011723485
0.001832772599
2.507193973e-05
-0.0009157772238
-0.000916581431
0.0001017359041
-0.001845942745
-0.0001026335577
0.0009242136244
0.0009226267739
0.0001054808296
0.0009020013075
0.0008998917613
0.001892793289
2.548212375e-05
-0.0009455771689
-0.0009469675881
0.0001000411055
-0.00189824916
-9.878637034e-05
0.0009490536102
0.0009479408142
0.0001010960482
0.0009256045636
0.0009261456691
0.001950806226
2.587285954e-05
-0.0009744083307
-0.000976055062
9.561831388e-05
-0.001951228367
-9.692413926e-05
0.001952534193
0.001908132218
9.917346044e-05
0.001005499367
-0.00100550267
1.414648622e-05
-0.0005021539096
4.697667677e-06
-4.824097693e-06
0.0005022803396
0.0005016903578
-0.001002735422
-1.153856524e-05
9.507907225e-05
-0.002003715312
-9.498814223e-05
0.002003624382
0.001959699492
9.529198022e-05
0.001036155369
-0.001036155369
1.222142269e-05
-0.001036155462
1.891268977e-05
-1.891290902e-05
0.001036155681
0.0005022370512
4.171133878e-06
-0.002069517482
0.0009490666644
2.90893729e-05
1.115402236e-05
0.0001596259208
-0.00408417405
0.002064360395
0.002045466377
-8.956206586e-05
-9.571657666e-05
0.00200855235
9.522093035e-05
0.00175841984
-0.001757644154
3.196324177e-05
-3.441596864e-05
0.001651903741
3.380115849e-05
-0.001750144933
-0.0001217354131
0.001747306822
-0.0001353529608
0.00168688146
0.0001484287994
1.881624738e-05
-0.0004457831864
-1.906365631e-05
0.0004460305954
-0.0008866299979
-4.978714221e-05
0.0008890493841
4.736775599e-05
-0.001787961982
-0.0001150691462
0.0003345839954
-0.003560300625
-0.000339330258
0.003566001055
-0.0003478299741
0.00348334191
0.0003385269566
0.003650054617
-0.003660273632
0.0001759635763
-3.375371332e-05
3.368090301e-05
0.001832845409
3.391621807e-05
0.001788230865
-3.374459086e-05
2.077187797e-05
-0.000455349181
-2.044502864e-05
0.0004550223317
-1.764904113e-05
-0.0004495628108
0.0004491491178
1.806273412e-05
-0.001845481216
-0.0001112782394
0.0003289808491
-0.003677912617
-0.000330464288
0.003679597924
0.00359821421
0.0003327009474
0.00377482891
-0.003779473774
0.0001747408143
-3.381138362e-05
3.373909036e-05
0.001892865582
0.001840069851
-3.382557214e-05
-2.587072433e-05
0.001864279197
2.57968356e-05
-0.000931013005
-0.0009331923037
2.042136294e-07
-0.0004668742185
-1.955892829e-07
0.0009331977802
-0.000466332186
-3.696496944e-07
-0.0004582942334
0.0009180709166
2.579482993e-08
-0.0004594328283
1.759094324e-05
-0.0004694147213
-1.769311641e-05
0.0004695168945
-1.988365304e-05
-0.0004625913559
0.0004618314422
2.064356682e-05
-0.001898422881
-0.0001081457698
0.0003207324138
-0.003774333834
-0.0003240024843
0.003784952442
0.003701670354
0.0003274007962
0.003894115124
-0.003894923899
0.000173454502
-3.40170899e-05
3.394748995e-05
0.001950875826
0.001900272543
-3.379355479e-05
-2.530459018e-05
0.001922346586
2.568051493e-05
-0.000960579742
-0.0009621427691
4.866629931e-07
-0.0004812579638
-5.797470004e-07
0.0004813510478
1.748849881e-07
-0.0004742161395
0.0009490712184
-8.88352904e-08
-0.0004749411286
3.246832718e-05
-0.0009633174972
-3.279417039e-05
0.0009636433404
-3.414406077e-05
-0.0009530114094
3.209853173e-05
0.0004782227359
0.0004768342026
0.004012743456
0.0001738860002
-0.00200294077
-0.002010252531
-3.443700123e-05
-0.001004506528
3.415623151e-05
0.002010286665
0.001958740631
-3.408828284e-05
-1.40851278e-05
0.0009917801304
-0.0009918777946
1.418279199e-05
2.426553734e-06
-0.0004969399153
-1.949031641e-06
0.0004964623932
-1.442418333e-06
-0.0004880290244
0.0004882191371
1.25230564e-06
0.0004994659864
8.170529372e-06
-0.0004980760585
-9.56045721e-06
3.059007076e-05
-0.0009912002055
-3.028215975e-05
0.0009908922945
-3.181079791e-05
-0.0009790616839
0.0009790705089
3.18019729e-05
0.004063761922
0.0001659985792
-0.001990967381
-0.002069517482
-3.067086167e-05
-0.001033362113
3.067086167e-05
0.002069517482
-0.001010195532
0.002016579183
-3.442803066e-05
-1.41292489e-05
0.001020255928
-0.001020162159
1.403547974e-05
6.813561721e-07
-0.0005070722279
-1.956983499e-06
0.0005083478552
-3.17421434e-06
-0.0005004701076
0.0005010556435
2.588678472e-06
0.002128135684
-0.002128135684
2.236734646e-05
-0.002128135684
3.574940029e-05
-3.574940029e-05
0.002128135684
0.00103702463
1.891256713e-05
-2.331013068e-06
0.0008825649171
1.621487489e-06
-0.0004401677945
-0.000441687597
2.937376432e-06
0.0008921046052
-2.84313516e-06
-0.0004464932986
-0.0004457055479
0.0008878671651
1.431313365e-05
-1.616744299e-05
-0.0008860128558
0.0008832033352
-0.0008838802143
-1.654134023e-06
-0.0004494698432
-1.73063579e-05
0.00044912716
-0.0004449858349
0.0004453609647
1.844111764e-05
-0.000112512993
-0.001774063278
0.0001106309462
0.0008905232934
0.0008854220317
-4.331160792e-05
0.0004441905952
4.17442231e-05
-0.0008876090453
1.874388474e-05
-0.0004496426536
-1.85710743e-05
-0.0004576679454
-7.970536062e-07
0.0009162473842
-0.0004581520349
-0.0009049697223
-4.498725767e-07
0.0009050545478
3.65047067e-07
2.544271244e-05
0.001813014559
-2.551811499e-05
-0.001812939156
-2.640356025e-06
2.046356521e-06
-0.0004520829834
-0.0004522927394
1.083494762e-06
-0.0004576666344
-1.084805771e-06
0.0008927878565
2.522901529e-06
-0.0004458388423
-0.0004465345393
0.0009040617974
-2.478759669e-06
-0.0004521748276
-0.0004520485662
-0.0004613464073
-1.90355764e-05
0.0004604983306
-0.000457022473
0.0004563727937
2.142155725e-05
-5.315326206e-05
-0.0009132867361
0.0009134668467
5.297315146e-05
-2.106610595e-05
2.12724512e-05
-0.0004572288182
1.977550591e-05
-0.00046184285
-1.927906321e-05
1.893262488e-05
-0.0004497515509
-0.0004556280284
-2.078725855e-05
-0.0009101795075
-5.315982818e-05
0.0009101860737
-0.0004734951043
-1.818135518e-07
0.0009467133079
-0.0004728615051
-0.0004677685748
0.0009358130115
5.551506206e-07
-0.0004683953736
0.001872303533
-2.542418127e-05
-0.0009356316849
-0.0009371183911
-1.368156566e-06
1.460630683e-06
-0.0004678610489
6.128489982e-07
-0.0004734018684
-7.060848836e-07
9.958788001e-07
-0.0004582066175
-0.0004670604345
-1.181940514e-06
-0.0009499499797
-3.391893616e-05
0.000475091073
0.0004746337821
-0.0004697666577
0.0004696250816
1.773251936e-05
-9.880463276e-05
-0.001876920538
9.908084951e-05
0.000938499572
0.000938144749
-3.693099377e-05
0.0004688913679
3.620903103e-05
-0.0009379360628
3.60439175e-05
-0.000949838211
-3.615568615e-05
2.026639279e-05
-0.0004630822428
0.0004683060499
-0.0009369900325
-1.827604233e-05
-1.938569017e-05
-0.001870476917
-0.0001004530165
0.0009367977471
0.000935327554
-0.0004875750217
-1.539925234e-06
0.0004876725286
-0.0004816261781
0.0004816299859
4.828551928e-07
0.001928230411
-2.591290057e-05
-0.0009633465736
-0.0009642755268
-1.279658477e-06
1.000155978e-06
-0.0004813466756
2.751445099e-06
-0.0004872843241
-3.042142673e-06
6.093712221e-07
-0.0004742126617
-0.000481157757
-1.37986529e-06
-0.0009779224554
-3.186350091e-05
0.0009779751584
-0.0009657513297
0.0009657567377
3.246291924e-05
-0.0005020963749
-3.557413436e-06
0.000502479574
-0.0004965467673
0.0004967317267
2.241594265e-06
0.0009933357443
-1.408057743e-05
-0.0009933402947
-4.810922481e-06
-0.0004965703001
0.0004949901771
6.391045474e-06
-3.770993131e-06
3.483399521e-06
-0.0004962591736
3.177972969e-06
-0.0005013121444
-3.962203447e-06
2.366568891e-06
-0.0004876441482
-0.0004972442147
-3.466693736e-06
-7.464197551e-06
0.0005021192614
5.964172155e-05
-0.002002713534
-5.924927658e-05
0.001001447558
0.001000873531
-0.0009921587834
0.0009918255964
3.092325778e-05
8.162963174e-06
-0.0004965627339
-0.001044802172
-5.874605572e-07
0.001039992572
3.912387668e-06
1.484672862e-06
-0.0005075220906
0.0005082286373
-2.519053015e-08
0.001021710219
-1.432024141e-05
-0.001021519227
-1.470080221e-06
-0.001009404886
0.001010009112
8.658541818e-07
7.107329161e-07
-1.131013144e-06
-0.0005071018103
4.366308818e-06
-0.001044839505
9.863902297e-07
-5.315366167e-06
2.38253109e-06
-0.0004996746657
-1.946468605e-07
-0.0005061668481
-0.001008356569
-2.667479351e-06
0.001009553968
0.003537850381
-0.00355674811
0.0001790403844
3.408631477e-05
0.001783588049
4.034299328e-05
0.001763698869
-3.790109928e-05
-2.786360306e-05
0.001765826499
-0.001765678051
2.77151554e-05
-5.49422282e-08
1.714347626e-07
0.0008830868427
4.814643802e-06
0.0008904569424
-7.404421053e-06
6.635127562e-05
-0.0004361546579
1.102279507e-05
0.0003587805872
-0.0004557154786
-2.51082313e-05
0.0004621436562
1.868005367e-05
0.001806691367
-0.001806868291
2.561963624e-05
-4.513080105e-07
0.0009040632329
-3.796015998e-07
0.0008927885294
3.789287359e-07
0.0001353704105
-0.0004827600355
-5.139593032e-05
0.0003987855553
-0.001950642543
-0.0001061723381
0.0003111915943
-0.003844850015
-0.0003149177696
0.00389634778
0.003814396656
0.0003203476685
0.0001333994979
-0.0004942236818
-4.665021068e-05
0.0004074743946
2.225771946e-05
-0.0009842760999
-2.281059532e-05
0.0004925687448
0.000492260231
-1.186711655e-05
-0.0004893985944
0.000489312918
1.195279297e-05
7.108022229e-06
-0.001007786378
-7.678213187e-06
6.882231319e-05
-0.002024614625
-6.476684453e-05
0.002020559157
-0.002008003317
6.020744442e-05
0.001004196908
0.001003240686
-3.786396637e-07
0.0008921036432
0.0008826092317
-9.925676923e-08
0.001762293133
-2.671038683e-05
-0.00176344635
-3.183039793e-06
0.0004436986144
4.088805398e-06
-0.00044460438
0.0004583963712
1.280228868e-05
-6.547323191e-06
-0.0004646513366
0.000445005352
-7.063053445e-07
-0.0004457017381
1.402691444e-06
-5.711392614e-05
4.990563472e-05
-0.0008794217065
0.0004438386362
-0.0008877255283
-4.520790218e-05
-0.001765738218
-0.0001092398423
0.0008826286467
0.0008798364202
-0.0004897835755
-1.224692568e-05
0.0004901633846
-1.691900609e-05
-0.000486945344
0.0004882554237
1.560892642e-05
-9.827110028e-05
-0.001930507981
0.001931137047
9.764203454e-05
-3.517077908e-05
3.485286534e-05
-0.000965433416
3.422374265e-05
-0.000977699164
-3.444703399e-05
3.541366297e-05
-0.0009523811549
-0.0009633183969
-3.51698794e-05
-0.001926053156
-9.844849579e-05
0.001926230552
-9.696013486e-06
-0.000500733744
0.0005024092332
8.020524335e-06
0.0005017633408
8.903068428e-06
-0.0005017048301
-8.961579109e-06
4.39639695e-06
-0.001006024839
-4.692106805e-06
0.0005028250573
0.0005034954919
-0.0008398927586
-1.223283991e-05
0.0008398421606
1.228343791e-05
0.001808220962
3.581706521e-05
-4.425795869e-05
-2.190679398e-05
-0.0008810052191
-0.0008968680556
0.0008782149792
-0.0008963922036
3.249035806e-05
-0.0008828733987
-5.101130573e-05
0.0008840975622
-0.001764399041
-0.0001296253144
0.0008846153242
0.0008503413734
6.559001766e-05
9.347763995e-05
-3.005128075e-05
3.104550453e-05
-0.0008408869823
-0.0005598968199
0.0006262480956
-4.278460115e-05
-0.0008880316631
4.089516502e-05
0.0004448306766
0.0004450904226
-2.477268715e-05
-8.574046905e-05
-0.0004493836637
-2.086070618e-05
1.757199046e-05
-0.0004524267629
-0.0004474397511
-1.348759389e-05
-0.0008832033884
-4.015787687e-05
0.0004411415131
0.000439435151
-1.906577544e-05
-0.0004528339079
0.0004529068599
1.899282344e-05
-0.0004528604161
-1.909335226e-05
0.0004528879929
-1.718666515e-05
-0.0004673917226
0.0004672968575
1.728153028e-05
-0.0004682071323
-1.778237017e-05
0.0004688028373
-0.000481258877
1.683300417e-05
-1.37577494e-05
0.0004781836222
-0.000489872724
0.0006187878326
6.455301901e-06
-3.331551089e-05
-0.0009576081866
0.0009576050227
3.331867489e-05
-2.120898639e-05
1.508590308e-05
-0.0004837496407
1.718593542e-05
-0.0004820991529
-1.634565946e-05
-1.915732624e-05
5.066373542e-05
-0.0004720174193
0.0004405110101
-0.0004803308968
-2.36381251e-05
-0.000956568011
-3.341844416e-05
0.0004783977497
0.0004782731946
-0.000492507544
3.654856355e-07
0.0004926991795
-5.571210566e-07
6.272132704e-06
0.0009853023115
-6.35957884e-06
-0.0009852148654
-6.349970323e-06
0.000991707793
-0.0009918035068
6.445684105e-06
2.072341511e-05
-0.0009906815907
-2.097897124e-05
0.0009909371468
-0.0009857280453
2.1629603e-05
0.0004935498522
0.0004928063096
0.000633861194
1.988874702e-06
-0.0005024505708
2.515267812e-06
-0.0005058079005
0.0005064880208
-3.195388102e-06
6.859727924e-06
0.001014288875
-6.95423438e-06
-0.001014194368
-6.955075581e-06
0.001020069021
6.482029279e-06
-0.0005095199824
-0.0005100759926
6.599314773e-06
0.001005940812
-6.874614321e-06
-0.001005665512
0.001012367382
-0.001012277412
6.769757265e-06
-0.0005039260088
1.639465344e-06
0.0005048018112
0.0004521810009
8.027951317e-07
0.0001145085091
-0.0005674923052
0.0004414025391
-3.508525481e-06
-0.0004410770534
1.927409102e-06
0.0008871652485
-2.262410884e-06
-0.0004425286362
-0.0004443016105
3.845766731e-06
-4.621326481e-06
0.0004421780989
-4.010883052e-06
0.0004479921086
8.199775429e-06
9.537605349e-06
-3.581617995e-05
0.0004467255833
-0.0004204470087
0.0004442238114
3.320569734e-06
0.0008897602291
2.907324109e-06
-0.0004456696865
-0.0004450704576
-4.274948362e-07
0.0008929793559
-0.0008935760919
1.024230906e-06
2.120078355e-06
-2.628864621e-06
0.0004455141382
2.297496771e-05
0.0004443198826
-8.898479184e-06
-0.0004471570528
-2.440220169e-06
0.00044558639
-0.0004446745521
0.0004448121012
1.982529231e-06
0.0008875697985
1.543081114e-07
-0.0008881516014
2.088064433e-06
-0.0004474689218
-0.0004465492831
1.950254022e-07
-1.94931094e-05
-0.0004478105355
0.0004466984158
2.060522905e-05
-0.0004463070061
-1.954346156e-05
0.0004463573582
1.171911e-06
0.000455377505