/*--------------------------------*- C++ -*----------------------------------*\
| =========                 |                                                 |
| \\      /  F ield         | OpenFOAM: The Open Source CFD Toolbox           |
|  \\    /   O peration     | Version:  v1912                                 |
|   \\  /    A nd           | Website:  www.openfoam.com                      |
|    \\/     M anipulation  |                                                 |
\*---------------------------------------------------------------------------*/
FoamFile
{
    version     2.0;
    format      ascii;
    class       volScalarField;
    location    "2.67";
    object      nut;
}
// * * * * * * * * * * * * * * * * * * * * * * * * * * * * * * * * * * * * * //

dimensions      [0 2 -1 0 0 0 0];


internalField   nonuniform List<scalar> 
12556
(
1.155898236
1.155869744
1.15583939
1.155812578
1.156029644
1.156022835
1.156030413
1.156054551
1.156104107
1.156194692
1.156333944
1.156491163
1.156651868
1.156664712
1.156571531
1.156434704
1.156286942
1.156181183
1.156092386
1.156058194
1.155819349
1.155826318
1.155847252
1.155873801
1.155173897
1.155088462
1.154997924
1.154922346
1.155121838
1.155119014
1.155173863
1.155384082
1.155617382
1.156038077
1.156686548
1.157489053
1.104154363
1.069940284
1.113562048
1.157395847
1.156654481
1.156044914
1.155546872
1.15530523
1.154965958
1.154969852
1.155026853
1.155105677
1.154418705
1.154272411
1.154123382
1.154016133
1.15421949
1.154254857
1.154398579
1.154773064
1.155352437
1.156370967
1.157921878
0.9525168961
0.8711575267
0.8419103405
0.8907815798
1.012324659
1.157773081
1.156371704
1.15528661
1.154714771
1.154189403
1.154135302
1.154201522
1.154325761
1.153647443
1.153446672
1.15324949
1.153124506
1.153337117
1.153456788
1.153771535
1.154462013
1.155677801
1.101155702
0.8154192106
0.6579575198
0.5749342608
0.5803755927
0.6353146192
0.7392936841
0.9134038343
1.157664374
1.15558376
1.154426212
1.153519
1.153366687
1.153407308
1.153559708
1.15285448
1.152595856
1.152359529
1.152245307
1.152506069
1.152762905
1.153425452
1.154574266
1.157012652
0.7916200764
0.5435291576
0.4027215383
0.3473543058
0.3591648704
0.424072157
0.5231965969
0.6708877172
0.9117690914
1.15678222
1.154567273
1.153072273
1.152654339
1.152617691
1.152775191
1.152060202
1.1517593
1.151500066
1.151407974
1.151744221
1.152213635
1.153358283
1.155312319
0.9365083526
0.5832148933
0.3581463832
0.223440146
0.1718642324
0.1993664327
0.2732555969
0.3726592769
0.5056670082
0.7076141826
1.041109821
1.155238833
1.152817532
1.152024284
1.151849675
1.151981045
1.151263887
1.150918542
1.150648864
1.15061316
1.151072607
1.151833611
1.153645647
1.156669249
0.7799381441
0.4630323059
0.2523699007
0.112600627
0.06257224497
0.09826400107
0.179260221
0.2771872625
0.3989685458
0.5718486355
0.8801585419
1.156505559
1.152772229
1.151457148
1.151069015
1.151142006
1.150493246
1.150123142
1.149862712
1.149897988
1.15052853
1.151653635
1.15431376
1.12639981
0.7077260517
0.4258641026
0.2357736774
0.09536215256
0.05501039852
0.1344635778
0.2261660537
0.3379803341
0.4927382915
0.7702535612
1.14801797
1.152993592
1.151008822
1.150322577
1.15030228
1.149770587
1.149369527
1.149128781
1.149293642
1.150123433
1.151689437
1.155279612
1.075109783
0.695691637
0.4557940628
0.3108464645
0.2283134109
0.06524166663
0.129941827
0.210536355
0.3123808291
0.4528158598
0.7094349876
1.057301147
1.153437916
1.150680761
1.149630489
1.149488958
1.149124526
1.148715276
1.148510795
1.148834112
1.149804374
1.151932863
1.156444312
1.056130914
0.7170020768
0.5147156934
0.418935895
0.442681987
0.09032178134
0.1458796195
0.218822145
0.3134353889
0.4431388257
0.6827617168
1.00066041
1.15415648
1.150578251
1.149107932
1.148817102
1.148556403
1.148129801
1.147978983
1.148495449
1.149619596
1.152355026
1.157738455
1.056493434
0.7493823852
0.5705545762
0.5013685786
0.5692891332
0.1225530452
0.1746755799
0.2438608459
0.3340385255
0.4579497381
0.685858519
0.9733129867
1.155061322
1.150686843
1.148790794
1.148338922
1.148103046
1.147674888
1.147579605
1.148268808
1.149585066
1.152905656
1.159108012
1.071476594
0.7845472383
0.609806797
0.528509433
0.4976292215
0.1593304836
0.2150688812
0.285541873
0.3740313216
0.4961479349
0.7146950294
0.9782557004
1.156189891
1.151082335
1.148768353
1.14814991
1.147714653
1.147284049
1.14727677
1.148170562
1.149673047
1.153514542
1.160516801
1.103905331
0.8263852311
0.6415733706
0.5173887844
0.4428190685
0.07013175555
0.2051146793
0.2746233885
0.3497983445
0.4389974617
0.5653167284
0.7656766954
1.004240269
1.157372581
1.151673228
1.148985499
1.148228344
1.147444135
1.147015672
1.147084959
1.148139464
1.149954711
1.154433884
1.161921626
1.15096701
0.8885651077
0.6931487561
0.5389303442
0.2900217439
0.1340249729
0.3018731056
0.3808173236
0.4538066579
0.5367417588
0.6572831429
0.8418061661
1.054947609
1.158592346
1.152458403
1.149441049
1.14854889
1.147206225
1.14677418
1.146911523
1.14813478
1.1502012
1.155145303
1.163088382
1.169196014
0.9935892013
0.8046572185
0.6397417349
0.08458711785
0.1862860842
0.4623341333
0.5808844492
0.6226152029
0.6863328099
0.7914445918
0.9577361792
1.142692507
1.159726921
1.15326702
1.150013077
1.149048029
1.147055002
1.146620311
1.146809547
1.148171186
1.150452703
1.155780907
1.164099807
1.170443732
1.164131365
0.9990246044
0.895848269
0.05705411222
0.1994749905
0.4686867191
0.7212786366
0.887351897
0.8976498388
0.9696630442
1.116376627
1.16842152
1.160731248
1.154080546
1.150661068
1.149632696
1.146883255
1.146436713
1.146658875
1.148156971
1.150665314
1.1563019
1.164911724
1.171329551
1.165924149
1.123287712
0.8915271086
0.07324034133
0.1883235988
0.459279575
0.7152488956
0.9209815174
1.056871406
1.129469311
1.164010319
1.169242807
1.161517969
1.154784195
1.151260403
1.150194147
1.146766111
1.146309226
1.146545332
1.148133838
1.150807081
1.156685028
1.165492095
1.171911793
1.166620978
1.124295646
0.890272419
0.1016067005
0.170700044
0.4449339664
0.7103922886
0.9227968728
1.059216279
1.130791698
1.164640404
1.169666416
1.162068018
1.155356887
1.151819114
1.150732439
1.14658573
1.146111858
1.146344401
1.148015293
1.150862211
1.156923273
1.165846428
1.172190444
1.166387252
1.120859551
0.8692313907
0.1174457882
0.1634747167
0.439380424
0.7123595245
0.9256707094
1.060113624
1.131091675
1.164681267
1.169712339
1.162351151
1.155730692
1.152219796
1.151130511
1.146447031
1.145963194
1.14618137
1.147884537
1.150826238
1.157023191
1.165998379
1.172214644
1.165796987
1.11471364
0.8232272678
0.1006953782
0.1696939081
0.4427950182
0.7140854803
0.9268974142
1.060008165
1.13067715
1.164268328
1.169449454
1.162470032
1.156014459
1.152554852
1.151465222
1.146218575
1.145723729
1.145921411
1.147657528
1.150710793
1.15700102
1.165978699
1.172039118
1.164947598
1.10759152
0.7729716544
0.09158781855
0.1753131815
0.4447996815
0.7128827192
0.9265593956
1.059158566
1.129763308
1.163515706
1.168949739
1.162379708
1.156111331
1.152716273
1.151630568
1.146035536
1.145541364
1.145721325
1.147452778
1.150532898
1.156882309
1.165824117
1.171711795
1.163887126
1.099510099
0.7266461923
0.08836425271
0.1791753787
0.4455105038
0.7101732074
0.9245487786
1.057654411
1.128480073
1.162516474
1.168277337
1.162212772
1.156171685
1.152843091
1.151754298
1.145747219
1.145255262
1.145421849
1.147168407
1.150316949
1.156697342
1.165573333
1.171275693
1.1626332
1.089961559
0.689928343
0.08826464287
0.1818241279
0.4452381512
0.7067206335
0.9210834376
1.055473177
1.126878485
1.161331013
1.167482684
1.161897283
1.156071882
1.152807147
1.151714656
1.145519354
1.14504161
1.145204493
1.146941465
1.150078304
1.15647298
1.165260336
1.170761848
1.161153745
1.078040498
0.6622559301
0.09007509391
0.1835533232
0.4442000524
0.7028463085
0.9166625154
1.052627263
1.124969743
1.15999452
1.166601953
1.161579987
1.155994824
1.152787622
1.151682487
1.145177602
1.144714479
1.14487947
1.146635915
1.149831338
1.156226489
1.164906758
1.170181407
1.159343032
1.063593408
0.6412267328
0.09322005595
0.1846489951
0.4426513386
0.6987329124
0.9117230463
1.049221713
1.122774039
1.158537361
1.16566419
1.161147539
1.155772527
1.152615476
1.151497116
1.144915884
1.144477407
1.144654532
1.146409163
1.149576816
1.155964756
1.164519705
1.169523945
1.157026859
1.047629284
0.6249016308
0.09731584329
0.1852831588
0.440805511
0.6944916347
0.9065173052
1.045400375
1.120342429
1.156998506
1.164696695
1.160773123
1.155627746
1.152512313
1.15137246
1.144535999
1.144120012
1.144311153
1.146090419
1.149319571
1.155687311
1.164094968
1.168759597
1.154013567
1.031336715
0.6120386271
0.1021704636
0.1855844671
0.4387403178
0.6901028751
0.9011289306
1.04129083
1.117751798
1.155428061
1.16372799
1.1602962
1.155338139
1.152256609
1.151095871
1.144251197
1.143865775
1.144080126
1.14586496
1.149052508
1.155389887
1.163621203
1.167845599
1.15017328
1.015455414
0.6017461147
0.107671789
0.185427079
0.4362955633
0.6854240843
0.8955346829
1.036988764
1.115088511
1.153879177
1.162785214
1.159930255
1.155174244
1.152116976
1.150927363
1.143850775
1.143491009
1.143724835
1.145530827
1.148778269
1.155066337
1.163084484
1.166737015
1.145499557
1.000332633
0.5933217133
0.1136354768
0.1847975969
0.4333583285
0.6803459809
0.8897145134
1.032577895
1.11243376
1.152396135
1.161889922
1.159457716
1.154856366
1.151817603
1.150601413
1.143543403
1.143216431
1.14347908
1.145296063
1.148486918
1.154711083
1.162472242
1.165397647
1.140079176
0.9860775547
0.5862449844
0.1198535782
0.1838972215
0.4300065817
0.6748837176
0.8837142612
1.028148265
1.109851099
1.151004735
1.161054694
1.159135947
1.154697899
1.151667173
1.150416342
1.143142262
1.142840342
1.143122543
1.144947135
1.148181926
1.154319357
1.161776113
1.163807113
1.134077232
0.9727209034
0.5802354019
0.1262169804
0.1828357784
0.4263475466
0.6691471598
0.8776565313
1.023794636
1.10737996
1.149710223
1.16027986
1.158693805
1.154381085
1.151357337
1.150077325
1.142794379
1.142525332
1.142837379
1.144677942
1.14785283
1.153888342
1.16099191
1.161963116
1.127653527
0.9602693496
0.5751639391
0.1326706015
0.1817369813
0.422499902
0.6632754418
0.871691537
1.019603161
1.105036812
1.148502069
1.159560293
1.158408771
1.15422036
1.151193742
1.149875719
1.142422201
1.142174763
1.142503515
1.144332527
1.147503577
1.153414695
1.160115916
1.159874014
1.120975333
0.9487106608
0.5709354765
0.1391987758
0.1805809004
0.4184824446
0.6574127142
0.8659817908
1.01566628
1.102828612
1.147362849
1.158879743
1.158019154
1.15393943
1.150913933
1.149568752
1.141990039
1.141775141
1.142131597
1.143975044
1.147126969
1.152897388
1.159140044
1.15754281
1.114151609
0.9380313147
0.567584235
0.1459485565
0.1791671274
0.4143410179
0.6519250585
0.8608959209
1.012123362
1.100772511
1.146278814
1.158234193
1.157704292
1.153726137
1.150694601
1.149309643
1.141696687
1.141498007
1.141866952
1.14369543
1.146731171
1.152339675
1.158056724
1.15494129
1.107152394
0.9279781593
0.5648630189
0.152735521
0.1778880044
0.4108247731
0.6476245669
0.8568807341
1.009126912
1.098887356
1.145251041
1.157611582
1.157445127
1.153546077
1.15051341
1.149107884
1.14108245
1.140920523
1.141317698
1.143142767
1.146349348
1.151772146
1.156898331
1.152006744
1.099771072
0.9178134925
0.5614533643
0.1585495194
0.177916744
0.4093155507
0.6453620638
0.8542396454
1.006732472
1.097169656
1.144331352
1.157069706
1.157012785
1.153240101
1.150203336
1.148752118
0.2013362962
0.05799364138
0.04776559114
0.4240849459
0.08240519375
0.06084306086
0.5746740688
0.1155540591
0.08631238063
0.5056055609
0.1460719696
0.1204615321
0.4479917052
0.05205382472
0.06568112577
0.1804789559
0.1499081482
0.3398666927
0.09610513476
0.05357892152
0.1223147478
0.2441026299
0.1835424037
0.0922430317
0.06318879765
0.04945306825
0.09307661538
0.02956606462
0.02041019198
0.06283447407
0.1103929675
0.1146072801
0.3925670986
0.4081849328
0.2350805488
0.0382025904
0.04980380596
0.08698816714
0.1250334042
0.1124610112
0.4855543263
0.5527368494
0.4275494508
0.4944220252
0.2204286723
0.2533735231
0.06515641432
0.04726169718
0.1184338915
0.1524115313
0.1308975297
0.5258861933
0.5673590932
0.5662161131
0.5429539392
0.1366763459
0.1819288608
0.1161292264
0.08722786584
0.5187271298
0.4926574346
0.5601271212
0.4841159709
0.07716635692
0.1040565631
0.02184527426
0.137191969
0.1320956329
0.5291322033
0.387886096
0.4815774336
0.4052792708
0.02898443842
0.04842181529
0.2773847037
0.1376594646
0.1045912872
0.07522500297
0.1906683585
0.03547062517
0.06780450143
0.04836729274
0.03081033524
0.05033003343
0.03265680345
0.04656222979
0.2580160886
0.2923125169
0.3482301402
0.2245454691
0.2039497875
0.2267713835
0.2285868052
0.04681226434
0.03802020346
0.07213175949
0.0550083751
0.06198861196
0.04780805643
0.05526072092
0.07068320506
0.1852286732
0.2156679229
0.5156422401
0.1653672679
0.1366543111
0.2017010868
0.1677718563
0.08333544208
0.06666786639
0.1030659577
0.08882095748
0.1123845009
0.06257364197
0.08578410108
0.09867355543
0.1056085743
0.1348024193
0.5340709201
0.1067433339
0.07922282138
0.1350324077
0.1082501184
0.1311987325
0.120563814
0.04940835434
0.07529625621
0.481819793
0.01510027531
0.05195202985
0.03071282829
0.07808445657
0.05355506986
0.01330977962
0.1431087531
0.1388316337
0.02472284607
0.004671382962
0.02866122831
0.3996471283
0.08104734175
0.01798726551
0.01005203876
0.03036661624
0.01832176879
0.07912429075
0.2858688027
0.2104429689
0.111459506
0.1217548208
0.07511710231
0.04197756849
0.01797281345
0.008707389536
0.3191476999
0.2969333275
0.2104120891
0.009227485305
0.1523082178
0.1884075822
0.1606673063
0.01005703526
0.07189098033
0.06274350396
0.09335590266
0.1587233611
0.1466632822
0.1867725108
0.08371778468
0.1373388065
0.04230469325
0.01389635668
0.02426344172
0.02340295696
0.03097477201
0.04891353131
0.06084716169
0.04398000015
0.1349730453
0.1251611673
0.1332375162
0.1142034057
0.1239629217
0.1317741774
0.03532699074
0.01153257087
0.06383488293
0.02488056876
0.04289903712
0.03450585301
0.02068524808
0.03237499906
0.0236894805
0.01765737804
0.02372248783
0.02148856316
0.01044076654
0.01720823107
0.02245325738
0.04806869013
0.04880886036
0.05638269209
0.05512768489
0.02182530687
0.01045841028
0.1033554269
0.01839347775
0.03419893647
0.009635474481
0.0155701251
0.09912824919
0.09226911798
0.272810291
0.2580899649
0.09042501375
0.07663910087
0.01022992225
0.0433913952
0.1946785557
0.1805337649
0.214285615
0.2004163669
0.04376222678
0.05246489854
0.04265102858
0.1127363773
0.06922175949
0.0638061246
0.0402981359
0.06863140879
0.1278945899
0.04319948318
0.0254003194
0.01594195265
0.05701361308
0.02830117803
0.04799692276
0.02694488967
0.06688220864
0.03876173292
0.03823310278
0.2197281035
0.03055925142
0.2188082092
0.2496668983
0.03461252714
0.03918277601
0.03101537959
0.03406456129
0.2443584719
0.04485365823
0.04450988256
0.05898034589
0.06905401516
0.06446552212
0.07548506065
0.0706519116
0.05933410763
0.05789962982
0.05692785883
0.05189810633
0.06282422581
0.05831147781
0.05936348119
0.1512096438
0.149357381
0.1859615553
0.1838479234
0.07883005649
0.009408585205
0.07732988152
0.09643725504
0.09446964523
0.1209770879
0.1191649019
0.03656126133
0.05408687436
0.1289851159
0.04092658999
0.02353694945
0.06585729843
0.2337967816
0.2193405394
0.2531273629
0.2385999648
0.06722339562
0.03213078814
0.04736917975
0.04635034698
0.07056346765
0.06966857084
0.006683963866
0.0426305953
0.1090659571
0.09518833726
0.1750306273
0.1644676048
0.02280980027
0.01158769703
0.02602149729
0.01680113896
0.02890217878
0.0110530153
0.01563739522
0.01133599343
0.02893549778
0.06836288971
0.01204102621
0.02219317624
0.003511205733
0.02267605274
0.01684819498
0.6004461741
0.3862689032
0.3707328739
0.2565804077
0.008110943061
0.005314008037
0.1801811883
0.3884102685
0.2746114169
0.006184572677
0.01466198119
0.01103398908
0.120423404
0.1139625855
0.04609375028
0.1969582676
0.1648528075
0.09687516949
0.01020844476
0.01751578206
0.01389785465
0.009008389634
0.01349897817
0.009499488541
0.04110595038
0.0178993383
0.01676469885
0.05213091684
0.06092962308
0.01834498201
0.02508906799
0.01164496844
0.0116366843
0.04934965008
0.1526230285
0.3495048449
0.3350533544
0.3688123421
0.3543306924
0.1562813245
0.2920160662
0.277478104
0.09365871164
0.03191906163
0.09548721631
0.08989446095
0.01073755735
0.01602535792
0.1133014648
0.04475010786
0.02027298951
0.01805473935
0.03795058667
0.0440818392
0.0399269676
0.05033044035
0.04553719606
0.03920912779
0.04581874667
0.01208743237
0.01170675112
0.03968670637
0.1981400874
0.3880479177
0.3735891518
0.05953193704
0.0616156844
0.1420582498
0.02663805723
0.02912896304
0.07085952028
0.09826266119
0.1031231833
0.09534142671
0.06977154676
0.08311100506
0.07737133615
0.09250562805
0.08538039042
0.0710483268
0.1202615596
0.3111653534
0.2967643481
0.3302680855
0.3159611642
0.1222508551
0.1024027576
0.03575638177
0.03649034757
0.02061663495
0.02141867227
0.08391752914
0.1292304749
0.0551531943
0.05910506405
0.03680312574
0.03749241676
0.1127849021
0.1303344237
0.0568079375
0.07590837952
0.007026395174
0.02178886919
0.04958119881
0.03755590715
0.07480846166
0.01997774006
0.02047006528
0.01954590845
0.0630406369
0.01065926461
0.004396639787
0.1242528197
0.1050220622
0.08797341562
0.08343868563
0.02827062597
0.02412235803
0.03731489326
0.08650528545
0.01776623505
0.01104608489
0.02303297604
0.0306821922
0.002874852853
0.0298754837
0.01932923626
0.0124300201
0.006369674583
0.01230565741
0.009349427104
0.009205650532
0.03341160575
0.02546527312
0.006602085146
0.03884128612
0.04070396742
0.01622680237
0.01127211716
0.007656461859
0.0117555889
0.01770409837
0.0111425616
0.01538141303
0.0516636786
0.010063282
0.009376003749
0.01088470024
0.01377378435
0.04244727389
0.01086741222
0.01056775475
0.01396984577
0.0108647253
0.01106155513
0.02308062821
0.01567887743
0.03304087084
0.02597790604
0.01084355244
0.01927799552
0.02190183263
0.01878010107
0.03037076764
0.02330975102
0.01838222065
0.01651220741
0.01285621876
0.01540019833
0.01205719461
0.04339780684
0.05132653794
0.0164639637
0.01549663872
0.01709507958
0.01773594377
0.05947054417
0.01053208613
0.01078586777
0.01416556946
0.01076555415
0.01089425355
0.05071269914
0.01120725721
0.0167190819
0.01475166178
0.01319426578
0.02442810702
0.06366713777
0.05798063363
0.01207662335
0.04793201735
0.04114952069
0.05589900633
0.05029714694
0.01269728679
0.01226919456
0.04442898097
0.03657854977
0.1044713855
0.09749717444
0.03559127211
0.04595722282
0.1122284252
0.1063893378
0.04659278004
0.04557679866
0.07204644296
0.08870322901
0.1114223714
0.06631487803
0.08293785371
0.07319508127
0.06246981776
0.1536740419
0.139549599
0.1229492496
0.1578779511
0.06237982362
0.04143495056
0.04855021853
0.0606921663
0.03600980915
0.04054887507
0.02808269205
0.02668023281
0.04344369281
0.01937329086
0.01949429288
0.01544664574
0.02787417676
0.03178553123
0.020266786
0.02812123969
0.03469419711
0.03696848578
0.02941515611
0.02864723279
0.09942904514
0.08610353664
0.1068743602
0.1022604734
0.02982374974
0.07663120434
0.07411605739
0.08232136163
0.0775431399
0.03628626727
0.1269177677
0.1213574072
0.1360977283
0.1289174816
0.03693987442
0.0322325688
0.1130151683
0.1084887305
0.119599514
0.114607943
0.032607776
0.01269793243
0.01225347275
0.04554512279
0.04132543633
0.0124340246
0.01285934259
0.04253610443
0.04172616893
0.04480802147
0.04281459791
0.04025301795
0.03916372033
0.04146019875
0.04053185626
0.07032622414
0.06815031957
0.07333829842
0.07109041344
0.06219768664
0.04763482829
0.06723727892
0.06495463928
0.03004086725
0.02535818094
0.03917550142
0.03260193847
0.008181356356
0.01607320674
0.01502152895
0.02366414741
0.01664496562
0.03478033412
0.03539427808
0.1009235484
0.02052433457
0.02032422563
0.02117157131
0.02071229461
0.01968163748
0.08642722244
0.02200686255
0.03268488986
0.03968545573
0.05316013098
0.1272270071
0.03628921392
0.02327614605
0.0390216007
0.03599687321
0.02194004124
0.02140861204
0.02285633428
0.02216391662
0.1143293802
0.03772907201
0.0386339831
0.006522454024
0.0334272574
0.009335370247
0.01002774432
0.009322601028
0.03095796813
0.007241130791
0.02448853022
0.01038859275
0.01074051561
0.04891409603
0.04238337797
0.01937227356
0.01986737532
0.07380912113
0.06530175746
0.01848890218
0.01930348544
0.009933835477
0.0271772458
0.08066603938
0.07187310426
0.01206945833
0.01169088201
0.01696843496
0.01130572418
0.01194326211
0.02091347283
0.0297624385
0.007686842253
0.01285596048
0.01102761819
0.01187976397
0.02014525613
0.05672200656
0.1208172263
0.15674274
0.009722189515
0.009690866061
0.1876890722
0.2396214732
0.1994506115
0.006554646377
0.04477378764
0.01533759832
0.02228248705
0.1375508988
0.1432502367
0.1601903967
0.005030273773
0.007947866088
0.005891191156
0.004957040355
0.006061841449
0.004758529938
0.06086560077
0.03823094885
0.02384182249
0.02649155753
0.02345464696
0.02726018618
0.2346937937
0.4260395337
0.4118990771
0.445017235
0.4306451971
0.2393568617
0.0546255243
0.04720474228
0.01396860757
0.08049261096
0.0941581781
0.1347023452
0.1200316621
0.1140886122
0.04645363127
0.02886835911
0.03449123802
0.03334617566
0.407147461
0.3928196518
0.2023338694
0.1589725628
0.06773031188
0.07183819563
0.07515277527
0.08682423508
0.175055066
0.0571805758
0.1289502578
0.1220975959
0.01075634377
0.01100434111
0.01694004358
0.01912086492
0.01940668843
0.03153968124
0.0118812133
0.01016597881
0.01026786659
0.03261568549
0.06566241212
0.05672688209
0.01794605357
0.03014981482
0.01869882929
0.01886272253
0.01833074968
0.01501760626
0.009525451889
0.01239659041
0.01133740441
0.01006052658
0.02785594809
0.03490704093
0.07134131517
0.04091216133
0.0386211898
0.03528859788
0.02597837014
0.05411306185
0.01801890955
0.02519342806
0.01077174181
0.007532970061
0.007643131103
0.01096773439
0.01078051384
0.02474757359
0.01560929723
0.01058352136
0.02223233198
0.01998875092
0.01834754346
0.01865442833
0.02252269801
0.01996621246
0.01135058179
0.012215364
0.007018497927
0.009279690447
0.01164538726
0.07158361928
0.06555617314
0.02659846826
0.009375309988
0.0162283653
0.01454745939
0.01090904097
0.01653584597
0.01425837069
0.05008293867
0.03806595533
0.04367062721
0.07027919744
0.1016781167
0.09987026643
0.04199268143
0.0699567891
0.0658416038
0.09865400206
0.09631675989
0.06687816635
0.03639408334
0.04395972291
0.03775516576
0.02894626542
0.03007218416
0.02460674407
0.04928572354
0.04767355195
0.05498376594
0.02285020949
0.03333062648
0.03163924961
0.05280860261
0.05239673639
0.03029202176
0.02783724581
0.02740615546
0.03057758289
0.02984365931
0.03520630685
0.05973728865
0.05902836829
0.06398037185
0.06308577331
0.03835126534
0.031372551
0.05419172759
0.05361526839
0.05830177671
0.0575891356
0.03355945591
0.06489235914
0.06696161594
0.15697971
0.14379274
0.06224083079
0.06423807843
0.0944708402
0.09805756347
0.1926333163
0.02576289918
0.02562249377
0.02715825815
0.02693515593
0.0195523737
0.02534105971
0.02524177949
0.1772652707
0.08927280638
0.0931357091
0.009607166355
0.00967738242
0.01404318662
0.01332350802
0.009446269921
0.009587874858
0.009049068473
0.07233400177
0.03031834908
0.03731693982
0.137861428
0.1312371502
0.06047861483
0.07030511593
0.145853623
0.1398437406
0.03087324356
0.03093968355
0.04773591101
0.04601088299
0.03047921543
0.03043989422
0.0100004128
0.02166004765
0.03425689433
0.03404029917
0.008245946214
0.0138075799
0.02318211851
0.01210809049
0.01168875652
0.01781967642
0.01806284967
0.02935007267
0.01115742809
0.008011361122
0.01103953178
0.01105381951
0.02741140623
0.01733849428
0.01791767417
0.01555473873
0.04194193675
0.03545376225
0.009882256408
0.009925947044
0.01084753301
0.01138177099
0.01869964717
0.006703720068
0.004361626396
0.008084418065
0.01283266092
0.00955160326
0.01032486309
0.009501501949
0.009759539095
0.01150268753
0.0106469994
0.007048036945
0.005403993831
0.01536759344
0.01583975469
0.01483439699
0.01499453672
0.01738338837
0.02641054986
0.02678217877
0.02591156049
0.02624281286
0.01722042182
0.01148450757
0.0203093113
0.02025997873
0.02098245191
0.02045004268
0.01127119863
0.01927886514
0.02955373789
0.03275022927
0.02709780546
0.02795661669
0.01869334484
0.01203651354
0.02026266838
0.02023980439
0.02021697708
0.02024905436
0.01185514578
0.01426778698
0.01458967371
0.0137204992
0.01444650962
0.03591608845
0.05535567524
0.05486977513
0.02086710723
0.03448595405
0.03424675753
0.03576744424
0.03482958789
0.02106887321
0.01038108251
0.01019550444
0.01040290372
0.01039678251
0.01939909342
0.01921248904
0.01981094044
0.01960185308
0.01511321829
0.03355496027
0.01999103718
0.02089736278
0.02015954083
0.03379025005
0.03357599232
0.0341031196
0.03392829213
0.02029041392
0.0206928166
0.02010905401
0.0302700295
0.02164596398
0.01551616899
0.006890529063
0.01012453126
0.01102619575
0.006810006653
0.04071780388
0.02808180744
0.003038459755
0.02827099701
0.0434186607
0.04303944815
0.01772265394
0.01098205239
0.008069088693
0.003951697618
0.01182609774
0.01186371112
0.01848150301
0.01863401348
0.03007352092
0.01875145695
0.009594269184
0.008673684355
0.01510711221
0.004065467215
0.009266408702
0.007229508711
0.005286199127
0.006622525933
0.009318445516
0.007478387396
0.009839064844
0.01084841021
0.01017028794
0.04066390875
0.03091097697
0.008590019363
0.01077913914
0.01212574377
0.01866985219
0.02103339787
0.01293036936
0.01591200826
0.01460084845
0.00961670666
0.006504184215
0.009656915199
0.01050100079
0.007222173286
0.01056394804
0.01063954828
0.01242881984
0.01096584463
0.01080542686
0.01081795044
0.01063253673
0.01157790571
0.01130285117
0.01098293432
0.01088695527
0.01111788987
0.012814306
0.01204368773
0.02398531357
0.02163889732
0.02376156883
0.02715252619
0.02969885724
0.02333442338
0.02165273718
0.02315412015
0.01466623759
0.02339994883
0.02484347274
0.01699445758
0.02350586286
0.01555972073
0.01612762357
0.02540985471
0.02573559249
0.02484469205
0.02528598054
0.01591208179
0.01728920793
0.03029889338
0.02979077211
0.01066603261
0.01073007732
0.01223549407
0.009740254144
0.01005700676
0.01038273471
0.01078827441
0.01037885068
0.01344925069
0.02508372781
0.02243373067
0.02899236129
0.02750770542
0.01566911315
0.009239724975
0.01031641258
0.01751249967
0.006737157034
0.009284302789
0.009272119231
0.01259994937
0.009287271115
0.009507422266
0.02135007482
0.01895830348
0.0105687678
0.04804668297
0.04434271155
0.08774443893
0.07781668199
0.04409302941
0.06656683506
0.09522401884
0.09098839726
0.03637314762
0.03315923951
0.03255855976
0.02329469553
0.02890239019
0.04696897301
0.04746805902
0.04039206892
0.02800725792
0.03978910154
0.04037736403
0.03627936045
0.03748440799
0.02643652115
0.0184246422
0.01973026261
0.02966085302
0.0212518486
0.02027889729
0.02248691827
0.02143692353
0.03010610478
0.02076333759
0.02143634644
0.01718924778
0.02218789563
0.04795874473
0.04817495517
0.03016720175
0.02978493729
0.05128841635
0.05128181937
0.02856110789
0.028147177
0.02937090173
0.02892643036
0.061051033
0.0603647334
0.03564484101
0.0376290169
0.06239520652
0.06172724951
0.05555410879
0.05493269399
0.03185441735
0.03303326472
0.0568637002
0.05620505428
0.01251530346
0.02027998122
0.02028881594
0.02028466674
0.02029901116
0.01245566543
0.01294628951
0.01878374215
0.01630785001
0.02017512857
0.0198049683
0.01291330964
0.04225264763
0.02446411159
0.02473552343
0.02404698642
0.02424973739
0.04199559431
0.04365037397
0.02567071977
0.02614318843
0.02499836143
0.0253092587
0.04314980698
0.03985540411
0.02283203271
0.02307434821
0.02246690532
0.02269886887
0.03961851192
0.04116806261
0.02365790152
0.02384600608
0.02323541483
0.02347203674
0.04088642682
0.02621000287
0.02602774236
0.06960968893
0.04572148158
0.04606301395
0.04497307415
0.04526786607
0.06880994738
0.0266664756
0.02645972227
0.02411473695
0.02538115022
0.0599893346
0.0410567491
0.04073374131
0.02702982699
0.02843099333
0.05321099671
0.06672218914
0.04422553432
0.04443297132
0.04346281446
0.04340540772
0.06536299595
0.02490461821
0.02495767706
0.009564199639
0.009852238809
0.009310231899
0.01262070648
0.01095695293
0.01568635066
0.01004965029
0.009953248895
0.01008307273
0.01007270893
0.01546468919
0.02116598815
0.01143160536
0.01328503988
0.01016542587
0.009858525825
0.01832257865
0.03470769904
0.05269816199
0.052378299
0.05414717792
0.05377622015
0.03529666134
0.02048451315
0.02024820674
0.02105374589
0.02078004063
0.02083042517
0.01637116392
0.02309212084
0.04283803498
0.03807615682
0.05016315899
0.04833351807
0.03275637065
0.02525742527
0.01761298667
0.02263206832
0.02400521874
0.03832408757
0.02212180936
0.0224076866
0.02147050787
0.02218295459
0.03839348438
0.02177850566
0.02155121006
0.02259779864
0.02235319475
0.009579334016
0.01260496518
0.01194840312
0.01661105451
0.01387124358
0.009512951183
0.009277574261
0.009514271108
0.01121025305
0.01023153782
0.006565200235
0.01054196916
0.01098965416
0.010854735
0.01296605494
0.01175250252
0.0103698253
0.01878031281
0.01873783264
0.01901747737
0.01895919342
0.0288794553
0.02881813371
0.04403211971
0.01799307269
0.01900549803
0.01851478802
0.01857909883
0.01958839466
0.03301668819
0.03267187898
0.03342794316
0.03315628775
0.01967082734
0.01903041793
0.03198349074
0.03021252865
0.03254166528
0.03198962503
0.01902034424
0.01020033446
0.0414206396
0.04081157727
0.02701082956
0.01214497659
0.01025849193
0.0103374817
0.007651520247
0.010609684
0.01175580921
0.01755438484
0.01157368699
0.01194012304
0.01177486055
0.0294715155
0.01816786557
0.01837035999
0.01085753593
0.01121118693
0.01107628177
0.01133878517
0.01148740582
0.008075640292
0.008042418461
0.01157322869
0.01115942607
0.01138366239
0.01472999185
0.01817117349
0.02749126881
1.154902445
1.155230156
1.155546468
1.155374949
1.155965538
1.155915955
1.156207528
1.157119416
1.156511206
1.157491683
1.069684192
1.157284371
1.032060253
0.9382175041
1.114843681
0.9416566693
0.8989944072
1.069663072
0.9040618755
0.9367132426
1.102436717
0.9531695093
1.046521792
1.157604927
1.080230906
1.157718542
1.156824532
1.15735196
1.156455628
1.156177506
1.154503743
1.155201019
1.155172457
1.155519179
1.15682088
1.156068914
1.1573697
0.9586557936
1.157518214
0.8971227269
0.7593698019
0.9925851787