/*--------------------------------*- C++ -*----------------------------------*\
| =========                 |                                                 |
| \\      /  F ield         | OpenFOAM: The Open Source CFD Toolbox           |
|  \\    /   O peration     | Version:  v1912                                 |
|   \\  /    A nd           | Website:  www.openfoam.com                      |
|    \\/     M anipulation  |                                                 |
\*---------------------------------------------------------------------------*/
FoamFile
{
    version     2.0;
    format      ascii;
    class       surfaceScalarField;
    location    "2.67";
    object      phi;
}
// * * * * * * * * * * * * * * * * * * * * * * * * * * * * * * * * * * * * * //

dimensions      [0 3 -1 0 0 0 0];
oriented        oriented;


internalField   nonuniform List<scalar> 
25162
(
0.0004365040263
0.916213496
0.0005419755923
0.9165945284
0.0006386297805
0.9165533458
0.0003118442367
0.9165775442
0.0003992413883
0.4583384344
0.0003234098521
0.4583052057
0.0004002166467
-0.0004054223335
-0.0005066174278
0.4582798311
0.0005767862842
-0.000644660517
0.458226897
0.0007527635488
-0.000871066448
0.4582012514
0.0009998150548
-0.001147677407
0.4581754202
0.001307257214
-0.001469513201
0.4581722374
0.001632275835
-0.001792179922
0.4582005568
0.001923123105
-0.002027551662
0.4582683589
0.002092692766
-0.002112630438
0.458359158
0.002088472416
-0.002023606044
0.4584352611
0.001918344995
-0.001793094617
0.4584769655
0.001651129153
-0.00149078115
0.4584855096
0.001340271532
-0.001189789995
0.4584898594
0.001014930565
-0.0009384307153
0.4584609926
0.0008274380991
-0.00068328079
0.4584674674
0.0005658133898
-0.001631907035
0.9186912754
0.0001060916697
-0.0005154599881
-0.001022060068
0.918740153
2.522973614e-05
0.9158027102
0.9138252297
0.001199067413
0.9150144286
0.001902343431
0.9158912524
0.002170435681
0.9162852536
0.0006364016575
0.9170738201
0.001037758096
0.4580613571
0.0007637493398
-0.4581887048
-0.4581693187
-0.000940014964
0.457947916
0.001161417637
-0.458017665
-0.001435854578
0.4576866848
0.0008308927955
0.0009359419116
-0.2289443542
-0.001010767127
0.2288566925
0.001098428879
-0.001475548005
-0.2288775074
0.2287607131
0.001592342248
-0.002071254378
-0.2288192314
0.2286661891
0.002224296666
-0.002779532347
-0.228803565
0.2286314911
0.002951606309
-0.003491944101
-0.2288562977
0.2287362663
0.003612087091
-0.003584538519
-0.2290098653
0.2288410225
0.003753194606
-0.004225375449
-0.229202518
0.2291741279
0.004253765471
-0.004049984472
-0.2293341802
0.2294164929
0.003967671757
-0.003559283519
-0.2294169598
0.2295738802
0.003402363105
-0.002903272159
-0.2294321304
0.2296120814
0.002723321082
-0.002247837661
-0.2293995144
0.229564291
0.002083061009
-0.4588977808
-0.003203320495
0.4603564978
0.001744603498
-0.0004117802111
0.4609832232
-0.001295336729
-0.4592761062
-0.00145958738
0.9183143889
0.0002986211148
0.001537852722
-0.0008978658681
0.9181784315
0.0003966954116
0.9145081489
0.9142219251
0.001516621338
0.9134978072
0.004064822809
0.9133430509
0.006883535691
0.9134665407
0.002831919558
0.9148317405
0.006293695664
-0.4580087361
0.4578203425
0.003020313087
-0.4577486922
-0.003017774587
0.4583790936
0.00238737317
-0.4572373296
-0.002492741655
0.4569778767
0.001333003466
0.001419191131
-0.228432581
-0.001657426128
0.2282489767
0.001841030391
-0.2281781593
-0.002502724919
0.2279201485
0.002760735678
-0.2279890999
-0.003029391988
0.2308857996
0.0001437019486
-0.2336263159
0.009779609445
0.2363744156
-0.01247849723
-0.2326520727
0.01829978455
0.2338420669
-0.01945356079
-0.2278024775
0.02058217745
0.227443125
-0.0202283971
-0.2236903645
0.01681795133
0.2217836491
-0.01495441814
-0.2248932132
0.007241425336
0.2216491645
-0.004042004669
-0.2302937598
-0.006040669608
0.2299512846
0.006380989482
-0.2303916499
-0.005367466736
0.2307394989
0.005019617668
-0.003743824124
-0.230318106
0.2310060459
0.00305588422
-0.4630214254
-0.000340408272
0.461910673
0.001451160682
-0.4601167547
-0.001535147238
0.4601574237
0.001494478242
0.0004504780263
0.9202480148
-0.001370515967
-0.001013587981
0.001783311787
0.9168455978
0.0008288740932
0.9154625866
0.9150507992
0.0005110130229
0.9129867942
0.001123108497
0.9127309555
0.002344526461
0.9122451227
0.003177807669
0.9118603425
0.002138116859
-0.4570587744
0.4566200158
0.003616566246
-0.4599056639
-0.004836008075
0.4568446039
0.007897068052
-0.4584246896
-0.009172946606
0.459958189
0.002140186382
0.00549926088
-0.2275780523
-0.002139432185
0.2273666551
0.00235082934
-0.2287232503
-0.002025808931
0.2326474354
-0.001871212465
-0.2418856136
0.01289282943
0.2451358076
-0.01602182345
-0.2433776939
0.02300810886
0.244977979
-0.02447982347
-0.2362405938
0.02665444664
0.236467199
-0.02680971268
-0.226280795
0.02630965545
0.2259200426
-0.02596024965
-0.2171015616
0.02426403496
0.2161287347
-0.02338168709
-0.2128960494
0.01905223745
0.2106292299
-0.01692020588
-0.2185168906
0.008373387306
0.2149693115
-0.004931923553
-0.2343759343
-0.001592470321
0.2370731137
-0.001109313646
-0.004066821611
-0.2319369714
0.2319792506
0.004024542428
-0.4619855257
-0.006150500174
0.4633019278
0.00483409808
-0.4609494701
-0.003530118504
0.4620209256
0.002458662958
0.003352009943
0.9204601008
-0.001887085596
-0.001677010368
0.002292101774
0.9179055059
0.001056531555
0.9166981568
0.9161073308
0.0001132166434
0.9128735775
0.0002851666878
0.9125590054
0.0006263229339
0.9119039665
0.001261220025
0.9107925048
0.0004329406177
-0.4563436452
0.4555389875
0.002065877733
-0.4554054831
-0.002498792519
0.4547648017
0.003139473952
-0.4538461681
-0.004018768068
0.4530526722
0.002550734452
0.002261529459
-0.22798067
-0.004401912396
0.226544646
0.005839679938
-0.2443357709
0.0006281695941
0.2496613005
-0.00580666745
-0.2524222843
0.01632084968
0.2539166416
-0.01760024594
-0.2464719645
0.01784134737
0.2456739874
-0.01687065286
-0.2345535045
0.01202000395
0.2328362656
-0.01022389414
-0.2249962495
0.0065000526
0.2246562655
-0.006172281502
-0.2159242877
0.008103693446
0.2171354148
-0.009420183397
-0.207033245
0.01336875964
0.2072537492
-0.01378193146
-0.2166788381
0.02248082207
0.2092758162
-0.01528498829
-0.2199504165
0.00376961148
0.2167430179
-0.000678752368
-0.005906995739
-0.2334772213
0.2340761619
0.005308055137
-0.4650847173
-0.007197653262
0.4668104825
0.005471888015
-0.4630509819
-0.004205782443
0.4641211588
0.003135605575
0.004144322699
0.92262197
-0.003520647361
-0.002785544512
0.002280043256
0.9197697854
0.001031743808
0.9179464563
0.9171390746
-0.0001821816737
0.9130557592
-0.0002615350926
0.9126383588
-8.882367537e-05
0.911731255
0.0001850002477
0.9103620072
0.0001566736476
-0.45466042
0.4543457018
0.0004997184719
-0.45424624
-0.00146628164
0.4534740364
0.002238485295
-0.4522107245
-0.002799605784
0.451174702
0.0018957239
0.001939904292
-0.2335139538
-0.0001461349617
0.2358799945
-0.002143218774
-0.2528945386
0.007868258252
0.2543837957
-0.009118977667
-0.2553178523
0.007878128293
0.2530382273
-0.005335706603
-0.2391326274
-0.004462234887
0.2391428609
0.004606311873
-0.2239072331
-0.01816528378
0.2207061376
0.02140384073
-0.2234314163
-0.03119776851
0.2229874683
0.03163915313
-0.2268837118
-0.02158752706
0.2305463189
0.01786448604
-0.2187952107
0.0003680674297
0.219623657
-0.001388845154
-0.2030683902
0.003906231852
0.2034177708
-0.004521009597
-0.2095962543
0.00318557266
0.208145454
-0.001950690329
-0.003563371141
-0.2333709731
0.2320502535
0.00485464935
-0.4683515482
-0.007438290548
0.4699191692
0.005870669537
-0.464805122
-0.004702896496
0.465443641
0.004064377466
0.003440172321
0.9251724043
-0.002880737371
-0.003109869292
0.001869959416
0.9213399983
0.0007737960284
0.9190426197
0.9179128706
-0.0006168192245
0.9136725784
-0.001099498502
0.9131210381
-0.001421586073
0.9120533426
-0.0002016750089
0.9101065646
-0.0009644684751
-0.454224682
0.4539238154
9.919159785e-05
-0.4524238743
-0.000327893951
0.452058427
0.0006933412553
-0.4507804228
-0.001665913821
0.4505051968
0.0009981721711
0.0009438107522
-0.2405911512
0.001567484263
0.2419102718
-0.00274337902
-0.2589001666
0.00483448543
0.2562483405
-0.001883715872
-0.2484259611
-0.0001025290117
0.2469056666
0.001883413311
-0.2232993377
-0.01152872979
0.2176269856
0.01729023021
-0.209361876
-0.03648305158
0.1062966023
0.1005515803
0.01733058936
0.02166615557
-0.02673028755
-0.1088755092
0.1082860738
0.02731972297
-0.02172294071
-0.2485646615
0.04134279912
-0.02214785175
0.1251095775
0.1259830774
-0.02495793352
-0.2293078146
0.2346588257
0.0194788022
-0.2076066805
-0.008777982784
0.2110208615
0.005083053348
-0.206963903
0.0005415328733
0.2065862871
-0.0004375072584
-0.001624744613
-0.2262371689
0.2250547985
0.002701627523
-0.471491118
-0.006304109307
0.4725207999
0.005274427378
-0.4665201968
-0.003985892542
0.4675718657
0.002934223626
0.00194003613
0.926978874
-0.00172816668
-0.002018339164
0.0008879895832
0.9223920448
0.0003197610133
0.9196108482
0.9182326316
-0.001072702188
0.9147452806
-0.002089911183
0.9141382471
-0.002908007494
0.9128714389
-0.001530740324
0.9108504438
-0.00212114635
-0.4539177232
0.4539402694
-0.001553286533
-0.4519053048
0.001628355699
0.451828966
-0.001552016949
-0.44966542
0.001405709936
0.4500548085
-0.0006240457847
-0.001155716684
-0.2438101721
0.0002582067042
0.2437941444
-6.396559653e-05
-0.2558926907
-0.001202649484
0.2557059385
0.001702069436
-0.2422876621
-0.004384991982
0.2413341006
0.005587318729
-0.207961263
-0.009733900536
0.206519072
0.01120563991
-0.09345676236
-0.007325429171
0.09339540127
0.007386790253
-0.02920130901
-0.1376291694
0.140362125
0.02646835337
-0.02912127257
-0.2521441457
0.2570659769
0.0241311759
-0.2173296383
-0.01398164963
0.2194055228
0.01163492075
-0.207739199
-0.006584785147
0.2086147637
0.005403142444
-0.0006731461858
-0.2236251037
0.2231623605
0.0009831870521
-0.4738948531
-0.003681656751
0.4750092748
0.002567234992
-0.4683968707
-0.001801645322
0.4690664686
0.001132047485
-0.0004482331173
0.9277791027
0.0001461774614
-0.0004981730346
-0.0005668728046
0.9225106845
-0.0003483350801
0.9193923105
0.9178842966
-0.001522391004
0.9162676716
-0.002973898374
0.9155897545
-0.004498319775
0.9143958603
-0.002646335569
0.912227735
-0.003229275473
-0.4541814218
0.454412842
-0.002877755738
-0.4519405322
0.003146507385
0.4521957838
-0.003401758948
-0.4503220663
0.003638415312
0.4509234973
-0.002000078618
-0.002205879185
-0.2446144037
0.002415476383
0.244676643
-0.002279703905
-0.2543997708
0.0009877381656
0.254069728
-0.0003341414076
-0.2390020902
-0.001771877897
0.2386525153
0.00236413478
-0.2057863426
-0.003097079323
0.2062113396
0.002685137924
-0.09705481736
0.0004086924147
0.09761900787
-0.0009728829235
-0.01308167314
-0.1533549734
0.153974948
0.01246169859
-0.01627104786
-0.2682941522
0.2703162738
0.0142101204
-0.2255446335
-0.008659863856
0.226900534
0.007040740797
-0.2109671561
-0.002950482284
0.2116052811
0.001991356302
-0.0001943622555
-0.2233101789
0.2233253341
4.943237005e-06
-0.4763008182
6.482060464e-05
0.477276173
-0.001040175444
-0.4693841839
0.001460772243
0.469513719
-0.00159030736
-0.003317143061
0.9270420824
0.00232631528
0.001727848144
-0.002335574683
0.9215291161
-0.001211562026
0.9182682978
0.9166727345
-0.001932741862
0.9182004135
-0.003980087339
0.9176370999
-0.005972215
0.916387988
-0.003753492136
0.9143527325
-0.004343720304
-0.4548672439
0.4553172864
-0.004203534631
-0.4525458297
0.004721346656
0.4531360826
-0.005311599531
-0.4516925175
0.005881917069
0.4528772715
-0.003302044871
-0.003713248923
-0.2449195529
0.003881795861
0.2450912925
-0.003842363057
-0.2534456025
0.003012659163
0.2533504819
-0.00258537114
-0.2382958038
0.001349731459
0.2382881693
-0.001100934145
-0.2080440015
0.001351267454
0.2086922046
-0.001992026133
-0.1003424379
0.002386012623
0.1006232074
-0.001317703495
-0.001349078625
0.004449238241
-0.1519602214
0.1510330152
-0.00352203197
0.0006621459782
-0.2701820711
0.2686621288
0.0008158631801
-0.2280184435
-0.002337140361
0.2279059737
0.002182464626
-0.2132028027
-0.000743364828
0.2135122507
0.0001101540073
0.001596524488
-0.2244235722
0.2246655357
-0.002013018871
-0.4771837025
0.005148324016
0.4765333396
-0.004497961134
-0.469231392
0.004221768968
0.4694188222
-0.004409199176
-0.006459440179
0.9246967933
0.004771671121
0.00403305817
-0.004236075298
0.9193057512
-0.002136329886
0.9161685524
0.9145364046
-0.00242250583
0.9206229193
-0.004840582321
0.9200551764
-0.007411897621
0.9189593033
-0.00481579344
0.9171435129
-0.005386884575
-0.4559741655
0.4566282528
-0.005469880729
-0.4538101455
0.006265015262
0.4545586578
-0.0070135276
-0.4544600291
0.007880987003
0.4563557197
-0.00474112553
-0.004959084326
-0.2457782791
0.005229623763
0.2460556878
-0.005280679741
-0.2533114577
0.004800804204
0.2533671728
-0.004514993076
-0.2385312269
0.003783493759
0.2386820596
-0.003695683626
-0.2107167522
0.004283634051
0.2114189848
-0.004983032384
-0.102279385
0.003623212509
0.1024687339
-0.001891982906
-0.001920578553
0.0140701657
-0.1427348124
0.1414145833
-0.01274993655
0.01251433578
-0.260541563
0.2567970138
-0.008842497288
-0.2251507599
0.001376909356
0.2257301913
-0.002232913805
-0.2139938766
0.002394784401
0.2140889328
-0.002811277999
0.004401228098
-0.2263498659
0.2266641198
-0.004870499806
-0.475455283
0.009916798179
0.4740054347
-0.008466949908
-0.4694191474
0.007190848121
0.4682678189
-0.006039519631
-0.009342834147
0.9210092123
0.006780415486
0.006249999613
-0.00605750165
0.9160204187
-0.002976781575
0.9130878323
0.9115596231
-0.002862893267
0.9234858126
-0.005751085667
0.9229433688
-0.00878034339
0.921988561
-0.005766795247
0.9202322571
-0.006102292372
-0.4574474957
0.4582555844
-0.006574883969
-0.4555177164
0.007512021088
0.4565270659
-0.008521370522
-0.4583363879
0.009625460183
0.4600097513
-0.005796924255
-0.005394809334
-0.2470182018
0.006453185871
0.2473969366
-0.006589158324
-0.2536994343
0.006352811164
0.25385691
-0.006159769219
-0.2392875087
0.005674761645
0.2395158085
-0.005668682807
-0.2137005267
0.006477886887
0.2145467166
-0.007323812051
-0.1037267555
0.004880572531
0.1039170679
-0.002516334377
-0.002554550498
0.01743775715
-0.1324470959
0.1311527346
-0.01614339584
0.01737037786
-0.2456881651
0.2418375438
-0.01364161909
-0.2217549923
0.008720486428
0.2179505233
-0.005215430622
-0.2137943342
0.002899349163
0.2134699017
-0.002882548232
0.006632461277
-0.2280558564
0.2284594999
-0.00715624948
-0.4722504274
0.0137378604
0.4702225365
-0.01170996949
-0.4670194181
0.009952565343
0.4655092318
-0.008442378979
-0.01185754342
0.9178676331
0.007767823034
0.00723129958
-0.007619083615
0.9117819589
-0.003699754075
0.9091685028
0.907859869
-0.006936343309
0.9304221559
-0.01405344499
0.9300604705
-0.02127995011
0.9292150661
-0.006775346691
0.9279053166
-0.02217766293
-0.4592495177
0.4602463688
-0.007772197749
-0.4575732475
0.008864884259
0.4588032787
-0.01009491543
-0.4631019291
0.01132082163
0.465765229
-0.007044972143
-0.00676027211
-0.2482487352
0.008576722008
0.2491029702
-0.009168788393
-0.2543896004
0.007856938009
0.2542523905
-0.007362646718
-0.2402448679
0.006005290913
0.2413775454
-0.006906567308
-0.2174217572
0.007989662177
0.2184660791
-0.004498400966
-0.004535583071
-0.05285658152
0.00310021046
0.05292648762
-0.00317011656
-0.05790666776
0.006461138422
0.05741060174
-0.01257105477
0.006605982376
0.01583451941
-0.1234382089
0.2432964945
-0.02774241613
0.0154367386
-0.1233871275
-0.231982698
0.01584277645
0.227285492
-0.01132413969
-0.2132782313
0.007537694443
0.2123968556
-0.006983899456
-0.2135171027
0.007476234914
0.2137238047
-0.007970791891
0.009393590104
-0.2305439487
0.230720875
-0.009636318729
-0.4678634148
0.01614158257
0.4655070941
-0.0137852619
-0.4639370564
0.01194638519
0.4622550543
-0.01026438312
-0.01377875548
0.9134813982
0.009318642472
0.008846347827
-0.008852510608
0.906855714
-0.004347801398
0.9046637935
0.9035120676
-0.003379468752
0.9338016246
-0.006857334855
0.9335383366
-0.01053722816
0.9328949594
-0.007189580214
0.9319075995
-0.007349930826
-0.4632634166
0.4643117818
-0.008237945426
-0.4618299307
0.009407705827
0.4630874751
-0.01066525024
-0.4687946222
0.01203376402
0.4686026568
-0.005962060162
-0.005671770201
-0.2505574549
0.005306141316
0.2503982028
-0.004871262174
-0.2551514115
0.003624993049
0.2552752666
-0.003390117778
-0.2412771901
0.003912566529
0.2422273237
-0.004648544217
-0.2221961479
0.008806225822
0.2233388309
-0.004969783125
-0.004979125631
-0.05488600869
0.007159845134
0.1101958341
-0.05483975596
-0.003807920043
-0.003821994591
-0.111276621
0.008645910594
0.1111729564
-0.01693543971
0.00839319368
0.02699274041
-0.2360513626
0.233201094
-0.02415049239
-0.2190468024
0.01080445568
0.217380053
-0.009370655377
-0.2115194194
0.007944962593
0.2090632654
-0.005819344731
-0.2147415622
0.005861656363
0.2171883137
-0.008543449765
0.01054615131
-0.2324703191
0.2323423852
-0.01042792518
-0.4634069085
0.01693966336
0.4615242653
-0.0150570202
-0.460564974
0.0132552498
0.458640253
-0.01133052882
-0.01330851303
0.9082730822
0.009192958189
0.009323870806
-0.009600913128
0.9031481141
-0.004694589915
0.8997574703
0.8988174776
-0.003529627088
0.9373312517
-0.007156237706
0.9371649472
-0.01097899608
0.9367177177
-0.007495570391
0.9360295096
-0.007605335843
-0.4654442053
0.4665620664
-0.008613431582
-0.4643633524
0.009821977842
0.4656474643
-0.01110608969
-0.4673945696
0.01249169979
0.4661606787
-0.005492076776
-0.00568863067
-0.2485524803
0.003212325818
0.2475153361
-0.001942526145
-0.2549475237
-0.001493179436
0.2545275087
0.002252116701
-0.2458244022
-0.002387721537
0.2469491497
0.001508524832
-0.2292564363
0.004387133174
0.232348259
-0.007428117824
-0.1133709953
0.01291613041
0.2263044835
-0.01276214219
-0.1130874765
-0.2248590077
0.01858756362
0.2254444314
-0.01917298737
-0.2245933308
0.01462845545
0.2221294271
-0.01225794128
-0.2115842882
0.007622867329
0.2106674892
-0.006988553053
-0.2070060641
0.007387523769
0.2073608737
-0.008077748206
-0.2186510148
0.01077237642
0.2178112438
-0.0101070165
0.0124379269
-0.2319758092
0.2295778869
-0.01004000457
-0.4598618519
0.01839608719
0.4565622844
-0.01509651969
-0.4567140331
0.0134611647
0.4545577402
-0.01130487178
-0.01364826407
0.9032184271
0.009420181148
0.009282738047
-0.009636414659
0.8991362647
-0.004893378432
0.8950144341
0.8939240992
-0.003590462685
0.9409217143
-0.007269416558
0.940843901
-0.01112474598
0.9405730472
-0.007604370217
0.9401557068
-0.007646572951
-0.4676869336
0.4688144535
-0.008731890073
-0.4669221355
0.009929246259
0.4681806608
-0.01118777163
-0.4661383524
0.01253212731
0.4675418523
-0.006958128524
-0.006977295519
-0.2433582471
0.003993211443
0.2417010826
-0.002194988178
-0.2520216317
-0.003226089295
0.2507570841
0.004769265009
-0.248950469
-0.007601282743
0.2490162699
0.007792703062
-0.2391766099
-0.005998964073
0.2405397082
0.004771897431
-0.2282989532
-0.0007569520011
0.2293072658
-0.0002229762654
-0.2238173704
0.002202685734
0.223439123
-0.001873796422
-0.2173350351
-9.576061326e-05
0.2166278051
0.0006347787151
-0.2097642072
-0.00065186165
0.2101287605
9.105465634e-06
-0.2099382733
0.003615879591
0.2112670653
-0.005209999503
-0.2210106342
0.01015653864
0.2223690317
-0.01160889145
0.01162987124
-0.2275331098
0.2269096364
-0.01100639788
-0.455693021
0.0184170552
0.4529035381
-0.01562757224
-0.4516127947
0.0121400208
0.449958051
-0.01048527715
-0.01271667607
0.8967867455
0.009814213765
0.009334143828
-0.007158745232
0.8935783338
-0.004916707617
0.8927723965
0.8890073916
-0.003570821828
0.9444925362
-0.007218151995
0.9444912312
-0.01101426076
0.9443691559
-0.007538019925
0.9441792957
-0.007499829729
-0.4699063957
0.471000515
-0.008632139205
-0.4694082015
0.009780324207
0.4706015498
-0.01097367251
-0.4689322912
0.0122325993
0.4702632617
-0.00681246301
-0.00675110681
-0.2363714693
0.007492867392
0.2350137658
-0.006116393159
-0.245901244
5.561146962e-05
0.244041605
0.001972607065
-0.2473564553
-0.007180276524
0.2462756947
0.008467175954
-0.2421923378
-0.0107194868
0.2420795863
0.01097578267
-0.2317700679
-0.01081096022
0.2323631332
0.01025767454
-0.2235086414
-0.00890961165
0.2237947433
0.008554473871
-0.2168044573
-0.006859896512
0.217481551
0.006014027901
-0.2130205875
-0.002268510385
0.2144629893
0.0006125428144
-0.2162966886
0.005182716679
0.2181842294
-0.007217074915
-0.2258705028
0.01248745468
0.2254765025
-0.01209428736
0.0105890554
-0.2252565916
0.2247592781
-0.01009174193
-0.4491520531
0.01716623077
0.4473934206
-0.0154075983
-0.4483397649
0.01372810531
0.4467144154
-0.01210275579
-0.01173688381
0.8895673203
0.01033897139
0.008617337692
-0.00667025223
0.8885117023
-0.004506745032
0.8906088892
0.8845006465
-0.003484921496
0.9479774576
-0.007032383576
0.9480386932
-0.01069679475
0.9480335671
-0.007321693836
0.9480211646
-0.007216969821
-0.4720430617
0.4730764255
-0.008355057698
-0.4717500106
0.009429246441
0.4728537685
-0.01053300428
-0.4715290494
0.01168151808
0.4727251798
-0.006484181473
-0.006393467037
-0.235698752
0.007114636391
0.2360203102
-0.007436194605
-0.2383611337
0.007408983812
0.2365981409
-0.005615644809
-0.2421018292
0.0002425648051
0.2405805299
0.001381505525
-0.2404417277
-0.005266103194
0.2396299806
0.006170249078
-0.2333482738
-0.007686035278
0.2334258688
0.007636166197
-0.2250262824
-0.006281960147
0.2255082343
0.005748448965
-0.2206530923
-0.002658899956
0.2219175992
0.001287602332
-0.2195319473
0.003671722736
0.2212858632
-0.005523664589
-0.2238160278
0.0111172502
0.2247201955
-0.01203210826
-0.224179061
0.01100336112
0.2238075351
-0.01063183517
0.009482969122
-0.2234559606
0.2230628821
-0.009089890555
-0.4457789945
0.01568365647
0.4443026547
-0.01420731664
-0.4452231498
0.0127604937
0.4437923119
-0.01132965581
-0.0143909748
0.8843793016
0.009644990061
0.009934003417
-0.009455954839
0.8835766823
-0.001869277636
0.883022212
0.8826313689
-0.003346838337
0.951324296
-0.006741412387
0.9514332673
-0.01022012634
0.951512281
-0.006988802229
0.9516264054
-0.006836564955
-0.4740523603
0.4750111323
-0.007947574167
-0.4739053145
0.008934480835
0.4749075337
-0.009936700033
-0.4738504316
0.0109655578
0.4749053094
-0.006064645647
-0.005955789949
-0.2369127074
0.006611840299
0.237187377
-0.006886509918
-0.2367500642
0.007714236718
0.237026106
-0.007990278491
-0.2363984114
0.008810143407
0.2365137325
-0.00892400938
-0.2370328566
0.006496496004
0.2362375605
-0.005681446074
-0.2330229255
0.004153212171
0.2326633063
-0.00378533438
-0.2270651485
0.004978327869
0.2275816277
-0.005510995351
-0.2256665571
0.00814882481
0.2267726047
-0.009273617151
-0.2253739166
0.01126663227
0.2252348188
-0.01112753441
-0.2239300258
0.01057288543
0.2237051335
-0.01034799308
-0.2228401697
0.009580324095
0.2225598805
-0.009300034932
0.008410690408
-0.2220340435
0.221719124
-0.008095770919
-0.442953398
0.01413286337
0.4417213406
-0.01290080593
-0.4424914061
0.01166698252
0.4412476356
-0.01042321202
-0.01336905388
0.8796995705
0.008860735283
0.009188049635
-0.008830577803
0.8790382062
-0.004386245478
0.8785778797
0.8782451234
-0.003170816565
0.9544951125
-0.006375131798
0.9546375825
-0.009633225779
0.954770375
-0.006577234036
0.9549647319
-0.006394318255
-0.4759103012
0.4767875361
-0.007454468851
-0.4758554409
0.00834909754
0.4767535626
-0.009247219236
-0.4758929238
0.01015719558
0.4768136788
-0.005593878752
-0.005484071841
-0.2379449878
0.006065659931
0.2381773687
-0.006298040833
-0.2377720652
0.006983980593
0.2379957185
-0.007207633849
-0.2372168841
0.00785560263
0.237422599
-0.008061317585
-0.236231868
0.008634886907
0.2364056544
-0.008808673304
-0.2316410068
0.009173066342
0.2314348791
-0.008966938629
-0.2283134468
0.009748329033
0.2283638074
-0.009798689538
-0.2270909236
0.009825153694
0.2270660607
-0.009800290717
-0.2248761733
0.009602834353
0.2247724589
-0.009499119993
-0.2231224684
0.009086321753
0.2229539314
-0.008917784725
-0.2218218707
0.008334418818
0.2216054577
-0.008118005766
0.007418460359
-0.220899739
0.220646232
-0.007164953284
-0.4405949416
0.01262766376
0.4395634958
-0.01159621789
-0.440122468
0.01054665285
0.4390467399
-0.009470924697
-0.01225637005
0.8755227515
0.00804916856
0.008384020575
-0.008133907459
0.8749157436
-0.004051103511
0.8744950757
0.8741940199
-0.002970444246
0.9574655568
-0.005961738233
0.9576288765
-0.008980299812
0.9577889366
-0.006118667
0.9580233763
-0.00592027723
-0.4776058822
0.4784015098
-0.006914294558
-0.4775987103
0.007717832492
0.4783965743
-0.008515696406
-0.4776704179
0.009314110708
0.4784668506
-0.005103706198
-0.005006837281
-0.2388171221
0.005513350131
0.2390132138
-0.005709441857
-0.2386006109
0.006277616956
0.2387822769
-0.006459282993
-0.2379677334
0.006975120927
0.2381283362
-0.007135723725
-0.2368612781
0.007577564642
0.2369939264
-0.007710212902
-0.2309515423
0.007919724872
0.2308298266
-0.007798009166
-0.2284694493
0.008417579895
0.228492196
-0.008440326656
-0.2269915313
0.008431469277
0.2269667895
-0.008406727501
-0.2244976548
0.008245057742
0.2244161888
-0.008163591821
-0.2225094377
0.007842947284
0.2223786188
-0.007712128437
-0.2210292772
0.007256061377
0.2208583877
-0.007085171886
0.006525554817
-0.219987898
0.2197819351
-0.006319591971
-0.4386181279
0.01122151813
0.4377513572
-0.01035474745
-0.4380763166
0.009460722698
0.4371471305
-0.008531536589
-0.01112695045
0.871818172
0.00725220617
0.007579323782
-0.007414009297
0.8712028025
-0.00370118635
0.8707822528
0.8704928336
-0.002756866301
0.9602224231
-0.005523883721
0.9603958939
-0.008296416202
0.9605614691
-0.005637831148
0.960802662
-0.0054378707
-0.4791393463
0.4798567808
-0.006355265572
-0.4791449366
0.007072478969
0.4798498269
-0.007777369286
-0.4792065089
0.008475133709
0.479893217
-0.004622099251
-0.0045397425
-0.2395527127
0.004977536017
0.2397181301
-0.005142953372
-0.2392747941
0.00561458846
0.2394230709
-0.005762865251
-0.2385568063
0.006177040576
0.2386838797
-0.006304114044
-0.2373428955
0.006650616832
0.2374445846
-0.006752305895
-0.2305593222
0.006871853813
0.2304958059
-0.006808337581
-0.2285327279
0.007305413208
0.2285386429
-0.007311328178
-0.2268929406
0.007279774336
0.2268684829
-0.00725531659
-0.2241960898
0.007118147604
0.2241297098
-0.007051767615
-0.222028408
0.006794297443
0.2219238932
-0.006689782606
-0.2203986392
0.006324460801
0.2202609308
-0.00618675239
0.005731651013
-0.2192451592
0.2190756561
-0.005562147912
-0.4369553175
0.009934933265
0.4362235569
-0.009203172703
-0.4363101128
0.00843943478
0.4355070729
-0.007636394912
-0.01002786663
0.8685455825
0.006496682814
0.006803773241
-0.006704419532
0.8678793554
-0.003353732959
0.8674315662
0.8671391006
-0.002540116969
0.96276254
-0.005081698509
0.9629374754
-0.007612068336
0.9630918389
-0.005159279712
0.9633142307
-0.004964357361
-0.4805178109
0.4811615528
-0.005803021526
-0.4805098258
0.006440702944
0.4811307955
-0.007061672637
-0.4805307377
0.007670423093
0.4811224377
-0.004166159196
-0.004095963911
-0.2401735181
0.004474525435
0.2403133557
-0.004614363104
-0.2398263366
0.005007467259
0.2399481232
-0.005129253877
-0.2390252236
0.005464946713
0.2391271415
-0.005566864542
-0.237711979
0.005842406238
0.237789805
-0.005920232226
-0.2303681958
0.005988487141
0.2303434261
-0.005963717409
-0.2285389312
0.006369896938
0.2285341803
-0.00636514598
-0.2267956861
0.006318588959
0.2267716485
-0.006294551279
-0.2239478067
0.006175290767
0.2238922507
-0.006119734765
-0.2216406243
0.005907570164
0.2215551149
-0.005822060783
-0.2198870239
0.005523286492
0.2197740537
-0.00541031628
0.005034592784
-0.2186321889
0.2184909576
-0.004893361542
-0.435549369
0.008780685017
0.4349276784
-0.008158994409
-0.4347838847
0.007503757329
0.4340883264
-0.006808198998
-0.008992372541
0.8656599423
0.005797929098
0.006080083681
-0.006029226656
0.8649162095
-0.003021260697
0.8644236002
0.8641178399
-0.002327391116
0.9650899311
-0.004649436754
0.9652595211
-0.00694798558
0.9653903877
-0.004696895321
0.9655752826
-0.004512142178
-0.4817515475
0.4823273654
-0.005272713181
-0.4817117383
0.005838543174
0.4822582235
-0.006385028304
-0.4816715811
0.006916412445
0.482182461
-0.003745964942
-0.00368132736
-0.2406986661
0.004011648707
0.2408171551
-0.00413013765
-0.240280366
0.004459249431
0.2403810477
-0.004559931134
-0.2394026321
0.004834569109
0.2394854229
-0.004917359842
-0.2379942287
0.005138640051
0.2380536901
-0.005198101381
-0.2303115517
0.005237424874
0.2303129711
-0.005238844276
-0.228508595
0.005577142692
0.2284969027
-0.005565450336
-0.2267003017
0.00550901287
0.2266767962
-0.005485507369
-0.2237384478
0.005380019961
0.2236910249
-0.005332597125
-0.2213211032
0.005154261409
0.2212498023
-0.005082960571
-0.2194649872
0.004834392284
0.2193709055
-0.004740310611
0.004426072752
-0.2181202497
0.2180013108
-0.004307133909
-0.4343530521
0.00775574667
0.4338214995
-0.007224194109
-0.4334618056
0.006659491848
0.4328576344
-0.00605532063
-0.008037861538
0.8631165015
0.005163328855
0.005417973518
-0.005401916193
0.8622802641
-0.002710964297
0.8617326483
0.8614068756
-0.002124231733
0.9672141629
-0.0042379528
0.9673732421
-0.0063195851
0.96747202
-0.004260808196
0.9676064856
-0.004089979855
-0.4828529174
0.483367112
-0.004775002872
-0.4827694259
0.005276779121
0.4832504306
-0.005757783777
-0.4826578282
0.006221912748
0.4831003313
-0.003361580436
-0.003302835334
-0.2411439578
0.003590054619
0.2412446905
-0.003690787236
-0.2406565037
0.003967605664
0.2407402683
-0.004051370222
-0.239710403
0.004278058199
0.2397783875
-0.004346042645
-0.2382097472
0.004524879764
0.2382551242
-0.004570256704
-0.2303459105
0.004593527172
0.2303649618
-0.004612578476
-0.2284544772
0.004900022357
0.2284382975
-0.004883842679
-0.2266071744
0.004821004072
0.2265842622
-0.004798091859
-0.2235587607
0.004703600199
0.2235176823
-0.004662521825
-0.2210532213
0.004510341304
0.2209928819
-0.004450001917
-0.2191119489
0.004240351404
0.2190326289
-0.00416103135
0.003895387193
-0.2176882848
0.2175872222
-0.00379432467
-0.4333286447
0.006853293799
0.4328713488
-0.00639599788
-0.432313082
0.005907023777
0.4317865313
-0.005380472992
-0.007173424791
0.8608728045
0.004595577386
0.004821544442
-0.004830271575
0.8599371109
-0.002427176373