/*--------------------------------*- C++ -*----------------------------------*\
| =========                 |                                                 |
| \\      /  F ield         | OpenFOAM: The Open Source CFD Toolbox           |
|  \\    /   O peration     | Version:  v1912                                 |
|   \\  /    A nd           | Website:  www.openfoam.com                      |
|    \\/     M anipulation  |                                                 |
\*---------------------------------------------------------------------------*/
FoamFile
{
    version     2.0;
    format      ascii;
    class       volVectorField;
    location    "0.49";
    object      U;
}
// * * * * * * * * * * * * * * * * * * * * * * * * * * * * * * * * * * * * * //

dimensions      [0 1 -1 0 0 0 0];


internalField   nonuniform List<vector> 
12556
(
(99.99852084 0.003550150469 -4.055390152e-21)
(99.99809978 0.01179637963 3.379498978e-25)
(99.99691138 0.02438571935 -4.045983596e-21)
(99.99493901 0.04411783576 -4.0170908e-21)
(99.99979523 0.03427382696 3.868897763e-21)
(99.99751727 0.05554868631 0)
(99.99623684 0.08824538918 0)
(99.99588471 0.1327458962 -6.720117026e-21)
(99.99481179 0.1907620317 7.794438774e-22)
(99.99416479 0.259941418 -5.012411938e-21)
(99.99453286 0.3313541833 6.815205149e-22)
(99.99627255 0.389780234 0)
(99.99949587 0.4180840145 0)
(100.0027261 0.4066853819 1.228269903e-21)
(100.0048659 0.3611522952 -1.720888042e-21)
(100.0056203 0.2975488917 9.468881862e-22)
(100.0052963 0.2307060435 0)
(100.0046879 0.1707868885 1.491810395e-21)
(100.0043064 0.1203613193 6.115155591e-21)
(100.0022995 0.08404791341 -1.700427634e-21)
(100.0090541 0.09529488043 -1.473098295e-20)
(100.0061693 0.05860402066 0)
(100.0044956 0.03108884141 -1.844020899e-21)
(100.0042987 0.00977448202 -1.297807726e-20)
(99.9868271 0.009445918764 1.625358228e-20)
(99.98193845 0.03180032269 4.057647966e-21)
(99.97091733 0.06637830132 2.832635197e-20)
(99.9520585 0.1209189655 -1.213141604e-20)
(99.9555922 0.1617492076 3.899191425e-21)
(99.92698746 0.2648957508 -5.023640877e-23)
(99.89009626 0.4211065232 0)
(99.87074042 0.560271057 -6.787502305e-21)
(99.83152472 0.8145353792 -6.247583633e-21)
(99.80356399 1.127103856 -1.074833738e-20)
(99.80423997 1.461275905 -4.367271688e-21)
(99.84960171 1.745446174 -5.363111277e-21)
(99.93498903 1.893940145 -1.028394036e-21)
(100.0305302 1.859702176 4.188121784e-22)
(100.1064331 1.664949446 -5.658832482e-22)
(100.1412058 1.373521242 4.86857094e-21)
(100.1418834 1.063906343 -9.302521011e-21)
(100.1205032 0.7892414163 0)
(100.1241986 0.5875351817 -2.583810606e-20)
(100.0875602 0.3980426961 4.966011996e-20)
(100.0849123 0.2710885115 1.4262558e-20)
(100.0588845 0.1661752263 2.931646718e-20)
(100.04374 0.08846575666 -2.940334769e-20)
(100.0380376 0.02786946122 1.482273949e-20)
(99.9648245 0.01211900237 -1.621739297e-20)
(99.95102619 0.04176701854 -3.257672282e-20)
(99.92105682 0.08957555075 -7.297280889e-20)
(99.87095874 0.1673973187 9.707017534e-20)
(99.84712018 0.2538948485 -8.014489841e-21)
(99.76144986 0.4282871191 -7.773860184e-21)
(99.64764596 0.6953352052 -1.34813522e-20)
(99.58579971 0.9842418791 0)
(99.45973922 1.46890951 2.592115617e-20)
(99.36677358 2.084716763 1.132895756e-20)
(99.37970275 2.758017639 1.487914268e-19)
(99.54899468 3.363613793 9.499820803e-20)
(99.87029186 3.710203723 7.615065247e-20)
(100.2330651 3.647855692 2.361683061e-21)
(100.490616 3.218306355 -4.961416645e-21)
(100.5927743 2.61237589 3.896015318e-21)
(100.5690178 1.987618704 -9.972968529e-21)
(100.4790412 1.43892468 -2.313928505e-20)
(100.4095907 0.998173142 -1.551012601e-19)
(100.2965848 0.6672718016 -3.426958706e-20)
(100.2339386 0.408654148 -1.460016729e-20)
(100.1649263 0.2485278851 3.316175768e-20)
(100.1232561 0.1323623388 -3.723213256e-21)
(100.1051565 0.0415200811 0)
(99.93947988 0.009643706983 -8.180170979e-21)
(99.91306452 0.03569176657 5.725287441e-20)
(99.85662699 0.08431673849 -1.638201688e-20)
(99.76438025 0.1671575553 0)
(99.69158953 0.2880747256 0)
(99.52452708 0.5110900483 -6.300248892e-20)
(99.29278385 0.8650233167 -1.259648244e-19)
(99.11155087 1.292359087 2.95343829e-20)
(98.81475371 1.999641735 1.429833208e-20)
(98.58717329 2.917958011 2.096185307e-19)
(98.54446774 4.029586818 0)
(98.87188794 5.157336254 2.601166856e-19)
(99.65368458 5.872997736 -4.696166827e-20)
(100.5874188 5.770208618 8.700891756e-20)
(101.2073645 4.941658404 -1.188952289e-19)
(101.3814672 3.83857945 0)
(101.278075 2.814306721 0)
(101.0600589 1.982779973 0)
(100.8451497 1.307890641 5.613751048e-20)
(100.6098234 0.8544345614 -4.324859404e-20)
(100.4412972 0.4853386245 -3.733146605e-20)
(100.3127778 0.2916821275 1.888239456e-20)
(100.2329634 0.1534154525 -3.787826195e-21)
(100.1965789 0.04771589601 0)
(99.92315256 0.0008202269661 0)
(99.88210094 0.0095365511 0)
(99.79516671 0.04367707997 8.283618701e-21)
(99.65234447 0.1115836715 1.249751048e-20)
(99.51989105 0.249395559 2.06578041e-20)
(99.24573925 0.4863097523 0)
(98.86214642 0.8669546116 0)
(98.49322592 1.399173376 6.283132175e-20)
(97.95665785 2.259297136 7.766500736e-19)
(97.43380233 3.481280836 -2.141722868e-21)
(97.1211078 5.176718672 4.664308236e-19)
(97.51795616 7.232552729 5.222674478e-19)
(99.1427544 8.775748734 9.183138426e-20)
(101.2778866 8.578033037 5.209185784e-20)
(102.5217938 6.944242056 0)
(102.6974748 5.013957032 -6.7885324e-20)
(102.3298831 3.454009386 -3.146404564e-19)
(101.8526786 2.333455936 -4.326414859e-22)
(101.4042636 1.46067301 -9.22452948e-20)
(100.9999668 0.927681007 7.669051485e-21)
(100.6802858 0.4804165591 0)
(100.4781536 0.2836299818 3.857352144e-21)
(100.3520225 0.1450260849 -2.896817606e-21)
(100.2934294 0.04441987807 -9.607199306e-22)
(99.92957276 -0.01473836938 0)
(99.87360706 -0.03800054328 0)
(99.75653709 -0.03675795855 -1.658497353e-20)
(99.56075004 -0.00263875752 3.382492158e-20)
(99.36077677 0.1262678618 0)
(98.97029419 0.3309893046 0)
(98.4095716 0.6797845611 2.645437887e-20)
(97.82321958 1.231985458 -1.401439553e-19)
(96.96419025 2.098929993 3.060323509e-19)
(95.91925501 3.482233551 -6.097912428e-19)
(94.84456501 5.809927097 -1.028801497e-18)
(94.68200046 9.581358673 0)
(97.91668615 13.3967128 0)
(102.941442 12.67955462 -2.564599848e-19)
(104.9992137 9.109470239 4.181163034e-19)
(104.7496847 5.941189591 7.231414435e-19)
(103.7618754 3.769001523 0)
(102.805402 2.389645419 3.164771483e-20)
(102.0380267 1.401669728 2.369181939e-20)
(101.4208947 0.8523019381 -1.584152708e-20)
(100.9195952 0.3820489606 0)
(100.6335088 0.2162732789 0)
(100.4573159 0.1030448512 -9.734478397e-22)
(100.3748838 0.03051527197 -2.919774518e-21)
(99.97191271 -0.03662310619 4.059441415e-21)
(99.90261418 -0.1051652144 -4.090479362e-21)
(99.75976248 -0.1539258201 8.349018938e-21)
(99.51791166 -0.1751966987 -3.052419959e-20)
(99.24396186 -0.08198389655 6.504595535e-23)
(98.75008455 0.0449676983 2.614793335e-20)
(98.02679867 0.2964997138 1.019549709e-20)
(97.24289622 0.7459295014 1.511919028e-19)
(96.02047013 1.457587472 -3.384525425e-19)
(94.30107324 2.66639515 1.87759346e-19)
(91.76482956 4.953759551 -9.587498696e-19)
(88.30303386 10.67424696 1.650889008e-18)
(93.75296556 22.22326448 1.924044452e-19)
(108.2991642 18.60660787 3.252713555e-19)
(109.4802517 10.68560706 1.410304203e-18)
(107.5984045 6.048601423 1.144574152e-20)
(105.4839193 3.476330399 0)
(103.8336908 2.042640356 0)
(102.6455763 1.075082085 0)
(101.8157828 0.59933575 8.60516289e-21)
(101.1174411 0.1901557293 2.551640538e-21)
(100.7482385 0.08524027363 -3.020045875e-21)
(100.525364 0.02721846148 -3.439076149e-21)
(100.4199192 0.006089858503 8.285678444e-21)
(100.0614367 -0.06352507719 -4.059873987e-21)
(99.98213366 -0.1877260547 4.091952929e-21)
(99.82084507 -0.2995111503 -5.196227118e-21)
(99.54623116 -0.3927928658 -3.498353214e-21)
(99.21014013 -0.3608051305 1.492091441e-20)
(98.63824464 -0.3479880446 8.899468893e-21)
(97.80693499 -0.2623919713 -2.246158332e-21)
(96.87130411 -0.004557397098 1.620638454e-19)
(95.38909131 0.3655725893 7.292585169e-19)
(93.19342879 0.9607003856 -8.689459919e-20)
(89.52080621 1.830818172 4.742823578e-19)
(82.2311113 3.256053642 5.838600676e-19)
(122.4561956 21.91930607 0)
(115.8947515 9.144375751 -5.844503606e-19)
(110.7743347 4.550516662 0)
(107.1531755 2.347812518 6.840307826e-19)
(104.7552265 1.22248128 0)
(103.1117724 0.4765555665 -4.557303015e-21)
(102.1099742 0.1838154014 1.942893079e-20)
(101.2280868 -0.08952339126 -3.10825824e-21)
(100.7923781 -0.1003831166 2.544945924e-21)
(100.5331389 -0.07765696244 -4.831284287e-22)
(100.4084771 -0.02774635198 -7.783208359e-21)
(100.2062936 -0.09346857657 -1.959441229e-21)
(100.121509 -0.2795651118 -1.472799088e-21)
(99.95120348 -0.4619002569 -5.048947023e-22)
(99.66079267 -0.6368314564 1.531067849e-21)
(99.28014386 -0.6838097062 -2.883506387e-23)
(98.67046336 -0.8057286099 0)
(97.80466982 -0.9175128918 -3.79773473e-20)
(96.79864565 -0.8981432325 4.065819253e-20)
(95.24776253 -0.9287021658 -3.733794616e-19)
(93.05405137 -1.022028629 -5.233108929e-20)
(89.8114736 -1.553546359 0)
(85.75766634 -3.479175476 1.530036815e-18)
(135.2513926 7.334958815 -1.102180586e-18)
(120.5241751 2.972159902 -6.849965798e-19)
(112.971625 1.246748879 2.410785562e-19)
(108.2536384 0.4046658866 3.791222226e-19)
(105.3191308 -0.0008131863428 -1.434718112e-18)
(103.3349661 -0.3266542276 -4.652011291e-21)
(102.2269872 -0.3611452451 1.091572263e-20)
(101.2174846 -0.4299796443 1.066471548e-21)
(100.742129 -0.3239126128 0)
(100.4613686 -0.2026779546 3.924625208e-21)
(100.3243928 -0.06823142197 3.880078364e-21)
(100.4103747 -0.124107475 3.861407111e-21)
(100.3251061 -0.3734628117 5.835022272e-23)
(100.1560161 -0.6275649584 0)
(99.86806971 -0.8862744602 2.00504363e-22)
(99.46469333 -1.020418567 -2.051732027e-21)
(98.85919529 -1.278838311 2.189577986e-21)
(98.02698879 -1.582960091 -5.338165922e-21)
(97.03691055 -1.791417656 -5.671429749e-19)
(95.57953859 -2.155164612 1.85323173e-19)
(93.63071566 -2.693220248 2.51601434e-20)
(91.07135712 -3.69504188 -8.475940695e-19)
(88.49947174 -5.260662779 -1.184352937e-18)
(133.0771507 -8.441856825 -1.156149186e-18)
(120.4427784 -4.511895108 -7.106328298e-19)
(113.1253321 -2.803890066 0)
(108.3468482 -1.913245803 -4.578032807e-21)
(105.3362328 -1.423546704 0)
(103.2426258 -1.223370184 3.940990723e-20)
(102.1237756 -0.9686770131 0)
(101.0653905 -0.7945845334 -1.044572838e-21)
(100.5834004 -0.562626767 -4.340632383e-21)
(100.2987166 -0.3360027483 4.845102612e-22)
(100.1579732 -0.1115062523 0)
(100.6729331 -0.1531770213 -1.901799404e-21)
(100.591866 -0.4623092733 1.919004092e-21)
(100.4332856 -0.7833374822 1.872886943e-21)
(100.166249 -1.121054339 -1.753523875e-21)
(99.75921794 -1.341250667 -2.025319292e-21)
(99.19472365 -1.721468224 0)
(98.44509154 -2.191525984 -2.195353693e-21)
(97.53057438 -2.589757008 -6.338282505e-19)
(96.23439635 -3.191122827 0)
(94.54887993 -3.983816584 -3.688539836e-19)
(92.39363587 -5.137554083 -3.899926714e-19)
(90.24683414 -6.437983351 0)
(124.6791656 -17.30849777 0)
(116.8384752 -10.09356808 -1.166529059e-18)
(111.3913419 -6.224355323 2.211010041e-19)
(107.432664 -4.018714664 -6.813216872e-19)
(104.7835977 -2.7737824 6.395727717e-19)
(102.82725 -2.078340525 0)
(101.7979936 -1.557245922 -2.585840805e-20)
(100.769742 -1.143581875 -1.31185124e-20)
(100.3146503 -0.7919364321 9.891725902e-22)
(100.0434991 -0.464785294 -3.140297614e-21)
(99.90750787 -0.153454711 4.596113973e-22)
(100.9888222 -0.1786970254 6.974162309e-21)
(100.9160364 -0.5398087016 0)
(100.7749914 -0.9161353219 -1.869223803e-21)
(100.5413541 -1.329948544 0)
(100.1436471 -1.622699954 0)
(99.65372653 -2.098576988 -6.02837975e-21)
(99.01834495 -2.69811451 -2.068545832e-21)
(98.21670344 -3.241307898 -3.642381869e-19)
(97.10829019 -4.007850555 0)
(95.66180233 -4.976987922 2.129160231e-20)
(93.74418778 -6.291410643 -1.731632229e-18)
(91.66911471 -7.651538279 4.356667487e-19)
(115.5964022 -20.60012208 5.507022844e-19)
(111.8627485 -12.91393275 9.245069547e-19)
(108.6117287 -8.335393913 -1.628183483e-19)
(105.8364939 -5.514818211 1.54507706e-19)
(103.7930803 -3.835517764 4.368079679e-21)
(102.14588 -2.780891893 2.072801973e-21)
(101.2831669 -2.059271311 -3.158651335e-20)
(100.3491725 -1.447183401 7.760194235e-21)
(99.94721609 -0.9896135513 0)
(99.70334264 -0.5776670105 3.616036437e-21)
(99.57922766 -0.1904248238 0)
(101.3496766 -0.1999291618 6.965246892e-21)
(101.2876592 -0.6047655408 1.099720071e-19)
(101.1675693 -1.025707545 -2.216188981e-19)
(100.9707904 -1.496612504 -5.91619154e-22)
(100.6212235 -1.84295612 -1.757067996e-21)
(100.2090991 -2.387562945 0)
(99.70575605 -3.075614716 1.551467108e-20)
(99.03556254 -3.715220672 1.400637358e-19)
(98.13756536 -4.588073444 -6.066681118e-19)
(96.94893386 -5.695428639 -1.873645807e-20)
(95.31845901 -7.252050544 -4.388268117e-19)
(93.40340495 -8.95541175 0)
(103.2864068 -29.80982464 -2.979219826e-19)
(107.1765759 -19.17208042 2.011763104e-19)
(107.0500916 -13.28794777 -3.648307805e-19)
(105.6377832 -9.097166966 -6.777651156e-20)
(103.9740209 -6.293235814 0)
(102.565692 -4.509086953 1.225177371e-19)
(101.2962364 -3.2651165 -6.333046887e-20)
(100.6332253 -2.428570981 0)
(99.83874865 -1.680587474 0)
(99.50184365 -1.141629629 1.135519391e-20)
(99.29322808 -0.6669601214 2.09130604e-21)
(99.18585836 -0.2198148248 -6.78817846e-21)
(101.7444439 -0.2148230927 0)
(101.6946884 -0.6509631391 0)
(101.598919 -1.10248143 0)
(101.4413372 -1.60486297 0)
(101.1401771 -2.002986804 0)
(100.809372 -2.597134054 0)
(100.4308561 -3.33791525 0)
(99.91643636 -4.020122185 4.686482172e-19)
(99.23636106 -4.939509164 9.957627097e-20)
(98.34664819 -6.116091979 0)
(97.17726244 -7.862277922 -2.578022442e-19)
(95.96829974 -10.40715793 -5.868772714e-19)
(96.27423777 -19.35096801 -2.742441364e-19)
(102.0721859 -15.73955371 -3.802159646e-19)
(103.3527269 -12.04750795 1.352974201e-19)
(103.0449583 -8.841177745 -4.915880178e-20)
(102.1767721 -6.453186392 0)
(101.2821008 -4.803520862 -5.505449557e-20)
(100.3808102 -3.526763823 -8.847487726e-20)
(99.91139896 -2.656886067 -3.327779518e-20)
(99.27321811 -1.827338668 -1.849950853e-20)
(99.00260875 -1.244759486 1.825089624e-20)
(98.83251767 -0.7289840167 0)
(98.74418454 -0.2402254647 1.821997996e-20)
(102.1618367 -0.2233422655 0)
(102.125116 -0.6776369691 0)
(102.0557901 -1.146225152 0)
(101.9389726 -1.658603462 0)
(101.685852 -2.084255594 0)
(101.4457951 -2.695091899 0)
(101.185129 -3.430153313 2.598907256e-20)
(100.8248135 -4.136182766 4.281893205e-19)
(100.3502118 -5.041579871 -2.177402561e-19)
(99.76415062 -6.152490601 -4.256011356e-19)
(99.16716631 -7.690466633 -1.936325608e-19)
(98.93111604 -9.989413987 0)
(97.74405371 -12.45224269 2.118826348e-19)
(100.0086921 -12.0488496 -8.866710468e-20)
(101.01816 -10.17789621 -2.967443561e-20)
(101.0632363 -8.030064413 0)
(100.6282363 -6.194452046 0)
(100.086443 -4.808897526 -2.376351753e-20)
(99.4744203 -3.599113517 0)
(99.17752145 -2.758638282 0)
(98.68213363 -1.893869541 -3.451193224e-20)
(98.47379113 -1.29887279 1.703155954e-20)
(98.34175414 -0.762797978 7.126607158e-22)
(98.27235762 -0.251400172 -1.255671281e-20)
(102.5900016 -0.225809522 0)
(102.5655355 -0.6852756636 0)
(102.5210518 -1.157845294 0)
(102.4422686 -1.664591061 0)
(102.2343737 -2.100206927 0)
(102.0738245 -2.699680546 0)
(101.9132637 -3.395395107 -6.82245379e-22)
(101.6756126 -4.098170257 0)
(101.3712562 -4.939431748 6.86338537e-21)
(100.9998794 -5.903041383 0)
(100.7265389 -7.066807097 4.34028157e-19)
(97.82334417 -8.022493546 -3.030022175e-19)
(98.63402764 -9.458629147 4.264774989e-20)
(99.32851216 -9.401956509 -4.472957568e-20)
(99.67400246 -8.421040676 5.101408193e-21)
(99.64657411 -7.040323199 3.292895516e-19)
(99.37851068 -5.709929995 6.866206343e-20)
(99.0413235 -4.601327776 0)
(98.64472649 -3.528946491 -2.931592884e-20)
(98.46902151 -2.749394402 4.444674143e-20)
(98.09293188 -1.892851856 1.075185881e-20)
(97.93871066 -1.309457249 1.833643984e-20)
(97.84022815 -0.7709807389 -2.083200774e-20)
(97.78766492 -0.2541174108 0)
(103.0178647 -0.2230434175 0)
(103.0039591 -0.6764194028 0)
(102.9803359 -1.141569062 0)
(102.9336373 -1.630186444 0)
(102.7663062 -2.061266103 0)
(102.6698842 -2.628789099 0)
(102.5864645 -3.263189215 0)
(102.4343762 -3.923332838 -2.233725912e-21)
(102.241629 -4.679895524 4.244953524e-19)
(101.9794003 -5.473950075 -1.079082243e-18)
(101.8290527 -6.305740268 8.200278464e-19)
(94.98799627 -6.299286601 6.948164521e-19)
(99.12343331 -7.592191968 0)
(98.99153325 -7.559018002 1.213705242e-19)
(98.84690261 -6.975151968 -4.869512504e-19)
(98.64741914 -6.0852741 0)
(98.40575505 -5.150786022 -1.894676592e-21)
(98.17095809 -4.278582915 0)
(97.90790104 -3.357863207 0)
(97.81006178 -2.656332327 0)
(97.52719848 -1.839238136 3.730293992e-20)
(97.4160794 -1.28412301 -3.490024831e-20)
(97.34430302 -0.7574343039 -2.355060696e-21)
(97.30525467 -0.2499983288 2.362912968e-21)
(103.4359062 -0.2160444112 0)
(103.4305762 -0.6542940705 0)
(103.4232397 -1.102880171 0)
(103.4015624 -1.563873509 0)
(103.2679447 -1.978563755 0)
(103.2183676 -2.501767851 0)
(103.1859939 -3.066203926 0)
(103.0846978 -3.649678427 0)
(102.9421903 -4.297508539 2.775566387e-20)
(102.6902744 -4.937627306 -3.989186285e-19)
(102.5463994 -5.555123511 0)
(94.90197481 -5.554077574 -8.058561697e-19)
(99.26411412 -6.292131599 0)
(98.71558325 -6.228873466 2.499738391e-21)
(98.27381135 -5.841943456 0)
(97.93527837 -5.255650282 -6.12190163e-22)
(97.66322076 -4.585409034 0)
(97.461466 -3.900526228 0)
(97.26641727 -3.121149881 0)
(97.21309591 -2.50377062 0)
(96.99748798 -1.745817662 0)
(96.91797752 -1.229488758 0)
(96.86644738 -0.7275883695 0)
(96.83750707 -0.2411037099 0)
(103.836761 -0.2058126636 0)
(103.8379857 -0.622122155 0)
(103.842433 -1.047371686 0)
(103.8386873 -1.474806511 0)
(103.730776 -1.864813306 0)
(103.7116177 -2.337965032 0)
(103.7073217 -2.832543648 0)
(103.6284564 -3.335579113 0)
(103.4935198 -3.860458566 0)
(103.2148135 -4.365594296 -1.221316694e-21)
(102.6754673 -4.788850349 -1.094023826e-19)
(96.57058329 -4.984338297 -2.915895137e-19)
(99.2674863 -5.281656881 1.314688315e-22)
(98.49414695 -5.215252497 2.129881907e-20)
(97.87882792 -4.955657779 0)
(97.42404474 -4.546721114 0)
(97.09633062 -4.045674785 0)
(96.88740186 -3.50551453 0)
(96.71833848 -2.852506253 0)
(96.68417886 -2.317821729 0)
(96.51144706 -1.627906533 0)
(96.45257587 -1.155556841 0)
(96.41442273 -0.6856249822 0)
(96.39327433 -0.2277365799 0)
(104.2151412 -0.1933193748 0)
(104.2209606 -0.5830086625 0)
(104.2329633 -0.9803843363 0)
(104.2406042 -1.371500278 0)
(104.1508967 -1.731914475 0)
(104.1482143 -2.153807318 0)
(104.1540914 -2.585110574 0)
(104.0782509 -3.011144369 0)
(103.926953 -3.434624329 0)
(103.6136797 -3.824647249 0)
(102.7708857 -4.106945093 0)
(97.40977737 -4.307181951 0)
(99.29055262 -4.472709644 0)
(98.35718567 -4.42303086 0)
(97.60454788 -4.235346855 0)
(97.04706518 -3.934272783 0)
(96.65831635 -3.551931425 0)
(96.42194934 -3.121621339 0)
(96.25410377 -2.57552817 0)
(96.22096742 -2.116837346 0)
(96.07211093 -1.497367684 0)
(96.02473812 -1.070364896 0)
(95.99413606 -0.6365186631 0)
(95.97782104 -0.2118474515 0)
(104.567626 -0.1794566771 0)
(104.5762701 -0.5397888524 0)
(104.5921056 -0.9066907984 0)
(104.6054711 -1.261039271 0)
(104.5277957 -1.589651407 0)
(104.5306586 -1.962367929 0)
(104.5331158 -2.337242414 0)
(104.4492105 -2.694836509 0)
(104.26949 -3.037367447 0)
(103.9144026 -3.341187234 0)
(102.8228947 -3.540855795 0)
(97.91990233 -3.724595732 0)
(99.30559127 -3.818441694 -2.603133412e-35)
(98.25742067 -3.777462995 0)
(97.40202404 -3.636195071 0)
(96.76157796 -3.407861998 0)
(96.31499011 -3.110464572 0)
(96.04277495 -2.764238821 0)
(95.86148294 -2.306288536 0)
(95.81781201 -1.914041027 0)
(95.67904795 -1.36288552 0)
(95.63598246 -0.9801848719 0)
(95.60828653 -0.5840428593 0)
(95.59455608 -0.1947899194 0)
(104.8923912 -0.1649772283 0)
(104.90238 -0.4948540948 0)
(104.9190309 -0.8303190768 0)
(104.9335093 -1.148839872 0)
(104.8632251 -1.445481318 0)
(104.8635818 -1.772878216 0)
(104.8534482 -2.097152668 0)
(104.7552911 -2.396999824 0)
(104.542418 -2.675401859 0)
(104.1446063 -2.915074633 0)
(102.847041 -3.059157354 0)
(98.28885255 -3.227755393 0)
(99.30778855 -3.279527241 0)
(98.17964376 -3.243391622 0)
(97.24745965 -3.13337247 0)
(96.54043043 -2.955895055 0)
(96.04209279 -2.720619834 0)
(95.73256389 -2.439768651 0)
(95.52859546 -2.0540978 0)
(95.46793181 -1.718125695 0)
(95.32977859 -1.230574756 0)
(95.28572853 -0.8897215182 0)
(95.25750375 -0.531043646 0)
(95.24459851 -0.1775042013 0)
(105.188948 -0.1504713877 0)
(105.1991099 -0.4500574726 0)
(105.214314 -0.7544010497 0)
(105.2264243 -1.038956414 0)
(105.1598765 -1.304749224 0)
(105.152372 -1.591315377 0)
(105.1243433 -1.869937853 0)
(105.0081887 -2.122870484 0)
(104.7618066 -2.350316416 0)
(104.3235774 -2.541627476 0)
(102.8577407 -2.646819654 0)
(98.55844167 -2.80300167 0)
(99.30156776 -2.828811851 -3.247403253e-35)
(98.11696243 -2.796206006 0)
(97.12637235 -2.708357146 0)
(96.36585127 -2.567634973 0)
(95.82235687 -2.378754334 0)
(95.47678384 -2.148645112 0)
(95.24580182 -1.822673459 0)
(95.1645272 -1.53425172 0)
(95.02073915 -1.10453821 0)
(94.97207891 -0.8022576143 0)
(94.94095865 -0.4795303565 0)
(94.92757709 -0.1606469225 0)
(105.4578422 -0.136380774 0)
(105.4672819 -0.406750688 0)
(105.4794354 -0.6811967383 0)
(105.4867266 -0.9342447026 0)
(105.4211986 -1.171059969 0)
(105.4024151 -1.421194886 0)
(105.354167 -1.660054213 0)
(105.2177763 -1.874127179 0)
(104.9396683 -2.061068076 0)
(104.4642095 -2.215314865 0)
(102.8635185 -2.292909755 0)
(98.75635996 -2.438895676 0)
(99.28998612 -2.448223436 0)
(98.06534932 -2.418536682 0)
(97.02958096 -2.347141296 0)
(96.22585798 -2.233799658 0)
(95.6433581 -2.080296313 0)
(95.26412137 -1.890043543 0)
(95.00493461 -1.613446387 0)
(94.90132994 -1.365230497 0)
(94.74798076 -0.9873142121 0)
(94.6923953 -0.7199249363 0)
(94.65684479 -0.4308383477 0)
(94.64206344 -0.144659591 0)
(105.7003342 -0.1230232171 0)
(105.7083895 -0.3658799186 0)
(105.7164088 -0.6122571877 0)
(105.7172583 -0.836601201 0)
(105.6507794 -1.046717065 0)
(105.6187031 -1.2646854 0)
(105.5492546 -1.469475828 0)
(105.3921624 -1.651039554 0)
(105.0850297 -1.805561789 0)
(104.5754497 -1.930880088 0)
(102.8689821 -1.98868464 0)
(98.90247994 -2.126229499 0)
(99.2750391 -2.124987929 1.021027607e-35)
(98.02223544 -2.097846944 0)
(96.95105116 -2.039087772 0)
(96.11218423 -1.946687946 0)
(95.49611968 -1.820681194 0)
(95.08602215 -1.662146584 0)
(94.79899587 -1.426518377 0)
(94.6727305 -1.2122981 0)
(94.50754088 -0.8802884204 0)
(94.44367742 -0.6440064502 0)
(94.40277778 -0.3857993745 0)
(94.38597027 -0.1298230014 0)
(105.9181549 -0.1106159134 0)
(105.924357 -0.3280743713 0)
(105.9275592 -0.5485877449 0)
(105.9209744 -0.7471710171 0)
(105.8521857 -0.9330366631 0)
(105.8058101 -1.122856682 0)
(105.7151341 -1.298625433 0)
(105.5378362 -1.452873654 0)
(105.2047084 -1.581277447 0)
(104.6638165 -1.683645439 0)
(102.8763885 -1.727140859 0)
(99.01133451 -1.85761379 0)
(99.2580596 -1.849597986 0)
(97.98584657 -1.824739656 0)
(96.88663018 -1.775939709 0)
(96.01895024 -1.699913658 0)
(95.37400719 -1.595632173 0)
(94.93591203 -1.462637583 0)
(94.62221515 -1.261148154 0)
(94.47378949 -1.075673492 0)
(94.29560744 -0.7840457656 0)
(94.22279271 -0.57517529 0)
(94.1760717 -0.344874465 0)
(94.15684001 -0.116298148 0)
(106.1133438 -0.09929475285 0)
(106.1173787 -0.2937143008 0)
(106.1153838 -0.4907788603 0)
(106.1008358 -0.6665525099 0)
(106.0287892 -0.8306645007 0)
(105.9677854 -0.9960308463 0)
(105.8564525 -1.147166698 0)
(105.6599883 -1.278414493 0)
(105.3038452 -1.385660154 0)
(104.7342082 -1.469619321 0)
(102.8865805 -1.502672115 0)
(99.09345518 -1.627158425 0)
(99.23995375 -1.614828776 0)
(97.95490508 -1.592047041 0)
(96.83335794 -1.551250237 0)
(95.94187422 -1.488245586 0)
(95.2720337 -1.401349166 0)
(94.80867264 -1.289104113 0)
(94.46984994 -1.116174488 0)
(94.30022785 -0.9549878454 0)
(94.10859349 -0.6986479592 0)
(94.02661413 -0.5136777749 0)
(93.97390961 -0.3082569491 0)
(93.95202396 -0.1041582693 0)
(106.2881316 -0.08913343882 0)
(106.2898019 -0.262992353 0)
(106.2824476 -0.4391138738 0)
(106.2597322 -0.5949556631 0)
(106.1837804 -0.739750772 0)
(106.1082544 -0.8840237701 0)
(105.9771773 -1.014322229 0)
(105.7628473 -1.126200952 0)
(105.3864002 -1.216238689 0)
(104.7903984 -1.285336374 0)
(102.8995623 -1.310679924 0)
(99.15645365 -1.430034535 0)
(99.22133289 -1.415068928 0)
(97.9284409 -1.394164352 0)
(96.78902995 -1.359875616 0)
(95.87772747 -1.307346926 0)
(95.18633862 -1.234484601 0)
(94.70021537 -1.139195784 0)
(94.33792475 -0.9902131392 0)
(94.14828646 -0.8495100868 0)
(93.94316881 -0.6238256223 0)
(93.85210514 -0.459474307 0)
(93.79345546 -0.2759575886 0)
(93.76880298 -0.09341601954 0)
(106.4448092 -0.08016276323 0)
(106.4440023 -0.2359728473 0)
(106.4312738 -0.3936694886 0)
(106.4004043 -0.5323483272 0)
(106.3201005 -0.6601557799 0)
(106.2304195 -0.7863778136 0)
(106.0806758 -0.8991294941 0)
(105.8498794 -0.9947384728 0)
(105.4554765 -1.070762724 0)
(104.8353095 -1.127820373 0)
(102.9149574 -1.147442845 0)
(99.20590039 -1.262414515 0)
(99.20258787 -1.245945578 0)
(97.90567467 -1.226691852 0)
(96.75194681 -1.197712654 0)
(95.82401503 -1.15366004 0)
(95.11387833 -1.092173073 0)
(94.60723046 -1.01075993 0)
(94.22310532 -0.8818534838 0)
(94.01468923 -0.7583575368 0)
(93.79629368 -0.5591377006 0)
(93.69639923 -0.4123568913 0)
(93.63196212 -0.2478770383 0)
(93.60450813 -0.08404707815 0)
(106.5857213 -0.07238328395 0)
(106.5823784 -0.2126326371 0)
(106.5643508 -0.3543849641 0)
(106.5254789 -0.4785378413 0)
(106.4404621 -0.5915685703 0)
(106.3371335 -0.7025010134 0)
(106.1697779 -0.8004976833 0)
(105.923996 -0.8825825191 0)
(105.5135771 -0.9472200999 0)
(104.8712364 -0.9945202962 0)
(102.9323136 -1.009898 0)
(99.24597215 -1.121106082 0)
(99.18394249 -1.103930774 0)
(97.8859437 -1.086091441 0)
(96.72074292 -1.061429521 0)
(95.77874293 -1.024236008 0)
(95.05218005 -0.9719667622 0)
(94.52692952 -0.9018576511 0)
(94.12255783 -0.7897545806 0)
(93.89654865 -0.6806085213 0)
(93.66514905 -0.5040535984 0)
(93.55677081 -0.3720232071 0)
(93.48676252 -0.2238512736 0)
(93.45651665 -0.07600431647 0)
(106.7130242 -0.0657818551 0)
(106.7071337 -0.1929047515 0)
(106.6839392 -0.3211185061 0)
(106.6373032 -0.433298256 0)
(106.5473528 -0.5335886396 0)
(106.4309722 -0.6317661082 0)
(106.2469112 -0.7170646987 0)
(105.9875997 -0.7884990302 0)
(105.5627542 -0.843867187 0)
(104.9000219 -0.8833009323 0)
(102.9511737 -0.8955557196 0)
(99.27989363 -1.003424514 0)
(99.16553804 -0.9861581243 -1.160831383e-36)
(97.86867811 -0.9695079055 0)
(96.69429184 -0.9483228878 0)
(95.74028242 -0.9166450294 0)
(94.9992175 -0.8718131747 0)
(94.45702348 -0.8110789949 0)
(94.0337557 -0.7128410652 0)
(93.79128919 -0.6153535757 0)
(93.54727364 -0.4580692989 0)
(93.43079659 -0.3381322544 0)
(93.35545912 -0.2036960779 0)
(93.32246803 -0.06923467164 0)
(106.829384 -0.06032271885 0)
(106.8209151 -0.1766742852 0)
(106.7926711 -0.2936749451 0)
(106.7385321 -0.3962500208 0)
(106.6431005 -0.4857961997 0)
(106.5142811 -0.5734587962 0)
(106.314642 -0.648086578 0)
(106.0426437 -0.7112367152 0)
(105.6047305 -0.759184751 0)
(104.9231916 -0.7923714116 0)
(102.9711177 -0.8024091894 0)
(99.31014481 -0.9072397842 0)
(99.14746445 -0.8903244599 0)
(97.85338187 -0.8746467321 0)
(96.67163939 -0.8562088549 0)
(95.70726582 -0.8288923182 0)
(94.95330079 -0.7899630322 0)
(94.39573561 -0.736898033 0)
(93.95438265 -0.6500508493 0)
(93.69658873 -0.561766983 0)
(93.43997207 -0.420581352 0)
(93.31576436 -0.3103350748 0)
(93.23529859 -0.1872029727 0)
(93.19957758 -0.06366983931 0)
(106.9352782 -0.0560138647 0)
(106.9243311 -0.1639067594 0)
(106.8912366 -0.2718893333 0)
(106.8299211 -0.3674722697 0)
(106.7298609 -0.4476934874 0)
(106.5891648 -0.5268709977 0)
(106.3753466 -0.5936194801 0)
(106.0909092 -0.6495579941 0)
(105.6410336 -0.6918452615 0)
(104.9420542 -0.7202236531 0)
(102.9918244 -0.7288148977 0)
(99.33865577 -0.8307751069 0)
(99.12976967 -0.8145647182 0)
(97.83961378 -0.7996593859 0)
(96.65194848 -0.7833204733 0)
(95.67849248 -0.7593424482 0)
(94.91290197 -0.7249291723 0)
(94.34122912 -0.6775289677 0)
(93.88261223 -0.6000696758 0)
(93.61028672 -0.518939807 0)
(93.34246848 -0.3914818024 0)
(93.21091296 -0.2883435369 0)
(93.1255729 -0.1742635746 0)
(93.08726703 -0.0592934413 0)
(107.039076 -0.05270794841 0)
(107.0253315 -0.1542932374 0)
(106.987224 -0.2554467021 0)
(106.9183941 -0.3450990038 0)
(106.8100262 -0.4190526166 0)
(106.6574501 -0.4917135399 0)
(106.4302039 -0.5531914196 0)
(106.1342442 -0.6026565194 0)
(105.6730528 -0.6407890145 0)
(104.9577638 -0.6656539102 0)
(103.0130632 -0.6734727036 0)
(99.36694688 -0.7726122128 0)
(99.11249101 -0.7574245772 0)
(97.82697755 -0.7431027714 0)
(96.63447159 -0.7282738924 0)
(95.65289178 -0.7067132391 0)
(94.8766295 -0.6755847857 0)
(94.29161112 -0.6322760944 0)
(93.81686163 -0.5620849655 0)
(93.53060798 -0.486860484 0)
(93.24793486 -0.3687468082 0)
(93.10861618 -0.2717680089 0)
(93.01829872 -0.1645093854 0)
(92.97709482 -0.05593144932 0)
(107.118452 -0.05081120277 0)
(107.1028294 -0.1485616928 0)
(107.0607512 -0.2450851252 0)
(106.9867764 -0.3338678767 0)
(106.8832393 -0.3992377155 0)
(106.7207895 -0.4673365226 0)
(106.4807144 -0.5256776409 0)
(106.174018 -0.5698915281 0)
(105.7020205 -0.6051858619 0)
(104.9713705 -0.6277239511 0)
(103.0346877 -0.6353994887 0)
(99.3962024 -0.7317412368 0)
(99.09563596 -0.7178178409 0)
(97.81510137 -0.703877078 0)
(96.61852284 -0.6900074967 0)
(95.62949564 -0.6700179474 0)
(94.84327145 -0.6410591733 0)
(94.24563637 -0.6005038942 0)
(93.75548889 -0.535628236 0)
(93.45604238 -0.4646155217 0)
(93.17388722 -0.3565461828 0)
(93.02924357 -0.2613907593 0)
(92.93507636 -0.1586542304 0)
(92.89198915 -0.05400617987 0)
(107.2669496 -0.04886953527 0)
(107.2474547 -0.1437858645 0)
(107.1980032 -0.2368268327 0)
(107.1109308 -0.3206699829 0)
(106.9521279 -0.3884620457 0)
(106.7780015 -0.4539672487 0)
(106.5263304 -0.5109820236 0)
(106.2114983 -0.5506840252 0)
(105.7290406 -0.5843558199 0)