/*--------------------------------*- C++ -*----------------------------------*\
| =========                 |                                                 |
| \\      /  F ield         | OpenFOAM: The Open Source CFD Toolbox           |
|  \\    /   O peration     | Version:  v1912                                 |
|   \\  /    A nd           | Website:  www.openfoam.com                      |
|    \\/     M anipulation  |                                                 |
\*---------------------------------------------------------------------------*/
FoamFile
{
    version     2.0;
    format      ascii;
    class       surfaceVectorField;
    location    "2.77";
    object      Uf;
}
// * * * * * * * * * * * * * * * * * * * * * * * * * * * * * * * * * * * * * //

dimensions      [0 1 -1 0 0 0 0];


internalField   nonuniform List<vector> 
25162
(
(99.99756106 0.01050611554 -2.299417583e-21)
(99.99016078 0.009589014134 6.821180269e-21)
(99.99653973 0.02437169549 -2.262797761e-21)
(99.98702022 0.03169107627 2.32440266e-21)
(99.99451312 0.04594712645 -4.506610223e-21)
(99.97980685 0.06449540842 1.365622527e-20)
(99.99766259 0.05077390109 1.380426518e-21)
(99.96703863 0.114828613 -8.911573372e-21)
(99.98639366 0.1115750254 -1.495679156e-21)
(99.99695778 0.09089597215 2.1572412e-21)
(99.99888289 0.05401811669 1.056953093e-21)
(99.98427664 0.1468648877 2.136828681e-21)
(99.99641886 0.0828527401 1.037715033e-21)
(99.99734589 0.066037486 -1.083521265e-21)
(99.99563191 0.1036620602 1.03767265e-21)
(99.97636528 0.231273394 2.059364218e-21)
(99.99529915 0.1289342698 0)
(99.99512698 0.1562843724 -3.680736567e-21)
(99.97021867 0.3428167908 -3.680717411e-21)
(99.99457467 0.188136078 -9.516730428e-22)
(99.9939985 0.2238697177 3.204369087e-21)
(99.963458 0.4854956381 3.445262404e-21)
(99.99353997 0.2629888894 4.231546297e-22)
(99.99330192 0.3043975166 -2.65743362e-21)
(99.96066752 0.6504049891 3.842377333e-22)
(99.9933773 0.3464754015 -2.593605352e-21)
(99.99352682 0.3870923379 4.776642493e-22)
(99.96514555 0.811956465 -1.671001917e-21)
(99.99377562 0.4243652577 2.394229289e-21)
(99.99474552 0.4551529872 1.908952502e-21)
(99.98020857 0.9320507344 -8.109833403e-22)
(99.99667815 0.4763753856 0)
(99.99922715 0.4866465035 0)
(100.0016021 0.9728928587 1.012570827e-22)
(100.001857 0.48492658 0)
(100.0042427 0.4717212996 8.31535508e-22)
(100.0219415 0.9209504612 -1.481603783e-23)
(100.0058439 0.448245653 1.373214027e-21)
(100.0063705 0.4165732064 -5.753984905e-22)
(100.0344575 0.7978915355 -8.276279157e-22)
(100.0064467 0.3796832345 -1.526418073e-21)
(100.0065413 0.3405628676 8.242650008e-23)
(100.0373547 0.6415271811 2.053969475e-21)
(100.006502 0.3006119584 5.406184285e-22)
(100.0061913 0.2616606876 0)
(100.0341989 0.486220987 0)
(100.0057241 0.2250860859 0)
(100.0052938 0.1915791813 8.110292462e-22)
(100.0277369 0.3530596441 1.686940272e-21)
(100.0052384 0.1619235009 -4.103431458e-21)
(100.0049717 0.1339513887 -1.533901158e-21)
(100.0221856 0.2428870555 3.316057583e-21)
(100.0041911 0.1102378606 3.315810134e-21)
(100.0031214 0.09061686358 -9.101366303e-22)
(100.0131116 0.1627193915 -4.332859325e-23)
(100.0010062 0.0766083074 1.784024958e-21)
(100.0075867 0.07181635604 -7.851731222e-21)
(100.0441406 0.1774828562 3.27232132e-22)
(100.0163982 0.1627508634 -2.77904362e-21)
(100.0027455 0.07512470605 -1.596290316e-21)
(100.0051569 0.04081545172 -9.782592427e-22)
(100.0289906 0.1068912443 1.552547616e-20)
(100.0041339 0.01888712139 -7.847592154e-21)
(100.0206021 0.05599780416 -1.655324439e-20)
(100.0177988 0.01746371361 1.327501168e-21)
(99.97749365 0.02938820271 1.137812565e-20)
(99.96253741 0.01630765831 3.641035731e-22)
(99.96727292 0.06875173331 1.81130322e-20)
(99.95011336 0.05459232353 -1.594474883e-20)
(99.94801669 0.1294376355 9.493339498e-21)
(99.92300683 0.1125037767 -2.459666592e-20)
(99.93988103 0.1996223091 -1.618714815e-21)
(99.87680145 0.2031218128 4.737047751e-20)
(99.89805419 0.2522514295 -1.040620427e-20)
(99.91198377 0.2546203372 -2.237386176e-21)
(99.93302813 0.249238482 4.377816735e-21)
(99.95841883 0.1782533212 2.174699891e-21)
(99.93623884 0.287721215 2.105195914e-21)
(99.91481357 0.3173055713 2.152747252e-21)
(99.85751759 0.4172006835 -4.366794857e-21)
(99.8949126 0.4014530959 -3.137045753e-23)
(99.90479216 0.4517142087 2.059687409e-21)
(99.87220495 0.5037073417 -2.583918196e-23)
(99.79162652 0.6559102956 0)
(99.8610037 0.5818400326 0)
(99.8241882 0.6675528508 -2.553513711e-21)
(99.87409773 0.6584332429 -4.99609068e-21)
(99.85630785 0.6973195764 -7.788987656e-23)
(99.81664192 0.8047341823 -1.123533021e-20)
(99.84641161 0.7586513708 -3.862262803e-21)
(99.81630028 1.000744705 2.893297463e-23)
(99.84366059 0.939518993 -2.493176953e-21)
(99.76832021 1.155304696 -1.356203005e-20)
(99.80991217 1.081173637 -3.312412634e-21)
(99.7941273 1.367742977 -5.956430488e-21)
(99.83094311 1.271673618 -5.658426835e-21)
(99.74429344 1.573732562 7.81045803e-22)
(99.79515184 1.460214756 -7.126892855e-21)
(99.80911009 1.74544891 -2.895346731e-25)
(99.85231734 1.603717592 -4.428289556e-21)
(99.76881358 1.995749133 -4.656804324e-21)
(99.8220815 1.834504638 -3.297477221e-21)
(99.8733221 2.049267869 -3.434245636e-21)
(99.91673563 1.859494245 -5.643832512e-21)
(99.85256114 2.327813192 -8.636339067e-21)
(99.89826918 2.117562043 -3.20714709e-21)
(99.97895721 2.191260807 -1.101853431e-21)
(100.0085807 1.957965217 -3.721664344e-22)
(99.98494761 2.462103524 -6.91613674e-22)
(100.0071313 2.216246999 -2.162997595e-22)
(100.0890478 2.127221179 1.56287332e-22)
(100.0816299 1.865966621 -2.662409718e-23)
(100.1147355 2.352130147 4.037804974e-22)
(100.1118154 2.091444425 -1.108699171e-21)
(100.1668177 1.880748077 -3.457847815e-22)
(100.1269077 1.623753145 -2.613818125e-22)
(100.1996555 2.047536659 -8.213045861e-23)
(100.1764383 1.802630211 2.671303916e-21)
(100.1953706 1.537686315 2.786241e-21)
(100.1386225 1.309929996 4.84109495e-21)
(100.2283487 1.652058945 4.835114444e-21)
(100.1946323 1.441515717 5.939492124e-22)
(100.1858307 1.176997181 -7.45613144e-21)
(100.1271588 0.9930585476 -6.919948136e-21)
(100.2125585 1.250408453 -2.516603748e-21)
(100.1780441 1.085523375 -2.458379448e-21)
(100.1536182 0.8611503311 -5.736707982e-21)
(100.1004186 0.7220904691 5.184995579e-22)
(100.1703821 0.904940416 -1.517333732e-21)
(100.143064 0.7862524966 6.161155294e-21)
(100.0893089 0.4797764196 -1.392672968e-20)
(100.1442374 0.6582660373 -1.39256476e-20)
(100.1994722 0.7040549608 1.407246368e-20)
(100.1219968 0.5403485979 -2.835090512e-20)
(100.1014379 0.4408238368 1.2241762e-20)
(100.1394402 0.465327397 -1.702305998e-20)
(100.081578 0.3575465919 2.483285847e-20)
(100.0615655 0.3187757944 2.756775895e-20)
(100.0718515 0.20791763 2.313581428e-20)
(100.1656056 0.3274986648 -1.561812665e-22)
(100.1298694 0.376853183 4.91225571e-20)
(100.0764056 0.2976578854 2.630274217e-21)
(100.0497563 0.1187594319 -7.185564974e-22)
(100.1126357 0.1957869864 3.312849675e-20)
(100.0385854 0.0537982253 -7.728060758e-21)
(100.0818393 0.1025951796 -1.755753797e-20)
(100.0685431 0.03189838631 7.846519428e-21)
(99.93894265 0.0399291201 -2.734520953e-20)
(99.92483124 0.01759742983 -1.366785034e-20)
(99.91075699 0.09501636573 -5.909718105e-20)
(99.89819741 0.06066951945 1.24300237e-20)
(99.85913328 0.1817384917 1.15210834e-20)
(99.84155483 0.1300850385 -5.001412023e-20)
(99.80805948 0.3044640328 3.015315114e-20)
(99.74879588 0.2420472425 5.429862929e-20)
(99.74255641 0.3326628109 -4.614744655e-20)
(99.8374933 0.3195425216 -8.968924528e-21)
(99.75013553 0.3661714502 -6.63220417e-20)
(99.77325481 0.3978885609 -4.485341859e-21)
(99.75020767 0.5294518586 -8.687964771e-21)
(99.71879681 0.5153907161 -4.32713392e-21)
(99.61656773 0.6188515449 3.039695844e-20)
(99.65655934 0.658492124 8.497737789e-21)
(99.63633106 0.8411581813 -7.496071827e-21)
(99.58602038 0.8319964789 5.563526212e-21)
(99.44117362 0.9980730332 -4.276731733e-20)
(99.54769919 1.003147166 2.965639293e-21)
(99.47350655 1.078215129 -1.856960907e-20)
(99.5367365 1.228222807 -7.563344969e-21)
(99.49772952 1.230761058 0)
(99.41378253 1.355777799 7.872619831e-21)
(99.46164019 1.362161269 -7.514204436e-21)
(99.41225244 1.798478547 3.627720119e-21)
(99.35555471 1.81869588 1.419381879e-20)
(99.25339975 2.000156094 7.022695824e-21)
(99.32505614 1.988480959 1.760667826e-20)
(99.34574521 2.488334433 -2.925320879e-21)
(99.26801513 2.542370105 -6.510217107e-21)
(99.16656837 2.782795533 -2.644391054e-20)
(99.26448083 2.733536898 1.174572278e-20)
(99.39899868 3.205873481 4.110608159e-20)
(99.30786128 3.315030586 2.211765625e-20)
(99.227264 3.611821234 -5.938347746e-20)
(99.34326379 3.497978064 4.094997136e-20)
(99.61246359 3.798541029 -2.216537348e-22)
(99.52399535 3.985258772 -7.125707457e-20)
(99.49734727 4.313793795 -3.004395914e-21)
(99.60903216 4.108638273 -3.012008481e-21)
(99.96811643 4.063107363 1.6794119e-20)
(99.91389466 4.332000111 1.976939921e-20)
(99.95874196 4.638204256 2.240817301e-20)
(100.0223921 4.342609199 1.504771031e-20)
(100.3301345 3.878733307 -3.954908381e-20)
(100.3351496 4.196639482 -2.549505446e-20)
(100.4329864 4.426747211 -3.852252604e-20)
(100.4231505 4.08603498 -1.420231554e-20)
(100.5536031 3.32930815 3.251086971e-21)
(100.6128551 3.637677735 3.202713726e-20)
(100.7206851 3.775546498 -3.113588464e-20)
(100.6493262 3.457530051 -2.332750275e-20)
(100.6150808 2.642443944 3.950970077e-21)
(100.6971737 2.899045732 1.140032372e-20)
(100.7895183 2.966890406 7.06013012e-21)
(100.6971894 2.712306269 7.724307649e-21)
(100.5696623 1.977362787 -6.863261366e-21)
(100.6573587 2.180806433 -1.609526017e-20)
(100.7279331 2.208666712 -5.549640738e-21)
(100.6323211 2.011560095 6.042154727e-21)
(100.5422974 1.555824809 -1.879397753e-20)
(100.4652602 1.406195017 -1.263370283e-20)
(100.5922183 1.560938749 -1.265073989e-20)
(100.5127882 1.41987405 6.692730902e-21)
(100.3508874 0.9097434703 -5.51000267e-20)
(100.4727304 1.116557902 -2.884571706e-20)
(100.5432918 1.091364274 -8.357833605e-20)
(100.4030578 0.9115216836 -3.98549386e-20)
(100.2483961 0.5975423368 -6.233644366e-20)
(100.3394282 0.7382783894 2.489069591e-20)
(100.3844319 0.7095106045 -2.959696778e-20)
(100.2815411 0.5933825449 -2.586294971e-20)
(100.1986287 0.3114402309 1.043701596e-20)
(100.3450253 0.4241019977 -2.641684772e-20)
(100.3324552 0.5242744734 -1.278391727e-22)
(100.247757 0.4811416214 -1.51693078e-20)
(100.1394341 0.1767322451 1.553514535e-20)
(100.2393408 0.2508200533 2.756596139e-20)
(100.1074975 0.07949593264 -1.970437928e-21)
(100.1735699 0.1301422221 -3.970428304e-21)
(100.1435132 0.04013489192 0)
(99.8912772 0.03707492032 2.745987031e-20)
(99.88988559 0.01141718577 -4.587811735e-21)
(99.83776265 0.09296651588 2.314435839e-20)
(99.84551901 0.04329121582 3.20886774e-20)
(99.74165752 0.1886013563 -9.191338684e-21)
(99.75145606 0.1062496053 -4.51976085e-21)
(99.62128093 0.3478863376 0)
(99.59885864 0.2144730398 7.023881057e-21)
(99.54337921 0.3485249629 2.129854599e-20)
(99.64417917 0.394040066 -6.202290704e-20)
(99.53064559 0.3991291134 1.601308658e-20)
(99.54231774 0.4686837709 0)
(99.46033419 0.6802193612 1.823843025e-22)
(99.43599138 0.6191679451 -3.513342774e-20)
(99.2859216 0.709397886 -3.51097925e-20)
(99.31070482 0.8055286109 7.111708632e-20)
(99.20897653 1.118755813 -1.054745366e-19)
(99.16551555 1.034197966 3.999471319e-20)
(98.95041059 1.190954169 -7.063579313e-20)
(99.05546711 1.301052868 -3.518706086e-20)
(98.95091415 1.325507782 -5.772690799e-20)
(98.95897859 1.675807722 8.281884223e-21)
(98.91497126 1.628407317 1.643091451e-20)
(98.78046344 1.756269562 4.167185906e-20)
(98.83027671 1.819234325 8.213820669e-21)
(98.66039337 2.528583555 7.673274998e-20)
(98.58539839 2.482643068 7.073732151e-20)
(98.42495958 2.670902267 2.123087201e-19)
(98.51347851 2.734038685 1.452260981e-20)
(98.47025206 3.601615046 3.481318012e-19)
(98.35193987 3.576593872 2.334884739e-19)
(98.18167241 3.844595395 2.317721218e-19)
(98.3238956 3.883704663 -1.017584456e-21)
(98.52275356 4.825049702 -1.944067277e-19)
(98.35560704 4.858738722 -3.987228855e-19)
(98.21211378 5.222750347 -1.853903066e-19)
(98.41519284 5.189250488 -2.480218315e-20)
(98.98549591 5.965546955 1.16210964e-19)
(98.78570021 6.117749811 -2.406835404e-19)
(98.74020783 6.559756011 2.607038222e-19)
(98.97833991 6.377666985 1.469257947e-19)
(99.8876497 6.564296905 1.452186191e-19)
(99.72717461 6.879572983 1.660878353e-19)
(99.83919869 7.297177 1.823293771e-19)
(100.0097906 6.927280147 7.798999193e-20)
(100.8513462 6.255585571 -8.488699589e-20)
(100.8183856 6.680037466 6.679027184e-21)
(101.0369885 6.947017718 -8.508550168e-20)
(101.0435401 6.476125839 -2.449367024e-19)
(101.4084245 5.206339244 -1.261313509e-19)
(101.5044235 5.622049373 2.982325734e-21)
(101.7149166 5.720044049 1.84178057e-19)
(101.5830384 5.288967435 -2.836335758e-19)
(101.485562 3.942433695 0)
(101.6369973 4.270593837 1.54527081e-19)
(101.785887 4.267423899 0)
(101.6103588 3.945801135 4.28061152e-20)
(101.3157551 2.837801204 4.917972618e-20)
(101.4601209 3.066956658 -1.168802469e-20)
(101.554934 3.020311885 9.977951685e-20)
(101.3976044 2.808324269 2.278378384e-19)
(101.1924044 2.131491347 0)
(101.0658407 1.969353824 5.061109235e-20)
(101.2524743 2.082544067 0)
(101.1180509 1.932863076 0)
(100.7736189 1.24100826 3.014227447e-20)
(100.9747569 1.458239872 1.960293996e-20)
(101.0370135 1.351086511 -1.686541657e-20)
(100.8267249 1.177264909 3.777021038e-20)
(100.5475055 0.7971117801 -3.429232659e-20)
(100.6952327 0.9418227228 -1.532763079e-20)
(100.7310754 0.8574316275 -1.545842764e-20)
(100.5806329 0.7460935279 -7.549925547e-21)
(100.373896 0.36156866 -9.70312531e-21)
(100.5677024 0.4451650374 -1.976586181e-20)
(100.60643 0.6093627171 -2.618303299e-21)
(100.4992684 0.5874932083 5.979538235e-21)
(100.2626912 0.2017356863 7.918303097e-21)
(100.390002 0.2583282045 1.201187446e-20)
(100.2006726 0.0895335893 -1.999636436e-21)
(100.2793806 0.13020849 -3.524732573e-21)
(100.2279479 0.03951393525 -5.052937097e-22)
(99.851757 0.0171240236 0)
(99.87375757 -0.003301680751 0)
(99.76878102 0.0546694286 4.65872303e-21)
(99.81018251 -0.001164947523 0)
(99.61973386 0.1345571493 1.185171681e-20)
(99.6762442 0.03338678405 -3.677871115e-21)
(99.41485871 0.3124675651 1.952965169e-20)
(99.45297996 0.1123542871 2.60626034e-20)
(99.33995494 0.2669030807 -7.843050812e-21)
(99.41649329 0.3797859581 2.758437207e-20)
(99.29982376 0.3339432511 2.204861102e-21)
(99.27869851 0.4369557091 -1.11981325e-20)
(99.1001447 0.701710726 0)
(99.10269872 0.5974366441 -2.31936051e-20)
(98.90974434 0.6528089964 -1.908409106e-20)
(98.89382468 0.8007448027 4.730997076e-21)
(98.66467987 1.20564299 0)
(98.65027671 1.057473511 4.73049056e-21)
(98.36648117 1.159094091 -4.903728574e-21)
(98.42202819 1.379149838 2.352015287e-20)
(98.30314295 1.371853968 6.11196003e-21)
(98.18527901 1.880988229 3.048511295e-19)
(98.15462558 1.776638769 3.525632195e-20)
(97.97211769 1.879804906 7.308871046e-20)
(98.00549162 2.002802508 -1.011548181e-19)
(97.61359363 2.959678011 -1.444047957e-19)
(97.5416543 2.830512448 -4.817972155e-21)
(97.31312653 2.992575088 6.066476235e-19)
(97.39130655 3.15591633 0)
(97.13116444 4.432665842 -1.572345122e-19)
(96.99014241 4.295864188 -7.31831488e-19)
(96.7177152 4.565144352 -1.155596731e-19)
(96.88426866 4.735635129 1.471164118e-19)
(96.97985765 6.349967036 1.073514779e-18)
(96.7284756 6.247326501 6.138071504e-19)
(96.44834769 6.684209923 4.744896041e-19)
(96.75926074 6.809561837 6.673239411e-19)
(97.65167681 8.50687821 -4.642419183e-20)
(97.26320672 8.566053079 9.244566153e-20)
(97.12483869 9.217142353 3.390543887e-19)
(97.60646951 9.118321987 -3.813468788e-19)
(99.56450059 9.911149506 -1.102562292e-19)
(99.17809204 10.30743732 0)
(99.40864057 10.97740519 0)
(99.82759166 10.45639664 1.090126702e-20)
(101.8031795 9.378575644 3.476611847e-19)
(101.6959178 10.01698958 3.043219538e-19)
(102.1606229 10.3421522 2.809931885e-19)
(102.1976754 9.613689407 9.135359079e-21)
(102.9538148 7.384188818 2.997986507e-19)
(103.1295126 7.975716137 5.608519653e-19)
(103.5034801 7.971211416 3.002378834e-19)
(103.2533257 7.370902491 -2.60069204e-21)
(102.9406797 5.191011502 1.379219771e-19)
(103.2149272 5.609484395 4.920539466e-20)
(103.430749 5.476392919 -1.113308578e-21)
(103.1123131 5.082871812 4.856092775e-20)
(102.4292851 3.493185929 -2.821418375e-19)
(102.6750408 3.750080321 1.012571472e-19)
(102.7725312 3.614047571 -1.324537288e-20)
(102.5142516 3.382020492 -1.179432455e-19)
(102.0653963 2.478170615 -2.286012537e-20)
(101.8830402 2.32087772 -3.900232496e-21)
(102.1159969 2.36490644 3.662125023e-21)
(101.9300441 2.229634726 2.325646998e-20)
(101.3287254 1.415309904 -9.620145277e-20)
(101.6142845 1.619857436 -6.082619957e-20)
(101.6428697 1.426364251 -3.396356228e-20)
(101.3607405 1.284966624 -1.731973684e-20)
(100.9298739 0.8841770644 1.180693706e-20)
(101.1367272 1.010356583 3.570368254e-20)
(101.1402948 0.8730304778 -3.971643983e-21)
(100.9436758 0.7860831818 -3.897907785e-21)
(100.5707896 0.3438058754 2.030295807e-21)
(100.8015026 0.375306206 0)
(100.910979 0.5811597732 -6.510522025e-23)
(100.7962859 0.602969078 -1.059630046e-20)
(100.3957287 0.1844700409 4.519536749e-22)
(100.5402223 0.2076926446 2.030112768e-21)
(100.2974591 0.079362309 -2.033213958e-21)
(100.3785037 0.09731272805 -2.035159804e-21)
(100.3027973 0.02842663743 -2.032615719e-21)
(99.83945905 -0.02147551794 0)
(99.89404012 -0.02659830886 2.285156524e-21)
(99.72689811 -0.02313655707 -9.319536255e-21)
(99.81183917 -0.07261052635 -2.303742913e-21)
(99.52327433 0.01379165032 9.727772249e-21)
(99.64159773 -0.08982444123 -4.61180129e-21)
(99.2246942 0.1540765572 1.269970062e-20)
(99.35488282 -0.06694529102 4.072551903e-21)
(99.16114772 0.08266220101 -4.547186082e-23)
(99.19695815 0.2592691675 -9.395859935e-21)
(99.08246863 0.1578389156 -9.546655442e-21)
(99.02395842 0.2757651595 0)
(98.72309509 0.55967779 -1.908361995e-20)
(98.77099777 0.4210477727 0)
(98.54845306 0.4221678451 -1.404480284e-22)
(98.46815259 0.607586815 -1.028498836e-22)
(98.06634468 1.046191849 9.908647563e-21)
(98.11155797 0.8478114702 1.481768701e-20)
(97.77987926 0.8661015573 2.004377209e-20)
(97.75637851 1.19332914 -1.673260315e-20)
(97.64612848 1.113803122 -1.67574623e-20)
(97.3217836 1.73494278 8.058952687e-20)
(97.33122105 1.584103419 3.149734958e-21)
(97.10795368 1.635302775 -2.553460297e-19)
(97.09114158 1.814570448 -2.53402923e-19)
(96.35120194 2.883648831 -7.007285294e-19)
(96.31987462 2.675868681 3.453812419e-19)
(96.01882252 2.776669231 -3.579484857e-19)
(96.05006284 3.034914389 1.368315091e-21)
(95.30360915 4.638416235 -2.030268225e-18)
(95.20092421 4.368560741 -7.076976895e-19)
(94.79519915 4.542061717 -7.055688297e-19)
(94.91047451 4.90925973 7.091787784e-19)
(94.4066237 7.394761257 -7.986677537e-19)
(94.11487032 7.028687621 8.250809996e-19)
(93.56467755 7.472173063 2.849150819e-19)
(93.92709342 7.930171234 6.145947999e-19)
(94.7401995 11.52269465 -9.989813293e-19)
(94.04113816 11.28201762 -4.369033436e-19)
(93.55116522 12.31428482 -1.30933207e-18)
(94.4934102 12.5567883 -5.519059342e-19)
(98.62485613 15.15240732 1.805741164e-21)
(97.69834786 15.71617121 4.521897888e-20)
(98.22714617 17.05513988 6.098568508e-20)
(99.25582333 16.15148296 6.122334708e-20)
(103.849393 13.85332396 0)
(103.6765571 14.97400497 9.634919402e-20)
(104.7540041 15.26932263 0)
(104.6914666 13.99739233 0)
(105.7686761 9.729497013 0)
(106.1633398 10.5789718 -2.053015498e-19)
(106.7925617 10.28078834 5.409677235e-19)
(106.239167 9.474492639 -6.080255403e-19)
(105.2131873 6.17568477 3.778476825e-20)
(105.705848 6.646609968 2.538725241e-19)
(105.9354049 6.321632373 2.45435118e-19)
(105.3889555 5.861668674 -1.226524339e-19)
(103.9498467 3.810305977 -2.609021585e-19)
(104.3371726 4.065851887 -5.226897704e-19)
(104.3885297 3.80355312 -2.75754763e-19)
(103.9991129 3.594619495 3.497147402e-21)
(103.1198566 2.496599443 3.488658213e-20)
(102.8615217 2.368182232 6.737988107e-20)
(103.1267886 2.31959705 -4.028732645e-20)
(102.8761329 2.214721941 1.777165165e-20)
(101.967039 1.375437089 2.793447783e-20)
(102.3254462 1.520736405 -2.311143698e-22)
(102.2868547 1.256509764 1.683878395e-20)
(101.9477572 1.17965493 1.256362594e-20)
(101.3507969 0.819771009 -1.643656114e-20)
(101.6119009 0.9032105194 -8.358282229e-21)
(101.5592712 0.7223051561 -8.359901528e-21)
(101.3245449 0.6814469099 1.268447523e-20)
(100.7570261 0.2443313882 0)
(101.0100524 0.2084182407 1.333307554e-21)
(101.2026425 0.4271835776 -1.120332969e-20)
(101.0985894 0.5039270979 2.783955097e-20)
(100.5116908 0.1188398131 -5.103805359e-22)
(100.6584941 0.09326989855 -1.578110801e-21)
(100.374887 0.04646930812 -2.041732217e-21)
(100.4467244 0.02965370927 -2.303753951e-21)
(100.3466153 0.006399603034 2.620144358e-21)
(99.87289003 -0.07699594762 -1.78578514e-23)
(99.96668741 -0.05736633653 1.000606916e-22)
(99.73458067 -0.1380281191 2.40046576e-21)
(99.86948365 -0.1671152005 -1.21084242e-22)
(99.48357045 -0.1682937336 -1.254768648e-20)
(99.67032398 -0.2559785551 1.924207884e-21)
(99.08961842 -0.08930161921 -1.125757912e-20)
(99.33197076 -0.3148110021 -1.904646352e-20)
(99.05864833 -0.1979660611 -1.629637668e-20)
(99.01515071 0.02677124697 -8.846582058e-21)
(98.93834317 -0.1275142383 -3.569412006e-21)
(98.82534867 -0.007739120486 3.345792101e-23)
(98.39582339 0.2418108627 1.448115086e-20)
(98.50324207 0.08724234871 1.478788959e-20)
(98.27393792 0.0216204559 7.309746873e-21)
(98.11805597 0.2164723064 2.523969648e-20)
(97.53230038 0.6193150566 -7.24452031e-20)
(97.66419544 0.3846653413 -6.7538752e-20)
(97.32981375 0.3077737229 -3.648833118e-20)
(97.17222669 0.6597510181 -2.470852373e-20)
(97.08631371 0.5445471237 -1.646488655e-19)
(96.51395956 1.181352695 1.766801986e-19)
(96.58326518 0.9988561918 0)
(96.3426331 0.9813628629 -3.689416295e-19)
(96.25284695 1.189676913 0)
(95.08261069 2.196860263 -7.860253872e-21)
(95.13906715 1.924625087 -4.098065689e-19)
(94.80376698 1.920939503 4.096089407e-19)
(94.72132203 2.233867926 -7.856888829e-21)
(93.22650814 3.850251019 1.058986785e-18)
(93.2559624 3.431003705 -2.153451563e-19)
(92.74205986 3.464179343 -2.19613879e-20)
(92.67526961 3.953849659 -8.687840966e-19)
(90.64257415 6.883017065 0)
(90.55038458 6.169792358 4.460086631e-19)
(89.63103615 6.339655848 -9.245019161e-19)
(89.69944315 7.254085647 0)
(87.87333227 14.0148057 -3.499942059e-19)
(86.99526036 12.67356675 0)
(84.99211872 14.32638477 1.21059351e-18)
(85.23675997 13.40670212 -1.277787504e-18)
(86.94658274 15.69017943 5.014893497e-19)
(85.83397779 15.7235051 -2.95971851e-19)
(93.47837026 26.34087113 1.112136789e-19)
(94.95751023 25.83951057 3.224633867e-20)
(94.09332766 28.2683564 -2.186936733e-19)
(95.87586913 27.30471278 -1.715473445e-19)
(109.694112 22.0304397 -1.241757135e-19)
(109.7710657 20.09847638 0)
(111.4909723 19.46580126 -4.05489386e-19)
(110.688986 22.71657906 8.262941746e-19)
(112.8278103 21.27086826 0)
(112.4558122 22.18354314 0)
(111.7481787 12.4411984 -9.323402669e-21)
(110.7650383 11.41853598 1.755706576e-18)
(112.3931886 11.45649103 3.997547976e-19)
(111.2451568 10.68136742 -1.529753574e-18)
(108.3419921 6.285796913 -6.276968057e-19)
(109.1490228 6.721857498 -7.831720381e-19)
(109.2221436 6.070191303 7.235585625e-19)
(108.4030426 5.768173205 0)
(105.788418 3.497106347 8.322372751e-19)
(106.3352783 3.677791152 -3.083801043e-19)
(106.2626232 3.289455553 -3.204162113e-19)
(105.7373733 3.177144204 -5.896208838e-19)
(104.2594172 2.066560948 -2.842714969e-19)
(103.9200243 2.000435014 -3.760540533e-20)
(104.1841986 1.833071883 -7.298547957e-20)
(103.863671 1.787536756 -7.208116581e-20)
(102.587799 1.065976617 4.391222472e-21)
(103.0071645 1.107883009 1.921132201e-20)
(102.8555987 0.8032492986 -2.490559006e-21)
(102.4916236 0.8232329297 -4.522414366e-21)
(101.7509352 0.5778097297 4.492878588e-21)
(102.048673 0.5953949803 -2.618577464e-23)
(101.9240938 0.3902816102 -7.383734132e-21)
(101.6667863 0.4115783349 9.055522262e-21)
(100.894753 0.06151971635 -2.148293396e-22)
(101.1390567 -0.05110832258 -2.840267217e-22)
(101.4363456 0.1435702285 8.655031763e-22)
(101.3571144 0.2533675621 6.677816614e-21)
(100.5824199 0.003799477118 -3.375025957e-21)
(100.7128173 -0.08140530242 -2.540234947e-22)
(100.4097515 -0.009639703936 2.533676279e-21)
(100.4593443 -0.06992864629 -2.219780045e-21)
(100.3375056 -0.02580360764 4.182539184e-22)
(99.96808581 -0.1461729437 1.868531274e-23)
(100.104579 -0.09340979285 -3.388617048e-21)
(99.81112519 -0.2819580257 -6.244340433e-22)
(99.99759989 -0.2778024389 1.474236442e-21)
(99.52631921 -0.3990754432 -4.881408591e-21)
(99.78088695 -0.4518613592 -3.212783668e-21)
(99.05618116 -0.4147827829 1.007554155e-20)
(99.41128131 -0.6094063248 -1.111297629e-21)
(99.06875614 -0.5512714368 1.064972985e-21)
(98.92708943 -0.3056344332 4.96088221e-21)
(98.90990716 -0.4974445423 1.024127132e-20)
(98.74141439 -0.3964232806 7.237639392e-21)
(98.19399678 -0.2314646252 -2.455135384e-21)
(98.36859534 -0.3777290658 3.840265975e-21)
(98.15989255 -0.5110164597 2.532248172e-21)
(97.92766504 -0.3413615936 7.688963692e-21)
(97.18514097 -0.05776054571 3.926414421e-20)
(97.41005551 -0.2858359997 -2.557269728e-23)
(97.10802442 -0.462184411 1.62603253e-20)
(96.80383316 -0.1206781923 5.746390847e-20)
(96.76750938 -0.2820005976 -1.727976705e-21)
(95.94639428 0.2539046691 1.857682597e-19)
(96.08684932 0.07182606014 3.1475798e-19)
(95.85966583 -0.02151286879 -1.937686352e-19)
(95.68906374 0.1776201643 8.107405483e-19)
(94.15233191 0.87850491 1.102250957e-18)
(94.32244611 0.599920595 8.678596386e-19)
(94.0064339 0.4776338518 -2.337363871e-19)
(93.79230988 0.7779293386 -2.532005993e-19)
(91.60030296 1.874934247 5.036447461e-20)
(91.84829202 1.440756034 -6.780954659e-19)
(91.36313583 1.248405771 -4.355796528e-19)
(91.03164911 1.713369442 1.043618883e-19)
(87.24026175 3.525799922 4.767071927e-19)
(87.70348481 2.743453963 1.835898343e-20)
(86.85470677 2.334721975 -5.27504665e-19)
(86.14191626 3.170963878 -1.068711103e-18)
(78.18831621 6.580468611 6.353371738e-19)
(78.83454794 5.535185878 1.282631111e-18)
(77.82058194 4.843047062 -6.224776645e-19)
(76.84430302 5.946748189 -1.356391106e-18)
(128.2761212 24.50967111 1.739357569e-18)
(126.1901865 23.4621617 9.004733586e-19)
(128.8574935 22.30356665 8.991908438e-19)
(126.8623999 21.72108123 8.977872786e-19)
(119.6719802 10.19316907 -3.733027534e-20)
(117.8174162 9.740280176 -1.106335363e-18)
(119.4958182 8.46608612 6.142038116e-19)
(117.78644 8.419928369 -1.050221482e-18)
(111.8318109 4.677419432 3.874973801e-19)
(112.9433817 4.795047912 2.046637712e-19)
(112.5945647 3.948266702 -2.436496131e-19)
(111.5862559 3.987351237 -1.916241356e-19)
(107.5781481 2.311650178 -3.56509552e-19)
(108.2415304 2.312939794 -6.809877564e-19)
(107.9479197 1.871050904 6.750560631e-19)
(107.3513372 1.932022352 -6.767516774e-19)
(105.2589031 1.119110382 4.471949501e-19)
(104.8705587 1.151697442 -7.747025269e-20)
(105.0708647 0.8669089784 -2.352392259e-19)
(104.71995 0.9196793824 4.638137643e-21)
(103.0776741 0.4753595536 -4.858696778e-21)
(103.5246749 0.3968902827 -2.381877177e-21)
(103.2410889 0.09213906936 7.647781256e-21)
(102.8868795 0.2230651538 1.160307828e-21)
(102.0564509 0.1625365738 -2.049627434e-21)
(102.357275 0.09448499122 1.365257987e-20)
(102.1492056 -0.1001624342 5.05969219e-21)
(101.9036105 -0.00406417605 1.002838065e-20)
(100.945738 -0.1904763306 -3.500312986e-22)
(101.1557074 -0.3850102038 -1.066110251e-21)
(101.5504583 -0.2475116291 -1.077939243e-21)
(101.5204131 -0.09765919237 -1.180936374e-21)
(100.581064 -0.1529785563 1.090717077e-21)
(100.6773256 -0.3023483333 1.324449811e-21)
(100.3801031 -0.08476671371 -4.298605571e-21)
(100.3949398 -0.1941035308 1.691422015e-21)
(100.2575251 -0.06603149722 -2.119817899e-21)
(100.1365609 -0.223485271 -1.933022961e-21)
(100.3153954 -0.1318468489 1.071545028e-21)
(99.97026696 -0.4433136057 -1.129038445e-21)
(100.2049993 -0.3957698851 -7.927187914e-22)
(99.66937182 -0.6585308973 5.793765104e-22)
(99.98395551 -0.6606655511 -2.845587819e-22)
(99.15050629 -0.7895709167 6.597377935e-22)
(99.60674956 -0.924423514 9.600570369e-22)
(99.2130565 -0.941757127 5.760154851e-22)
(98.96736775 -0.7048513459 1.674695727e-21)
(99.02325824 -0.9155819315 -1.683388044e-23)
(98.80568631 -0.8486870988 -1.683627474e-23)
(98.17737991 -0.8087969607 -2.528833763e-21)
(98.41237561 -0.9220448176 0)
(98.24783424 -1.115714 -1.242532952e-21)
(97.95309147 -0.9965420412 -1.324948574e-21)
(97.10387405 -0.8910663846 -2.306758305e-20)
(97.41308241 -1.072328926 -4.339098322e-20)
(97.17515895 -1.329267124 -1.73867715e-20)
(96.74500234 -1.053781684 -8.806721496e-20)
(96.76901951 -1.236956904 2.150925723e-19)
(95.76869008 -0.899285654 5.066924787e-19)
(95.9694961 -1.050096622 8.214284607e-19)
(95.79109446 -1.201507317 3.976139523e-19)
(95.54550019 -1.048170709 3.926043233e-19)
(93.8471442 -0.7886933151 2.414341409e-19)
(94.1034977 -1.008592877 9.041983097e-19)
(93.87828248 -1.211128919 -3.529715086e-22)
(93.55132709 -0.9915616798 -7.260330257e-19)
(91.16243952 -0.6858065527 4.372546908e-19)
(91.57213586 -0.9841863782 4.212513696e-19)
(91.24690711 -1.297344607 9.533254758e-19)
(90.76437352 -1.021184135 1.211523325e-18)
(86.93334844 -1.036573818 -5.506584597e-19)
(87.67647318 -1.401985811 -5.379091538e-19)
(87.23539246 -1.968110315 -5.33077947e-19)
(86.38021128 -1.701893161 -6.766714189e-19)
(80.96906044 -3.500333177 -6.045342837e-19)
(81.67621584 -3.525606639 -1.359134779e-20)
(81.58845695 -4.079050354 -1.215652401e-18)
(80.93124365 -4.171136884 -5.871963512e-19)
(141.5676251 5.550848051 -1.194336622e-18)
(139.8175171 6.661443511 -2.439460789e-18)
(140.1160413 4.153668868 -3.714016872e-18)
(138.655804 5.250814064 -1.300665043e-18)
(124.7955521 2.207604609 2.500584011e-18)
(122.9738403 2.980145931 7.437735655e-19)
(123.4554921 0.8613033032 -1.020565282e-20)
(122.0287079 1.737633554 7.40433496e-20)
(114.2651451 1.109023515 -2.054019965e-21)
(115.3838529 0.7110462268 7.268840087e-19)
(114.5483017 0.02046927041 2.364598972e-19)
(113.6217243 0.4821063866 6.741807784e-19)
(108.7677608 0.2655479885 7.149134755e-19)