/*--------------------------------*- C++ -*----------------------------------*\
| =========                 |                                                 |
| \\      /  F ield         | OpenFOAM: The Open Source CFD Toolbox           |
|  \\    /   O peration     | Version:  v1912                                 |
|   \\  /    A nd           | Website:  www.openfoam.com                      |
|    \\/     M anipulation  |                                                 |
\*---------------------------------------------------------------------------*/
FoamFile
{
    version     2.0;
    format      ascii;
    class       volScalarField;
    location    "0.87";
    object      nut;
}
// * * * * * * * * * * * * * * * * * * * * * * * * * * * * * * * * * * * * * //

dimensions      [0 2 -1 0 0 0 0];


internalField   nonuniform List<scalar> 
12556
(
1.15588663
1.155857378
1.15582792
1.155803193
1.156026246
1.156021863
1.15603091
1.156055255
1.156103167
1.156186832
1.156307791
1.156440018
1.156535558
1.156535831
1.156444177
1.156319491
1.156203708
1.156127508
1.156068533
1.156045884
1.155822396
1.155833425
1.155858035
1.15588602
1.15514131
1.155052485
1.154963906
1.154898996
1.155109916
1.155117287
1.155177166
1.155387977
1.155613979
1.156005325
1.156575349
1.157223543
1.157713062
1.15776543
1.157371556
1.156789331
1.156214014
1.155771772
1.155393752
1.155232105
1.154949431
1.154985505
1.155056441
1.15513622
1.15435788
1.154209967
1.154070455
1.153982239
1.154203682
1.154254521
1.154405043
1.154777989
1.155336869
1.156280068
1.157627515
1.030083441
0.9458543737
0.9464470674
1.023943411
1.158026511
1.156696965
1.15570925
1.154905212
1.15452225
1.154128553
1.154135591
1.154237057
1.154373007
1.153563809
1.153361693
1.153179934
1.153085615
1.153321436
1.153459462
1.153781116
1.154466237
1.155638058
1.132817158
0.8666856647
0.7099225056
0.6454997965
0.6569572617
0.7326294067
0.8737179702
1.098162228
1.156265857
1.154787501
1.154010097
1.153365579
1.153327862
1.153433187
1.153605369
1.152738847
1.152485528
1.152277485
1.152201696
1.152491162
1.152767522
1.153438641
1.154582372
1.156843588
0.8332850398
0.5907621686
0.4451716856
0.3853003762
0.4051261175
0.4868077496
0.6185454289
0.8162745823
1.117640363
1.155241733
1.153781235
1.152728024
1.15254337
1.152620085
1.152824997
1.151920892
1.151627647
1.151403079
1.151359948
1.151728806
1.152218966
1.153374944
1.155301625
0.9686458368
0.6322820454
0.4013905121
0.2516971639
0.1917611903
0.2211504796
0.3088419402
0.4366196882
0.6153289959
0.8809846099
1.156426358
1.153906976
1.152261169
1.151818937
1.151823119
1.152030572
1.151088238
1.150759825
1.150536546
1.150554984
1.151051956
1.151833041
1.153655257
1.156596145
0.8254155436
0.516482156
0.2920896125
0.1277324942
0.06882233615
0.1071731161
0.1977168985
0.3191181484
0.4828692398
0.7138338586
1.090595644
1.154474839
1.151911335
1.151129569
1.151007284
1.151197046
1.150286181
1.14993582
1.14972983
1.149823888
1.150493263
1.1516332
1.154290148
1.158136441
0.7655142443
0.4888446849
0.2817533395
0.1110776326
0.05867162588
0.1446746738
0.2552569366
0.4046401948
0.6142048518
0.9632521313
1.155444077
1.151750125
1.150528892
1.150223765
1.150368182
1.149510823
1.149141231
1.148965841
1.149188487
1.150060698
1.151627772
1.155186914
1.131651124
0.7674701915
0.5365206198
0.3877025828
0.2947696356
0.06773391363
0.1378433006
0.2333537194
0.3688598022
0.5598932635
0.8855827248
1.156705811
1.151764736
1.150008417
1.149471385
1.149553487
1.148817893
1.148440102
1.148306009
1.148690617
1.149702177
1.151803766
1.156241097
1.130260294
0.7998016588
0.6111761652
0.5271002282
0.6141468305
0.09262308156
0.1532393864
0.2396658161
0.3649216165
0.5413142114
0.8449306458
1.158153484
1.151998491
1.149660223
1.148851833
1.148846868
1.148178317
1.147796167
1.147723337
1.148296874
1.149447801
1.152132429
1.157389488
1.140379048
0.8359015765
0.6691986906
0.6120173445
0.6123042518
0.1256878225
0.1823992916
0.2657094381
0.3856581841
0.5525823239
0.8386512126
1.159631963
1.152406309
1.149465354
1.148367977
1.148270552
1.14765494
1.147275599
1.14726
1.148002161
1.149330432
1.15256835
1.158589433
1.155967688
0.866068305
0.695771676
0.6126269987
0.5271542011
0.1628358319
0.2238287953
0.3102298755
0.4294659917
0.591058477
0.8618905143
1.161120826
1.153031465
1.149498793
1.148117687
1.147916257
1.147186349
1.146811339
1.146885857
1.147825504
1.149321637
1.153049203
1.159773501
1.16584908
0.8983529829
0.7086143621
0.5686905004
0.4617939172
0.08428959207
0.2090104057
0.2855404216
0.3803372737
0.5003815589
0.6634556485
0.9123163107
1.162519981
1.153734061
1.149681809
1.148034111
1.147746222
1.146829617
1.146462972
1.146615602
1.147707597
1.149501549
1.153826705
1.16109818
1.167397594
0.9515679166
0.7448100197
0.5615258818
0.2898784149
0.1393906629
0.3077459765
0.3965578672
0.4923599054
0.6072252576
0.7601635779
0.9880680903
1.163772823
1.154497249
1.150042532
1.148153963
1.147783437
1.146499845
1.146135462
1.146359012
1.147611852
1.149642953
1.154403111
1.162134005
1.168656149
1.050950404
0.8498549167
0.6579121823
0.0737805532
0.2145169928
0.509130495
0.6044607543
0.6706609355
0.7642406069
0.9004316661
1.112233871
1.164835607
1.155222919
1.150436158
1.148370219
1.147943935
1.146255933
1.145893495
1.146172232
1.147556569
1.149788233
1.154907957
1.16300336
1.169649129
1.165438795
1.048069897
0.8826125486
0.04222543556
0.2367243579
0.5304902509
0.8033552389
0.9410191258
0.9844584458
1.087509004
1.16774749
1.165662213
1.155875355
1.15086776
1.148666781
1.148200434
1.145991683
1.145620378
1.145936116
1.147452643
1.149897983
1.15530465
1.163662294
1.17030151
1.165654726
1.121650229
0.8128228649
0.03450471615
0.2512041751
0.5448791961
0.8131781814
0.9997723888
1.103527682
1.151007647
1.168510982
1.166200001
1.156382709
1.151233801
1.148944104
1.148452627
1.14578616
1.145405354
1.145738188
1.1473429
1.149942604
1.155570903
1.164090398
1.170600112
1.165171711
1.112426934
0.7391172733
0.0323184539
0.2613931341
0.5538457347
0.819376848
1.002508343
1.104623665
1.151585098
1.168719932
1.166412812
1.15673034
1.151532172
1.149217879
1.148711521
1.145522088
1.145123043
1.145454378
1.147141587
1.149907191
1.155700787
1.164294857
1.170577259
1.164062554
1.100616326
0.6665263616
0.03300281899
0.2684214185
0.557510261
0.8228110889
1.003506589
1.104579609
1.151370511
1.168492272
1.166348197
1.156884099
1.151691313
1.149383185
1.14887148
1.145307871
1.144895817
1.145212308
1.146931922
1.149787061
1.155701196
1.164299797
1.170282508
1.16238231
1.086727237
0.6025344077
0.03464427171
0.2728913522
0.5579959253
0.8238988587
1.003289356
1.103699823
1.150557352
1.167903095
1.166046073
1.156930235
1.151808237
1.149523309
1.149005846
1.14501346
1.144586162
1.144879544
1.146631199
1.149593386
1.155587598
1.164135485
1.169764326
1.160180711
1.070998546
0.5527138997
0.03674761879
0.2760105969
0.5573724102
0.8223735136
1.002030935
1.102163067
1.14928779
1.167022982
1.16555213
1.156815183
1.151784626
1.149531679
1.149011327
1.144776182
1.14434466
1.144615292
1.146358956
1.149343236
1.155383728
1.16383496
1.169061531
1.157480441
1.053175416
0.5177380745
0.03908691329
0.2781178357
0.5560288515
0.818540042
0.9996172185
1.100043297
1.147650968
1.165911863
1.164908095
1.156648913
1.151750466
1.149531022
1.149001466
1.144445553
1.144011289
1.144262445
1.14601612
1.149061737
1.155118209
1.163432242
1.168204623
1.154273059
1.032022855
0.493026387
0.04162790492
0.2794632328
0.553999238
0.8132452062
0.9958611863
1.097315468
1.14568339
1.164612626
1.164147212
1.156353949
1.151582912
1.149394994
1.148855847
1.144186123
1.143761087
1.144001247
1.145738895
1.148765256
1.15481757
1.162958219
1.167211198
1.150464208
1.00713236
0.4747776264
0.04436321401
0.2802135824
0.5513151585
0.8070852437
0.9908075187
1.093924529
1.14338674
1.163146265
1.163289924
1.156050997
1.151439413
1.149281012
1.148725534
1.143822435
1.143407504
1.143642761
1.145393146
1.148468431
1.154499057
1.162432192
1.166079029
1.145837748
0.9810145696
0.4611593707
0.04725954012
0.2803564904
0.5479088629
0.8002354653
0.9846425634
1.08985085
1.140747852
1.161516684
1.162344873
1.155627598
1.151161725
1.149030645
1.148459589
1.143546117
1.143151227
1.143390827
1.14513223
1.148171695
1.154169321
1.161858845
1.164782887
1.140140139
0.9565344995
0.4514430953
0.05039050074
0.279691808
0.5436014785
0.7926851417
0.9775768085
1.085109162
1.137753641
1.159722053
1.161314019
1.155222124
1.150937732
1.148835495
1.14824489
1.143157996
1.142781532
1.143028304
1.144787835
1.14787884
1.153827287
1.161231346
1.163279124
1.133280596
0.9348021205
0.4447049699
0.05380346417
0.2781606588
0.5384235158
0.7844598429
0.9697574365
1.079736586
1.134398464
1.157759793
1.160196432
1.154688689
1.150571929
1.148500331
1.147893491
1.14286996
1.14251953
1.142781591
1.144539649
1.147581895
1.153467769
1.160535777
1.161513653
1.125376846
0.9157423595
0.440211014
0.05743574571
0.2758304172
0.5324951813
0.7756618948
0.9612890418
1.073800213
1.130681308
1.155627291
1.158990286
1.154190484
1.150281186
1.148246186
1.147622015
1.142469696
1.142141041
1.142416186
1.144189922
1.147282434
1.153083427
1.159754857
1.159434599
1.116686839
0.898955359
0.4373634953
0.06122567163
0.2727907182
0.5258653054
0.7662686869
0.9522098865
1.067296634
1.126611078
1.153326493
1.15769517
1.153557278
1.149844086
1.147849322
1.147212735
1.142166622
1.141866148
1.142162333
1.143940449
1.146969855
1.152666795
1.158870347
1.157005785
1.107500206
0.8840562341
0.4357350006
0.06518059809
0.2691746385
0.5185893577
0.7563013773
0.9425757315
1.06029005
1.122215139
1.150869053
1.156316634
1.152966388
1.149485025
1.147538827
1.146890234
1.141770325
1.141491358
1.141801618
1.143583157
1.146646534
1.152210266
1.157865708
1.15421301
1.098075666
0.8707650769
0.4350815292
0.06929169956
0.2651827288
0.5108716684
0.7458879248
0.9325006055
1.052870179
1.117541316
1.148279151
1.154863239
1.152258552
1.148999712
1.147102801
1.146446608
1.141432324
1.141181766
1.141514641
1.143305834
1.146301316
1.151707796
1.156728383
1.151067507
1.088601428
0.8588170784
0.4351209827
0.07354944769
0.2610168677
0.5028586942
0.7352062996
0.9221421465
1.045162533
1.112664024
1.145592669
1.153353912
1.151564979
1.148553211
1.146717474
1.146054443
1.141068435
1.14083661
1.141181846
1.14295793
1.145937319
1.151154005
1.155451913
1.147600707
1.079213009
0.8479957224
0.4356183573
0.07795901482
0.2568446011
0.4947400808
0.7244485457
0.9116876152
1.037318106
1.107674644
1.142854157
1.151803352
1.15084991
1.148070078
1.146285573
1.145618862
1.140651862
1.140448369
1.140814593
1.14259859
1.145547212
1.1505485
1.154037482
1.143861952
1.070019996
0.8381574656
0.4364211892
0.0825630177
0.2527163487
0.4866787356
0.713821427
0.9013494442
1.029505534
1.102674938
1.140116623
1.150246189
1.15000834
1.147494415
1.145783599
1.145113403
1.140370143
1.140180791
1.140556118
1.142321257
1.145138947
1.149897958
1.152503081
1.139901349
1.06108831
0.8291744202
0.4374152215
0.08732557665
0.2486691098
0.4788466153
0.7035551791
0.8913537161
1.021893793
1.097762508
1.137450156
1.148706784
1.149438403
1.147107964
1.145440287
1.144769203
1.139783972
1.139626595
1.140021996
1.14177366
1.144744605
1.149237264
1.150924837
1.135768576
1.052455074
0.8209308911
0.4384515647
0.09217259814
0.2448055155
0.4715308179
0.6939726257
0.8819645355
1.014655342
1.093025867
1.134983662
1.147289542
1.148304227
1.146317622
1.144745572
1.144072555
0.2547131583
0.05996212907
0.05116903518
0.5996104053
0.08402425399
0.06272281754
0.6223779201
0.1180125524
0.08801014718
0.5365933611
0.1493846392
0.1230841465
0.4677363804
0.06273042576
0.07906333018
0.183525998
0.1532850006
0.323014577
0.100374466
0.06460249043
0.1258081539
0.2478059998
0.1866180836
0.1068024543
0.07022898154
0.05308408032
0.1013609564
0.03050861298
0.02169525965
0.06541775138
0.1168811378
0.1235410757
0.4948227875
0.5644635604
0.3051711712
0.04788702886
0.04977639625
0.08930825229
0.1307039194
0.1185956853
0.5989816152
0.7239624794
0.587348251
0.6613788491
0.2325438872
0.271697775
0.07834459858
0.05834993008
0.1214698545
0.1583340755
0.1365729696
0.617615582
0.6458009276
0.714718944
0.5809226698
0.1388542551
0.1884238964
0.1271610237
0.1028021858
0.5789251413
0.5586358862
0.6363187457
0.5102892158
0.07579974064
0.1038554003
0.02560101299
0.1404301291
0.1346841601
0.5533400021
0.3749907615
0.5455114457
0.4184462975
0.02777646725
0.0466871435
0.26543866
0.1601923999
0.1143201675
0.08708325884
0.2511463552
0.03962161033
0.07741400803
0.04818045523
0.03179324063
0.05270878396
0.03360862089
0.04635861189
0.2773520358
0.3200976594
0.4890623367
0.2432937579
0.2168767911
0.2981548771
0.2483889457
0.05785398521
0.04767598774
0.07393624414
0.0675684053
0.07481792508
0.04746592318
0.06793651794
0.07246703923
0.1921574965
0.2270166425
0.6517082123
0.1721018043
0.1398696345
0.214202881
0.1748205104
0.09853767292
0.08001426013
0.1052004951
0.09749436116
0.1150727068
0.07544923802
0.09437799837
0.1006776803
0.1055017481
0.136813253
0.5702818506
0.1072901682
0.07828609199
0.1380773782
0.1089120491
0.1337721257
0.1279618643
0.04766431697
0.07387050621
0.5073121735
0.01732785195
0.05041118492
0.02956331784
0.07710009612
0.05203041106
0.01489513829
0.1456968743
0.1418083235
0.02898519675
0.004685541715
0.0274358463
0.4119077414
0.08487854742
0.01727689068
0.009285408542
0.0292216068
0.01760719735
0.08331683615
0.3532339217
0.2685455837
0.1304411951
0.1460714718
0.08679049696
0.04729104255
0.01594365736
0.009242660852
0.4395551765
0.326111118
0.2768976887
0.009807050483
0.1556867088
0.1949534615
0.1667070439
0.009848985105
0.08592243412
0.07544497347
0.09644544064
0.1610381089
0.149074205
0.2337175141
0.09755882369
0.1667611621
0.0435721293
0.01508166448
0.02635052926
0.02485886125
0.03190830692
0.05144734913
0.07323196357
0.05375250646
0.1380137755
0.1272400117
0.1356430687
0.1163096663
0.1260017999
0.1346689751
0.04194505877
0.0116210334
0.07695714416
0.02770274941
0.04818639838
0.03856473569
0.02213288125
0.03520151152
0.02643054374
0.01440188111
0.02466338795
0.02167984282
0.01108299313
0.01769908822
0.02337247285
0.05978249234
0.06067636621
0.06867426334
0.06727951837
0.02615979716
0.01167938131
0.1205490654
0.02211806918
0.04196548248
0.01058619047
0.01867856263
0.1159230916
0.09142633338
0.2817163537
0.2652376079
0.1069228704
0.09133618128
0.01034971674
0.04163558846
0.1955109219
0.1801721016
0.2168982449
0.2017577837
0.04202681857
0.05564793154
0.0439470469
0.1320254597
0.07327010467
0.07155909772
0.0408684731
0.0725250974
0.1508155808
0.04894503807
0.02768230032
0.01743964051
0.06197069626
0.03071886088
0.0542813497
0.02914093907
0.07687116257
0.03918177097
0.03888926369
0.2363801254
0.03009457309
0.235144681
0.2753552528
0.034551733
0.03964945402
0.03059537686
0.03393882261
0.2684211434
0.05570150913
0.05531179457
0.07174216783
0.07018365481
0.06555165854
0.07676140125
0.07177565436
0.0720956885
0.05738605663
0.05810333794
0.05312551991
0.06389663784
0.05947019267
0.05897931687
0.1560912822
0.1540153514
0.1957031212
0.1932464344
0.09344762568
0.01029207806
0.0917504424
0.09629038678
0.0942161307
0.122719867
0.1207433153
0.04489255948
0.06560731762
0.1318147903
0.05011239803
0.02824811852
0.06417537322
0.2383195371
0.222440111
0.2597194545
0.2436218134
0.0655658162
0.03791999195
0.04578106883
0.04476671797
0.06929049822
0.06836757736
0.006644933445
0.0511914226
0.1220383258
0.1121904104
0.1742059422
0.1625434522
0.02165731804
0.01121122702
0.03072830819
0.02030796449
0.02773741631
0.01017056861
0.01858481964
0.01069608653
0.02777436341
0.08084679869
0.01255741325
0.02739016631
0.003665387257
0.02665675423
0.01972168077
0.6177753567
0.3809975607
0.3545277403
0.2500622606
0.007909828141
0.005293866604
0.2069961761
0.4277747682
0.2794141935
0.006219092037
0.01694859268
0.01197127775
0.1232742439
0.1228938557
0.05555138484
0.2004457778
0.1671614156
0.09981214735
0.0111096535
0.01933609908
0.01512619043
0.009592773233
0.0146014391
0.01034892232
0.05136680478
0.02308090987
0.02171573468
0.05468030103
0.07372804631
0.02307142092
0.03154096784
0.01457170166
0.01437864658
0.06071660835
0.1562420904
0.3698187353
0.3528880661
0.3927433668
0.3755168118
0.160215925
0.3034113703
0.2869688806
0.09288350088
0.03061708403
0.09328131106
0.08747159474
0.009992591768
0.01645061149
0.1329891686
0.04446756729
0.02593585257
0.02328447698
0.03880278892
0.04552098024
0.04145409276
0.05159406661
0.04692425574
0.03987574515
0.05675786106
0.01531313291
0.01466285693
0.04964721865
0.2068214252
0.415927144
0.3984685852
0.05890405377
0.06110979084
0.1458628525
0.03346585365
0.03646053137
0.08461826926
0.1068702459
0.105083813
0.09711940022
0.08325106194
0.08456475894
0.07868265547
0.09421333573
0.08689213761
0.08463046411
0.1210953307
0.3252704428
0.3088102552
0.3473212291
0.3307803691
0.1232276318
0.1026394375
0.03460569745
0.03532451366
0.01986428857
0.02063570658
0.0831843515
0.1317111096
0.05436001453
0.05845907133
0.03563167936
0.03629498805
0.1138072535
0.1329904012
0.06866264742
0.09042868236
0.006754692713
0.02547306486
0.0480195857
0.03613447463
0.07368699956
0.01926242873
0.01972888918
0.01885038921
0.06159740674
0.01077373763
0.004412450249
0.121220982
0.1005092967
0.08546034449
0.0807409902
0.02701482808
0.02963970024
0.0424519308
0.08980493061
0.01706655073
0.01040646628
0.02767958412
0.03549530227
0.002912723242
0.02870995486
0.01857991594
0.01296214883
0.006586702685
0.01270862628
0.009982133112
0.009828632387
0.03993140856
0.03000563055
0.006646395595
0.03953969846
0.04163340883
0.01749799489
0.01159034226
0.00824329307
0.0119583578
0.01913351262
0.0122021155
0.01797500751
0.0628074942
0.01050286597
0.009472068012
0.01111741555
0.01559127333
0.05092622864
0.01092652861
0.009993418752
0.01583777589
0.01111646503
0.01022996562
0.02765047027
0.01826304547
0.03938083755
0.03097167187
0.01026286655
0.02433783625
0.02241166214
0.01949224744
0.03077756291
0.02376923866
0.01906779441
0.01716085702
0.01335699481
0.02004190258
0.01563406069
0.05409765307
0.05649519571
0.02136467711
0.02012583166
0.02145289942
0.02228707061
0.07208356007
0.01256761273
0.01304163149
0.01728039755
0.01280476867
0.01325939531
0.06226602813
0.01381107831
0.02094338886
0.01754660815
0.01543618109
0.02958011135
0.07652635434
0.07005128095
0.01414200891
0.05865516787
0.0507554894
0.06768500511
0.06132791804
0.01507054194
0.01359706058
0.05381772494
0.04391364769
0.1026246876
0.09540101715
0.03412281741
0.04421701011
0.1107438404
0.1046301621
0.04873937769
0.04752357361
0.07696607369
0.09978163778
0.1301358934
0.07379725303
0.09280418763
0.07833115906
0.06518947669
0.1682006109
0.1509916101
0.1471554406
0.173169428
0.06511272788
0.04421545682
0.05400775034
0.06768739027
0.03874716725
0.04385469715
0.03559929858
0.03387320869
0.04324137303
0.02474822166
0.02481201209
0.01984882821
0.03535118903
0.03245984283
0.02568675341
0.03565719875
0.03558522335
0.03753408143
0.03726023631
0.02808680843
0.1032550041
0.08849101386
0.1117680673
0.1064530911
0.02931420509
0.07797485384
0.07515118539
0.08431278503
0.07899740822
0.03641377733
0.1355826734
0.1288771292
0.1467914183
0.1380144878
0.03714806897
0.03192245207
0.1189606068
0.1136553905
0.1267732279
0.1208498927
0.03232837561
0.01639777121
0.01564115415
0.05646133201
0.0515769003
0.01641112437
0.0166523334
0.04172485844
0.04087406245
0.04407960539
0.04201714107
0.03934357303
0.03821777976
0.04059744313
0.03963080916
0.07094281943
0.06856108796
0.07428321322
0.07178858503
0.06217043159
0.04699161779
0.06755430073
0.06509443368
0.03736316926
0.03153399954
0.04845777052
0.04052909967
0.00987123166
0.0198053312
0.0184656272
0.02939302326
0.02066019092
0.03362953918
0.0342519301
0.1010579591
0.01982496416
0.01962298647
0.02047929931
0.02001173975
0.01898150844
0.08579996427
0.02120877288
0.03160232994
0.03842251392
0.05231702906
0.1295270663
0.03515518993
0.02262004714
0.03806866508
0.03505446427
0.02127080904
0.02072065646
0.02222444336
0.02150445016
0.1154819978
0.03652233411
0.03738535588
0.006995672827
0.04075513547
0.009521503134
0.01061992333
0.009526339248
0.0376666143
0.006876297703
0.02866996759
0.009845039028
0.01059223173
0.04734420615
0.04079010629
0.01867929691
0.01915856369
0.07265255824
0.06389984989
0.01782208408
0.01861233157
0.009620747513
0.02592928825
0.07788292163
0.06874451859
0.01125342472
0.01084643724
0.01627169006
0.01047528735
0.01120559672
0.02563900081
0.02859400266
0.007090389791
0.01353739354
0.01026139706
0.0120900027
0.01936849632
0.06084240786
0.1309852475
0.1720168573
0.00958670442
0.00957488278
0.19103155
0.2474288904
0.2061369233
0.006725079823
0.05383928838
0.01766004519
0.02645762782
0.1401320006
0.1457460224
0.1632602711
0.005352311552
0.008605552859
0.006277680533
0.00508841811
0.006451847902
0.005080576165
0.06553333526
0.04158901863
0.02541024338
0.02755383199
0.02413717607
0.02759362549
0.2492791582
0.4630225447
0.4452777688
0.4867285738
0.468943893
0.2548212538
0.06597998803
0.05716016948
0.01578955109
0.09563108156
0.1109297021
0.1370134575
0.1189530347
0.1126963021
0.0447144142
0.02910339976
0.03466235717
0.03420217512
0.4393803404
0.4217453692
0.2116310993
0.1648468917
0.06764602932
0.07203024192
0.07556241453
0.08804064625
0.1831112305
0.05543701542
0.1283593329
0.1211273632
0.01107711344
0.01156008047
0.01973397288
0.01841666488
0.01868772738
0.03036903369
0.0128591178
0.009791610384
0.01024699244
0.03856081385
0.07871674653
0.06849002704
0.01724997099
0.02899707389
0.01801319725
0.01816598076
0.01761161767
0.01380921537
0.01019898176
0.01378380752
0.01231945443
0.009891754546
0.03303204022
0.04197633395
0.0851430175
0.0418741745
0.04019942558
0.03667270553
0.02707082662
0.06562101385
0.02108160445
0.02973997235
0.010145516
0.007025762406
0.00707705996
0.01052567385
0.009975198047
0.02661755605
0.01678925322
0.01122201014
0.02056865625
0.02025485324
0.01878785762
0.02332137548
0.02851437449
0.02386745655
0.01278810794
0.01401802216
0.008334288595
0.009763500382
0.01336824013
0.0855537967
0.07870772818
0.03234242272
0.01019615606
0.01971178613
0.01764407782
0.01148627183
0.01927151843
0.01630414939
0.05293579802
0.03960065536
0.0452238128
0.07463829412
0.1099863818
0.1078462775
0.04274948399
0.07302400222
0.06839167841
0.1062829236
0.1033641631
0.07034706162
0.04051879086
0.04899417297
0.04047158408
0.03102426001
0.03299929429
0.02669266238
0.05262922612
0.05071679118
0.06076746002
0.02224741724
0.03281972795
0.03107959021
0.05336181541
0.05290812289
0.02981146531
0.02715432263
0.02670749431
0.02999725846
0.02923887519
0.03521695407
0.06129310727
0.0604715976
0.06629219259
0.06523295306
0.03872401099
0.03097944072
0.05492430797
0.05427953778
0.05963111472
0.05881230534
0.03337894598
0.06459551492
0.06681503108
0.162597983
0.1477928164
0.06176916696
0.06389685501
0.09643136802
0.1004364541
0.2035149898
0.02502358483
0.02488568254
0.02645080573
0.02622433761
0.01890917531
0.02459353738
0.02449825698
0.1856430821
0.09069681059
0.09494355717
0.01075151267
0.01090194116
0.01687702222
0.01602757985
0.01035674854
0.01082505066
0.01044279653
0.08626310226
0.03789449662
0.04637938183
0.1378117454
0.130774658
0.05871145137
0.06872867822
0.1463633534
0.1399246372
0.02971295742
0.02978492811
0.04615680129
0.04440908182
0.02932782325
0.02929565505
0.009690294916
0.0206007987
0.0325084775
0.03245953855
0.008034077784
0.01327406178
0.02807584974
0.0118513694
0.01209139558
0.0171766325
0.01741380609
0.0281809449
0.01039690636
0.007338776632
0.01029870056
0.01058109843
0.02629779416
0.01671348102
0.01728383536
0.01797773445
0.05035924548
0.04222737533
0.009745958281
0.009840227549
0.01160854557
0.01235637593
0.02189328932
0.006952882018
0.004649938587
0.008595018939
0.01448864417
0.00952697275
0.01066321091
0.009477764472
0.009799054584
0.01271962501
0.01136467056
0.007532086138
0.005505142039
0.01987555569
0.02051240039
0.01913052138
0.01939740506
0.02246701124
0.03368753202
0.03413829874
0.03308142136
0.03350053304
0.02227155876
0.0142865879
0.02577931918
0.02571564914
0.02661886849
0.02594196477
0.01399056453
0.02474780868
0.03750034853
0.04139815985
0.03450995879
0.0355427218
0.02402334957
0.01522938642
0.02572266188
0.02568551377
0.02566857507
0.02570595556
0.01495952532
0.01837237404
0.0188236034
0.0177734857
0.01855428829
0.03476347289
0.05421701175
0.05372037994
0.02010585191
0.03333975785
0.0330945323
0.03461679616
0.03368516237
0.02029221315
0.01000057662
0.009751207784
0.01030884444
0.009953675727
0.01869641383
0.01851895225
0.01908330653
0.01888381148
0.0146132957
0.0323065824
0.01925777976
0.02013815578
0.01943635044
0.03262638872
0.03240891002
0.03294673041
0.03276625693
0.01955850587
0.01993995247
0.01937209242
0.02919634751
0.02087284914
0.01495445232
0.006756878387
0.009807648188
0.01146967021
0.006612027813
0.03899480694
0.02673483002
0.003082702917
0.02700973086
0.04143134583
0.04104335693
0.01701776392
0.01028322667
0.007459873828
0.004477562161
0.01090052592
0.01101032502
0.01781278569
0.01795385788
0.02891383905
0.01801807755
0.008811082369
0.007757553703
0.01528892753
0.004066853452
0.009623612514
0.007410594323
0.005070871841
0.006348759883
0.009900984141
0.009324388966
0.009594775953
0.01153597168
0.01036992568
0.04161031178
0.03104789983
0.009144508806
0.01136681593
0.01288109551
0.01868536409
0.02108434744
0.01378025341
0.01704418677
0.01447072177
0.009699016681
0.006820931847
0.009808964251
0.01020466555
0.00679321559
0.009977271536
0.01001719163
0.0135423102
0.01062408375
0.01079787867
0.0101734027
0.009915735994
0.01214943065
0.01149078534
0.01081187642
0.01018940852
0.0107783262
0.01391938962
0.01268157967
0.02780787616
0.02200327152
0.02380098388
0.02745581794
0.03124023641
0.02953521758
0.0274111593
0.02894239165
0.01907771016
0.02995812692
0.0317650103
0.02191112529
0.03010288152
0.02025053014
0.02092856538
0.03246003573
0.03289069603
0.03175161762
0.03232421139
0.02068349875
0.02169972423
0.03810450151
0.03754170091
0.0127690452
0.01289788445
0.01478533799
0.01141289662
0.01180608999
0.01231880968
0.01319212143
0.01268313818
0.01670102335
0.03179708214
0.02845390655
0.03661097165
0.03481507395
0.01957832879
0.009639627705
0.0112926684
0.02088918312
0.007703007464
0.009584431029
0.009595868575
0.01470940794
0.00974232192
0.01002124845
0.02599159933
0.0230518417
0.01205417094
0.05052239612
0.0460153047
0.09320626525
0.08185874271
0.04501063251
0.06996080353
0.101990371
0.09696744967
0.0381528342
0.03451899301
0.03476655132
0.02375316198
0.02890784581
0.05100816169
0.05177865313
0.04301477239
0.03550136538
0.0440424495
0.04237013988
0.04578166317
0.04687026593
0.03358114592
0.0235775081
0.02506872311
0.03731437424
0.0267561512
0.02553151232
0.02836993619
0.02704641138
0.03457588071
0.0263119506
0.02690150011
0.02162457557
0.02802502237
0.04806560115
0.04829866073
0.02967404567
0.0292594479
0.05165524071
0.05164540206
0.02790678411
0.02747484206
0.02874976873
0.02828548129
0.06283497507
0.06202852465
0.03569544808
0.03793072843
0.06441931643
0.06362976887
0.0564732415
0.05577005561
0.0315098874
0.03279232392
0.05797711255
0.05722286661
0.01603111003
0.02569809761
0.02568505197
0.02573576186
0.02573573382
0.01592901224
0.01688058518
0.02373766833
0.02069770637
0.02551680365
0.02502458342
0.01675684372
0.04142632645
0.02369564553
0.02396918646
0.02328249641
0.02348320668
0.04115693828
0.04289009657
0.02490261316
0.02536612817
0.02423055818
0.02454302771
0.04236882126
0.03893012927
0.0220751001
0.02231581737
0.02171279564
0.0219428178
0.03868616152
0.0402917135
0.02289710026
0.02308307699
0.02247572737
0.02271212456
0.04000080862
0.02547994091
0.02529816841
0.07015725999
0.04527256417
0.04563558441
0.0444731143
0.04478351997
0.06927392937
0.0259472406
0.02573876649
0.0233794236
0.02464751363
0.059847284
0.04038789006
0.04005108617
0.02624160738
0.02763451248
0.05277343358
0.06700506467
0.04367733551
0.04389474398
0.04286935138
0.04280754354
0.06552828948
0.02415188545
0.024210357
0.01067441196
0.01112028695
0.01020725044
0.01502340922
0.01276210201
0.01937692887
0.01163290639
0.01145169258
0.01176019745
0.01171259211
0.01899958254
0.02625471207
0.01353559365
0.01597988666
0.0117346633
0.0112699936
0.02273362589
0.03358245498
0.05149428488
0.05117063401
0.05297530245
0.0525975349
0.03414618945
0.01978250238
0.01955092752
0.0203570081
0.02008148337
0.02012022444
0.01576559539
0.02229133647
0.04157501411
0.03688698166
0.04892695369
0.04709434442
0.03165736627
0.02443332136
0.0171657374
0.0219609343
0.02328372858
0.03735598913
0.02137285307
0.02165542534
0.02075135761
0.02143957094
0.03741754756
0.02110263155
0.02086823549
0.02195872078
0.02170265379
0.009809343914
0.01430669546
0.01349639806
0.01944935239
0.01612018836
0.009655565382
0.009531742432
0.009864805322
0.01240837226
0.01098565211
0.007240445094
0.01006668026
0.011455739
0.01115942153
0.01446173393
0.01263003839
0.009815135072
0.01811294482
0.01807994715
0.01833550785
0.01828344709
0.02783291716
0.02773385898
0.04245883119
0.01736312828
0.0183317191
0.01786065842
0.01792865031
0.0188888828
0.03184990465
0.03150902414
0.0322611348
0.03198901555
0.01896781998
0.01834791308
0.03083096189
0.0290964894
0.03137767604
0.03083518587
0.01833739966
0.009957766295
0.03942512141
0.03880992777
0.02580365372
0.01122600302
0.009819271728
0.01003642259
0.007224251648
0.01010874681
0.01081879312
0.01683712745
0.01076763394
0.01168797992
0.01125648427
0.0283033408
0.01751577233
0.01770911178
0.01015806533
0.01032309011
0.01031145512
0.01059568122
0.01078042382
0.007389185815
0.007345195918
0.01139089947
0.01026081171
0.01069111001
0.01424203973
0.01749310124
0.02642563227
1.154907285
1.155225303
1.155546113
1.155363473
1.155915558
1.155893676
1.156136636
1.156941762
1.156425121
1.157222243
1.140993528
1.157073176
1.110531796
1.029904478
1.157620444
1.019477522
1.009781174
1.157801645
1.015694764
1.070921225
1.15748551
1.093752206
1.157913014
1.156936987
1.157601314
1.15675048
1.156342027
1.156499794
1.155838628
1.155866502
1.154508019
1.155185084
1.155165099
1.155488979
1.15665601
1.156006597
1.157155114
1.007167487
1.157240428
0.949372631
0.8170259669
1.063327012
0.7864120193