/*--------------------------------*- C++ -*----------------------------------*\
| =========                 |                                                 |
| \\      /  F ield         | OpenFOAM: The Open Source CFD Toolbox           |
|  \\    /   O peration     | Version:  v1912                                 |
|   \\  /    A nd           | Website:  www.openfoam.com                      |
|    \\/     M anipulation  |                                                 |
\*---------------------------------------------------------------------------*/
FoamFile
{
    version     2.0;
    format      ascii;
    class       surfaceVectorField;
    location    "0.87";
    object      Uf;
}
// * * * * * * * * * * * * * * * * * * * * * * * * * * * * * * * * * * * * * //

dimensions      [0 1 -1 0 0 0 0];


internalField   nonuniform List<vector> 
25162
(
(99.99876208 0.005174189433 -1.912497123e-21)
(99.99515428 0.004652400844 5.669613701e-21)
(99.99810956 0.0124826033 -1.888176336e-21)
(99.99315867 0.01583611153 1.917261276e-21)
(99.99683596 0.02461129604 -3.765384052e-21)
(99.9886488 0.03365975671 1.137141693e-20)
(99.99853019 0.02809856886 1.163850448e-21)
(99.98066939 0.06232501471 -7.475661808e-21)
(99.99161569 0.06244494357 -1.25142826e-21)
(99.99763545 0.05111881439 1.811594947e-21)
(99.99922558 0.03062213584 8.95633841e-22)
(99.99021626 0.08540158599 1.800355848e-21)
(99.99775416 0.04856149455 8.798232291e-22)
(99.99834012 0.03809797804 -9.085450066e-22)
(99.99721664 0.06167689009 8.797872945e-22)
(99.98483709 0.1385941481 1.750919862e-21)
(99.99695619 0.0778915235 0)
(99.99678222 0.09573618149 -3.204742148e-21)
(99.98015095 0.211366358 -3.204725468e-21)
(99.99632909 0.1169672117 -8.301295784e-22)
(99.99582371 0.1414214877 2.792725793e-21)
(99.97421269 0.3090586939 3.044258444e-21)
(99.99535554 0.169029561 3.75103012e-22)
(99.9949836 0.1993629687 -2.473864144e-21)
(99.96979107 0.4300486086 3.540338841e-22)
(99.99476173 0.2316888718 -2.513655582e-21)
(99.99476436 0.2648613598 2.869520887e-22)
(99.96980244 0.5618544724 -1.671141922e-21)
(99.99506429 0.2971708352 2.247749115e-21)
(99.99569867 0.32668665 1.905309871e-21)
(99.97707075 0.6791461645 -8.384426999e-22)
(99.99666601 0.3512746592 0)
(99.99791667 0.3689117459 0)
(99.99137199 0.7495597522 1.765113861e-22)
(99.99940671 0.378163142 0)
(100.00096 0.3780832973 4.004961694e-22)
(100.0086043 0.7495388465 -8.735312459e-24)
(100.0023326 0.3688996758 8.93500972e-22)
(100.0034463 0.3519705951 -1.923176024e-22)
(100.0216679 0.6824181174 -5.672685591e-22)
(100.0042692 0.3287831902 -1.001755561e-21)
(100.0047823 0.3013216711 8.130760777e-23)
(100.0279493 0.5733929036 1.622061737e-21)
(100.0050053 0.2714406495 4.169491405e-22)
(100.0049721 0.2408048818 0)
(100.0280134 0.4515443387 0)
(100.0047571 0.2108515988 0)
(100.0045469 0.1824790206 6.982445446e-22)
(100.0241759 0.3389499758 1.447746697e-21)
(100.0046286 0.1566342627 -3.537857945e-21)
(100.00449 0.1317094188 -1.316565186e-21)
(100.0202595 0.2407833247 2.871140103e-21)
(100.0038702 0.1100568247 2.870925855e-21)
(100.0028945 0.09180071666 -8.091744089e-22)
(100.0121952 0.1661679049 -4.516723018e-23)
(100.0008126 0.07877300343 1.576705389e-21)
(100.0077247 0.07694883075 -7.050808369e-21)
(100.0438907 0.1887273337 4.022402895e-22)
(100.0156921 0.1693591845 -2.514639367e-21)
(100.0026239 0.07822622012 -1.471523357e-21)
(100.0054686 0.04474093647 -8.873024819e-22)
(100.0301212 0.1166558082 1.406386581e-20)
(100.0045558 0.02106945374 -7.128705941e-21)
(100.0222414 0.06239365735 -1.499601504e-20)
(100.0198558 0.0197206995 1.294935689e-21)
(99.98855375 0.01432259154 9.465311591e-21)
(99.981693 0.007521561006 2.355497029e-22)
(99.98215392 0.03487868395 1.511270768e-20)
(99.97388988 0.02615136959 -1.323987884e-20)
(99.97015491 0.06870677198 7.843921536e-21)
(99.95699067 0.05694735234 -2.053231934e-20)
(99.96400038 0.1102816733 -1.338223985e-21)
(99.92828072 0.1075555645 3.94932196e-20)
(99.93893484 0.1391935203 -8.694460616e-21)
(99.946486 0.1417170336 -1.864498887e-21)
(99.95914188 0.1407002133 3.668458315e-21)
(99.97495198 0.0998972155 1.824735882e-21)
(99.96044834 0.1667675147 1.780645286e-21)
(99.9475051 0.1822442797 1.812241408e-21)
(99.91186515 0.2405018725 -3.663751273e-21)
(99.9344008 0.2341797034 -2.042054413e-23)
(99.93896119 0.2697520958 1.751194647e-21)
(99.91894428 0.2981649953 -1.682225877e-23)
(99.8671801 0.389421242 0)
(99.91071435 0.349457595 0)
(99.88672845 0.4003711861 -2.176877657e-21)
(99.91622406 0.403610258 -4.279227364e-21)
(99.90533863 0.4253207275 -5.331020246e-23)
(99.87862791 0.4915672479 -9.623763946e-21)
(99.89765867 0.4654627549 -3.308696633e-21)
(99.87256581 0.62974139 3.121971807e-23)
(99.88992157 0.5944329918 -2.17018905e-21)
(99.8383818 0.7281834211 -1.1882035e-20)
(99.86600121 0.6847797194 -2.896084197e-21)
(99.84570346 0.8924402569 -5.406448186e-21)
(99.86995587 0.8349789041 -5.093469231e-21)
(99.80675636 1.029015777 5.185181813e-22)
(99.84252578 0.9599194231 -6.484639567e-21)
(99.83813259 1.191719912 -4.170523461e-23)
(99.86935977 1.103058653 -4.225210742e-21)
(99.80090827 1.368520984 -2.182317896e-21)
(99.84240043 1.264790302 -3.16968322e-21)
(99.86599597 1.476477856 -3.690889101e-21)
(99.9006588 1.34897011 -5.347744873e-21)
(99.84021786 1.685055338 -2.860679059e-21)
(99.88036649 1.540918206 -2.861006154e-21)
(99.93412917 1.67095617 -6.720477394e-22)
(99.96401599 1.504523258 -1.382506949e-21)
(99.92819532 1.88851036 -6.720000172e-22)
(99.95597906 1.709092193 -6.720362204e-22)
(100.0223785 1.712196316 1.488778152e-22)
(100.0333682 1.516291825 -2.628256894e-22)
(100.0361285 1.90988193 7.577229351e-24)
(100.0435394 1.709006178 -6.318442453e-22)
(100.0992855 1.594760255 -2.257021119e-22)
(100.0804063 1.388140759 -2.092396408e-22)
(100.1231906 1.752008704 -7.471095449e-23)
(100.1127145 1.548776878 1.838947942e-21)
(100.1419168 1.362188016 2.140324142e-21)
(100.1033676 1.169264352 3.726856864e-21)
(100.1678474 1.475267736 3.722617682e-21)
(100.1457065 1.293066227 4.769981731e-22)
(100.1495672 1.085326522 -6.03183471e-21)
(100.1036593 0.9216326298 -5.633228062e-21)
(100.172269 1.161271533 -2.03389647e-21)
(100.1461382 1.011831591 -1.998717153e-21)
(100.1323407 0.8223706423 -4.803743733e-21)
(100.0866242 0.693133851 4.411045413e-22)
(100.1469065 0.8694721209 -1.28832388e-21)
(100.125075 0.75783404 5.250609957e-21)
(100.0816178 0.476853633 -1.220406312e-20)
(100.1302722 0.6496891827 -1.220311489e-20)
(100.1827607 0.7029259654 1.234766457e-20)
(100.1126747 0.5414431366 -2.502163281e-20)
(100.0954335 0.4483681528 1.068006458e-20)
(100.1325813 0.4784495089 -1.533806036e-20)
(100.0780557 0.3691339564 2.190710252e-20)
(100.0584584 0.3263302704 2.434052263e-20)
(100.0730824 0.2241591462 2.089965265e-20)
(100.1658406 0.3525554526 -1.884137472e-22)
(100.1268703 0.3957967713 4.378846224e-20)
(100.0747633 0.3121604585 2.382048031e-21)
(100.0527927 0.1310204586 -7.059067628e-22)
(100.1175163 0.2168001299 3.000675359e-20)
(100.0425011 0.06031458469 -6.981345835e-21)
(100.088901 0.1160604996 -1.591044242e-20)
(100.0767474 0.03660187266 7.126987488e-21)
(99.96938685 0.01827494788 -2.272376195e-20)
(99.96444013 0.007021075942 -1.135706933e-20)
(99.95180578 0.04594915518 -4.91986905e-20)
(99.94782688 0.02595915003 1.064059312e-20)
(99.9196816 0.09321310658 1.022698629e-20)
(99.91262992 0.06121262125 -4.164733591e-20)
(99.88583985 0.163951397 2.514707359e-20)
(99.8549773 0.1217873215 4.527569522e-20)
(99.84717269 0.1792896107 -3.974807807e-20)
(99.90254048 0.1760741734 -7.452992466e-21)
(99.84963483 0.1989239528 -5.532797618e-20)
(99.86290201 0.2205453486 -3.73659699e-21)
(99.84609738 0.3028217548 -7.304486041e-21)
(99.82802675 0.2912816946 -3.641516525e-21)
(99.76484755 0.3502487021 2.553447746e-20)
(99.78723489 0.3783009662 7.193256336e-21)
(99.76933866 0.4956054305 -6.325293539e-21)
(99.73980471 0.4850976645 4.654400617e-21)
(99.64738119 0.5827367446 -3.600091801e-20)
(99.71105125 0.5941433909 2.51676802e-21)
(99.66416157 0.6369039691 -1.565207793e-20)
(99.69604813 0.7423701295 -6.468651102e-21)
(99.67256852 0.7399266335 0)
(99.61666666 0.8157588883 6.689679034e-21)
(99.64524201 0.8247748709 -6.446609543e-21)
(99.5940053 1.120457115 3.152508042e-21)
(99.55873902 1.126347639 1.235966817e-20)
(99.4862272 1.240100612 6.125566338e-21)
(99.53050904 1.241570854 1.535668345e-20)
(99.50699762 1.613120444 1.41000504e-21)
(99.45567721 1.637009932 2.902821154e-21)
(99.37192018 1.799665892 7.165964439e-21)
(99.43706545 1.781497278 1.410282763e-21)
(99.48279534 2.188659945 -1.901568833e-22)
(99.41482287 2.247187825 1.75092402e-21)
(99.3374843 2.460574739 8.906020288e-21)
(99.42325124 2.402922543 -4.595613511e-21)
(99.58251602 2.736686528 0)
(99.5073127 2.848838166 0)
(99.46197552 3.100435906 8.646588334e-22)
(99.55564355 2.978298835 0)
(99.81514052 3.100352591 -1.1906147e-20)
(99.75435456 3.278310533 2.356885255e-21)
(99.76199535 3.533057231 -1.392739638e-20)
(99.83409134 3.33573894 -7.153889872e-21)
(100.1074756 3.142388891 -5.680078833e-22)
(100.085098 3.371069993 -2.551239495e-22)
(100.1431254 3.581586498 3.174155618e-22)
(100.164818 3.333407146 2.302317665e-21)
(100.3433898 2.862647872 2.778383659e-21)
(100.3659616 3.104837788 2.413645445e-21)
(100.4469737 3.247651714 6.155420916e-21)
(100.4167415 2.994287157 -1.890649483e-21)
(100.4615936 2.386966652 2.587939173e-21)
(100.5158749 2.609667724 -1.38847974e-21)
(100.5946464 2.691613889 1.710896147e-21)
(100.5314623 2.467366218 5.556839526e-21)
(100.4661005 1.852189012 -5.61390455e-21)
(100.5337537 2.036918882 -1.305810704e-20)
(100.5981975 2.077530712 -4.55178439e-21)
(100.5229823 1.895680216 5.072001415e-21)
(100.4702583 1.504051044 -1.60064492e-20)
(100.405752 1.362697171 -1.079392354e-20)
(100.5181469 1.518371444 -1.080847958e-20)
(100.4508752 1.383718374 5.764667431e-21)
(100.3227558 0.9140920723 -4.822900848e-20)
(100.4308122 1.116075715 -2.527652322e-20)
(100.5022658 1.105768842 -7.315450811e-20)
(100.3748077 0.9249733242 -3.439380502e-20)
(100.2372307 0.6184938019 -5.543167247e-20)
(100.3215509 0.7604577505 2.199816548e-20)
(100.3686298 0.741161523 -2.630903013e-20)
(100.2718497 0.6205566539 -2.301508178e-20)
(100.2037483 0.3418269413 9.364517381e-21)
(100.3506763 0.4687694139 -2.381910347e-20)
(100.3275473 0.5669310082 -1.552945903e-22)
(100.2445382 0.5106678817 -1.362710916e-20)
(100.1488522 0.1988363535 1.405295641e-20)
(100.252045 0.2854336335 2.502129347e-20)
(100.1191808 0.09109136279 -1.790753446e-21)
(100.1905528 0.1519239155 -3.617262276e-21)
(100.1626546 0.04763290126 0)
(99.94722664 0.01389913921 2.281533625e-20)
(99.95134582 0.001917103651 -3.806172174e-21)
(99.91402937 0.03937507337 1.918476375e-20)
(99.92383394 0.01128202547 2.6645428e-20)
(99.85437417 0.08910166293 -7.629178353e-21)
(99.86581148 0.03975468782 -3.774288915e-21)
(99.77755835 0.1809350314 0)
(99.77101466 0.09529609457 5.814270963e-21)
(99.73300037 0.1761041673 1.767592575e-20)
(99.78890382 0.2098913813 -5.167905012e-20)
(99.72297723 0.2067504199 1.328945786e-20)
(99.72682324 0.2511117059 0)
(99.67086786 0.3796271981 2.381671143e-22)
(99.65887446 0.3396389073 -2.936017296e-20)
(99.5670836 0.3884637485 -2.934042155e-20)
(99.57777689 0.4506568152 5.951742829e-20)
(99.50516615 0.6452298733 -8.847189789e-20)
(99.48230565 0.5885842962 3.211582888e-20)
(99.34755817 0.6756028512 -5.91579427e-20)
(99.40364461 0.7528046832 -2.946242667e-20)
(99.339503 0.7650727484 -4.835347983e-20)
(99.32714834 0.9912702028 6.974115977e-21)
(99.30303242 0.9570060482 1.386114323e-20)
(99.21518061 1.031961117 3.503568686e-20)
(99.24140597 1.07671787 6.916129577e-21)
(99.08347591 1.547451816 -1.514886978e-20)
(99.04130908 1.50884359 1.875536176e-23)
(98.92371469 1.628116509 -1.508293459e-23)
(98.9724042 1.679769868 -7.011973114e-21)
(98.85306234 2.311263182 -2.395670209e-20)
(98.7804718 2.277968626 1.256860959e-20)
(98.64365083 2.456059218 -7.705452558e-22)
(98.7300175 2.502660051 2.405123228e-20)
(98.75915632 3.255265032 2.494174326e-20)
(98.64512678 3.25181087 0)
(98.50883267 3.512211874 -2.194088086e-20)
(98.64840412 3.520939163 0)
(98.95285609 4.257704392 1.464120065e-20)
(98.79987454 4.331306509 7.566617078e-22)
(98.72110434 4.670973312 -1.52214637e-20)
(98.90598026 4.581110791 2.257194364e-22)
(99.53364653 4.970471397 -3.773962565e-21)
(99.38780111 5.164589527 1.324165284e-20)
(99.42851772 5.513387527 9.791446656e-22)
(99.59029977 5.279264222 5.900619957e-21)
(100.2986411 5.037864967 4.175944163e-22)
(100.2302947 5.331577627 -8.470246799e-22)
(100.3742987 5.585435808 -2.581659325e-22)
(100.4295322 5.252860972 4.175370611e-22)
(100.8788692 4.476638422 7.979888255e-21)
(100.9082702 4.791782448 -3.758136246e-21)
(101.0752519 4.916767737 1.184386356e-20)
(101.0198135 4.58349164 -4.695106107e-21)
(101.1209929 3.608055769 -6.758354057e-21)
(101.2121866 3.882642822 -9.088649647e-21)
(101.3487048 3.91480726 -1.840551927e-20)
(101.2349008 3.640067649 6.795169357e-24)
(101.1023987 2.719900311 3.106737445e-21)
(101.2136079 2.933683539 4.308146993e-20)
(101.3092193 2.913644447 6.440153307e-21)
(101.1838517 2.711138908 1.541619071e-19)
(101.051258 2.103895685 0)
(100.9438679 1.94577814 4.30538547e-20)
(101.1141787 2.071674437 0)
(100.9986412 1.922783528 0)
(100.7196295 1.27088769 2.675002411e-20)
(100.9000249 1.48942789 1.721261646e-20)
(100.9719706 1.402021838 -1.539106205e-20)
(100.7778189 1.220351203 3.358638793e-20)
(100.5272345 0.8420995362 -3.069701043e-20)
(100.6653585 0.9917323437 -1.370568212e-20)
(100.7085647 0.9178666685 -1.383733771e-20)
(100.5641984 0.7984602306 -6.675730354e-21)
(100.3872119 0.4095439771 -8.510514404e-21)
(100.5817251 0.5152325463 -1.794210103e-20)
(100.603281 0.6689446136 -2.378881151e-21)
(100.4947636 0.641457722 5.04147157e-21)
(100.283405 0.2359001701 7.205360829e-21)
(100.4157581 0.3093613379 1.096039828e-20)
(100.2254074 0.1071270648 -1.826185682e-21)
(100.3120023 0.1618900766 -3.226789823e-21)
(100.2636842 0.0502371458 -4.645640631e-22)
(99.93261142 -0.0009971726041 0)
(99.95230204 -0.008415277109 0)
(99.88146534 0.01048327652 3.844233733e-21)
(99.91306101 -0.01991204275 0)
(99.78952619 0.04746727272 9.746799864e-21)
(99.83102698 -0.01165904451 -3.27311021e-21)
(99.66087913 0.1448630942 1.641135998e-20)
(99.69401194 0.02343550149 2.147435525e-20)
(99.61872574 0.1139429469 -6.452927233e-21)
(99.65852286 0.1884562684 2.287629071e-20)
(99.59121014 0.1541172991 1.853790816e-21)
(99.5748741 0.216710252 -9.303022543e-21)
(99.45793144 0.3742615608 0)
(99.46401082 0.3089747294 -1.917683404e-20)
(99.34762886 0.3349266298 -1.573098646e-20)
(99.33131911 0.4268039541 3.909605053e-21)
(99.17642701 0.6697916452 0)
(99.17462664 0.5770101811 3.909186478e-21)
(98.99982857 0.6272928794 -4.030773506e-21)
(99.02148309 0.7719054593 1.952047533e-20)
(98.95031351 0.7589514859 5.035745022e-21)
(98.8448643 1.08135428 2.244681744e-19)
(98.83315011 1.013072737 0)
(98.71143316 1.072245974 0)
(98.72226051 1.15489597 1.120765455e-19)
(98.3784718 1.779222359 -2.38664832e-21)
(98.34670203 1.686659449 5.678118962e-20)
(98.18162697 1.786521376 -2.003841062e-19)
(98.21527777 1.901246918 5.808329222e-20)
(97.89399009 2.78596213 7.651998337e-22)
(97.81910025 2.675695842 -1.41585935e-20)
(97.60256925 2.851442566 3.533494016e-22)
(97.6904253 2.989061607 -1.362331694e-20)
(97.53957776 4.225315984 2.098964796e-20)
(97.38153738 4.119213531 1.347899305e-20)
(97.13154402 4.427779575 2.783300533e-20)
(97.32995932 4.558057909 2.088733182e-20)
(97.75041825 6.009544662 0)
(97.47144669 5.998884033 -1.251344626e-20)
(97.30117446 6.48854245 0)
(97.65294609 6.482454357 8.543383291e-21)
(98.97836734 7.439741181 0)
(98.66069437 7.670136876 -6.641003835e-21)
(98.7638142 8.220371851 -5.310619869e-21)
(99.12153177 7.9033878 0)
(100.7257308 7.507382212 6.489936491e-21)
(100.5799417 7.946470194 3.973595848e-21)
(100.9073918 8.271481306 2.714920327e-20)
(101.0127542 7.756543121 -6.197294757e-21)
(101.8937406 6.345747714 -1.700151152e-20)
(101.9586187 6.790295162 -3.245518486e-20)
(102.2689555 6.854314751 -6.723957522e-20)
(102.1482826 6.393989329 2.839833956e-20)
(102.2359235 4.802229034 2.526077683e-19)
(102.4038181 5.148789041 8.580760544e-20)
(102.6170655 5.083391113 2.462647111e-19)
(102.4072921 4.74933566 2.002407333e-20)
(102.0672255 3.433238267 -2.536840268e-20)
(102.2515308 3.672240061 -4.988711166e-20)
(102.3661774 3.575174128 -2.602704462e-21)
(102.1642547 3.354619095 2.659519737e-20)
(101.8641252 2.52901838 -1.341687584e-20)
(101.704969 2.368155757 -3.497553077e-21)
(101.9262504 2.434858589 9.872569605e-21)
(101.7586522 2.293042164 2.05385873e-20)
(101.2550711 1.49234841 -8.664798574e-20)
(101.5175392 1.707078904 -5.488607572e-20)
(101.5652012 1.534985164 -3.080401422e-20)
(101.2997764 1.37671908 -1.576971281e-20)
(100.9083168 0.963401257 1.066877225e-20)
(101.1039052 1.10185489 3.215098677e-20)
(101.1223828 0.9748520965 -3.61749896e-21)
(100.9321475 0.8738178798 -3.5261774e-21)
(100.5987635 0.4152823981 1.86512498e-21)
(100.8335021 0.4735969122 0)
(100.9221176 0.6792099187 -9.802317228e-23)
(100.8017178 0.6858810866 -9.61627393e-21)
(100.4342195 0.2330415779 4.128313343e-22)
(100.587615 0.2780037913 1.864956832e-21)
(100.3414563 0.1039582088 -1.869904724e-21)
(100.4337557 0.1402173794 -1.8722686e-21)
(100.3617364 0.0427191496 -1.88192757e-21)
(99.93718815 -0.02717983125 0)
(99.97795865 -0.0239491616 1.883882088e-21)
(99.86818475 -0.04240381205 -7.701642005e-21)
(99.92749027 -0.06741319574 -1.897873316e-21)
(99.74344713 -0.0343373335 7.965508482e-21)
(99.82355713 -0.09338256688 -3.830718566e-21)
(99.55742623 0.03849266963 1.044600321e-20)
(99.64829151 -0.09493044798 2.818131254e-21)
(99.52410936 -0.009441087895 4.785030042e-24)
(99.53560719 0.102269347 -7.748171023e-21)
(99.47294036 0.03455501473 -7.820897699e-21)
(99.43248667 0.1051278516 0)
(99.24138029 0.2691673291 -1.573059812e-20)
(99.27608911 0.1850310731 0)
(99.14394582 0.1773190961 -9.41405406e-23)
(99.08749 0.2891648267 -6.453080482e-23)
(98.82288658 0.547087189 8.109953636e-21)
(98.8610515 0.4250979393 1.216797705e-20)
(98.65657576 0.4289993832 1.63906602e-20)
(98.62415279 0.6263171789 1.841730807e-20)
(98.55699539 0.5791213884 -2.368677864e-20)
(98.30996096 0.9619856668 -7.78751115e-21)
(98.32763048 0.8663021603 -2.349822849e-20)
(98.17882786 0.894947395 -3.22108634e-20)
(98.15373627 1.006649982 0)
(97.56732098 1.670627036 3.170261964e-20)
(97.57077844 1.531414175 1.602661727e-20)
(97.36275433 1.585756542 -8.37132049e-21)
(97.35011506 1.75099227 -6.607030203e-20)
(96.62351913 2.82434145 5.221540845e-20)
(96.58877204 2.613473163 -6.670125867e-20)
(96.27154705 2.735098032 -2.759523246e-20)
(96.31023061 2.989534059 -7.061313942e-21)
(95.61247569 4.795562048 4.630718485e-20)
(95.45602803 4.505036634 -1.034734083e-19)
(95.00970322 4.788732035 1.306380164e-20)
(95.20401983 5.159309283 -2.361623752e-19)
(95.34280546 7.965378822 -1.121625734e-20)
(94.87220928 7.700989396 0)
(94.3960114 8.41572315 0)
(95.04488333 8.72015568 1.258751447e-20)
(97.77014495 11.26733346 -5.331524394e-21)
(97.01934966 11.56066122 3.196200597e-21)
(97.25112333 12.64613683 8.284185655e-21)
(98.13060001 12.11956715 -1.067879205e-20)
(101.862766 11.10497952 -4.941598127e-20)
(101.6123239 11.90785865 -3.00568973e-20)
(102.4088232 12.28602145 -4.648285859e-20)
(102.5066547 11.33917261 1.695323004e-20)
(103.8802183 8.428519384 -1.807834942e-19)
(104.0837348 9.085434619 3.4650873e-20)
(104.6325318 8.952047699 -1.974386134e-20)
(104.3053518 8.308777472 -2.816023496e-19)
(104.0240409 5.80962741 0)
(104.3431814 6.219584075 0)
(104.5923176 5.985904762 0)
(104.2258878 5.618624041 -3.223887373e-20)
(103.4078237 3.861578442 -2.914608361e-20)
(103.6992445 4.105179623 1.146936875e-20)
(103.8003078 3.895617881 3.979336098e-20)
(103.4955888 3.689192895 3.82637393e-20)
(102.8828869 2.662221339 -3.114491539e-20)
(102.6537056 2.519622623 -1.481132961e-20)
(102.9179505 2.501995598 -6.176857275e-20)
(102.6891881 2.382485568 -6.035985358e-20)
(101.8929814 1.520718062 2.517438286e-20)
(102.2321118 1.691931973 -2.144295826e-22)
(102.224762 1.441047551 1.534033735e-20)
(101.8957443 1.338338235 1.141534194e-20)
(101.3401798 0.9468718851 -1.503216979e-20)
(101.5920196 1.049310796 -7.668862851e-21)
(101.56022 0.8754149138 -7.670348585e-21)
(101.3296386 0.8153489774 1.169323032e-20)
(100.809576 0.3416984537 0)
(101.073643 0.3366240644 1.243213298e-21)
(101.2370699 0.5637870135 -1.033265073e-20)
(101.1241779 0.6288753483 2.560599246e-20)
(100.5761388 0.1833393025 -4.719539829e-22)
(100.7369252 0.1840363151 -1.469847951e-21)
(100.4452976 0.07883847258 -1.892421056e-21)
(100.5322958 0.08412119022 -2.145111401e-21)
(100.4360897 0.02440754894 2.422994587e-21)
(99.9721506 -0.06364497752 -1.339111053e-23)
(100.0380066 -0.04399968935 6.111068731e-23)
(99.88760633 -0.1174977603 1.970143592e-21)
(99.97834048 -0.1288467155 -7.338866655e-23)
(99.73447204 -0.1526604184 -1.031830295e-20)
(99.85684991 -0.2009028153 1.549607421e-21)
(99.49150952 -0.1200891601 -9.347128176e-21)
(99.65071579 -0.2542012799 -1.56916979e-20)
(99.47856356 -0.18982343 -1.336360874e-20)
(99.44064376 -0.05077237286 -7.363812067e-21)
(99.40225155 -0.1496663063 -2.91135493e-21)
(99.32889275 -0.07925049002 3.222350372e-23)
(99.06096842 0.0605950441 1.186346335e-20)
(99.13198129 -0.03124664429 1.205680492e-20)
(98.9970702 -0.07905666368 5.95008406e-21)
(98.89373004 0.03659377738 2.050719408e-20)
(98.51124635 0.2727647352 1.732719019e-20)
(98.60404467 0.1306487773 2.151217134e-20)
(98.39228281 0.08031169712 1.377253753e-20)
(98.27800213 0.2944360085 -3.445351921e-20)
(98.22784202 0.2225814238 5.243361878e-20)
(97.82144509 0.6027522469 8.188110255e-21)
(97.87888563 0.4919352328 8.146551755e-21)
(97.72103458 0.4766993358 -8.419223979e-21)
(97.65236123 0.5997919754 1.682958196e-20)
(96.78914105 1.178005986 7.11666095e-20)
(96.85669971 1.008425886 3.569265655e-20)
(96.62350275 0.9927822681 -1.794501036e-20)
(96.53112865 1.187058684 1.771670595e-20)
(95.25120368 2.188175242 3.979299861e-20)
(95.32649869 1.909905607 3.93530138e-20)
(94.94887922 1.905635224 3.507336513e-22)
(94.83686825 2.234803303 3.035086523e-20)
(93.00606331 4.137598081 -3.50653942e-20)
(93.03084487 3.631676215 -4.105695454e-20)
(92.36514313 3.66806613 -8.100185236e-20)
(92.2953573 4.319202451 4.850231172e-20)
(90.16960716 8.891303628 4.381402184e-19)
(89.70346564 7.826528449 7.377229545e-19)
(88.04880099 8.675638631 -6.870774183e-19)
(88.3601078 8.080231487 1.014293481e-19)
(89.23845407 10.04409501 4.829303784e-19)
(88.4479673 9.946883426 5.510771437e-20)
(92.37568671 18.86469495 -1.769174741e-21)
(93.55323312 18.7310308 -4.388583112e-21)
(92.5301305 20.43065407 5.902286317e-21)
(94.04579823 19.98753611 2.999103882e-20)
(105.4049372 18.09491384 3.96678291e-19)
(105.676005 16.64919802 3.40561763e-19)
(107.1456506 16.4661529 2.129421739e-19)
(106.0560944 18.93361926 -5.387781888e-19)
(107.9089864 18.00193347 9.81492711e-20)
(107.5021089 18.63198649 3.854032218e-19)
(108.2922121 11.08450412 6.32212509e-21)
(107.6482981 10.21893786 5.69983358e-22)
(108.9454763 10.42013809 1.471945532e-19)
(108.1514484 9.711879808 4.417507469e-20)
(106.6008062 6.165827811 9.334872784e-22)
(107.1706964 6.559260883 -3.871224317e-20)
(107.35894 6.061992074 -8.185167637e-20)
(106.7611164 5.764688056 -3.869379435e-20)
(105.0837869 3.743243094 3.835213212e-20)
(105.5068487 3.930234686 1.364642503e-20)
(105.5257612 3.594681674 2.314311282e-20)
(105.1071839 3.46267307 5.248875911e-20)
(104.0189112 2.368639128 -1.734476354e-20)
(103.7174058 2.281766782 -3.835529797e-20)
(103.9863841 2.147296494 -4.43253731e-20)
(103.6957072 2.08259641 6.968192084e-22)
(102.5462039 1.290654374 4.036051767e-21)
(102.9523858 1.368347495 0)
(102.842442 1.066391752 -2.345250441e-21)
(102.4786031 1.05373692 -4.224871101e-21)
(101.7691172 0.7564441219 4.206401371e-21)
(102.0644793 0.7991374363 -1.533864225e-23)
(101.9652851 0.5937035374 -6.828237314e-21)
(101.7050728 0.5910369748 8.513356718e-21)
(100.9830627 0.1845524718 -1.752786717e-22)
(101.2436796 0.1056147385 -2.758949473e-22)
(101.5113552 0.3181734843 7.786562925e-22)
(101.4163014 0.4117475262 6.211681167e-21)
(100.6816738 0.08462894861 -3.149919622e-21)
(100.831078 0.0288118187 -2.276967972e-22)
(100.5143251 0.03048777283 2.348496989e-21)
(100.5833154 -0.004597991352 -2.110863454e-21)
(100.4648344 -0.004199758575 3.932331928e-22)
(100.0471268 -0.1083683908 1.4074919e-23)
(100.1402347 -0.06729750385 -2.793401867e-21)
(99.95115182 -0.2102013252 -5.091944358e-22)
(100.0744194 -0.2002246846 1.214390084e-21)
(99.77756371 -0.3003643266 -4.010584475e-21)
(99.94195693 -0.3265215506 -2.641119748e-21)
(99.48873082 -0.3268568608 8.2172122e-21)
(99.7165877 -0.441733861 -9.077289738e-22)
(99.50228658 -0.4133693622 8.633687003e-22)
(99.40457442 -0.2626418104 4.021155257e-21)
(99.40266235 -0.3836122365 8.351687305e-21)
(99.29603109 -0.3247379277 5.895630245e-21)
(98.95731382 -0.2371958766 -2.005309125e-21)
(99.06866169 -0.3228781028 3.10710512e-21)
(98.94445374 -0.4100719092 2.05154825e-21)
(98.79336572 -0.3091093015 6.219309318e-21)
(98.30732549 -0.1418820162 -3.585128202e-20)
(98.45867679 -0.2792285951 -3.426975935e-20)
(98.26161756 -0.38597318 -4.042981244e-20)
(98.06420275 -0.1810142562 -4.656078818e-20)
(98.04376551 -0.2784862608 -3.54739132e-20)
(97.49952896 0.02543656957 1.710820684e-20)
(97.59783881 -0.0794077094 1.697406411e-20)
(97.45532409 -0.1423216988 -1.72712997e-22)
(97.34134679 -0.03132896463 1.710495727e-20)
(96.25090404 0.3172607953 -9.773104263e-21)
(96.39386028 0.1559276474 -9.66783338e-21)
(96.17545585 0.06539429586 -2.827371935e-20)
(95.99791129 0.2377139677 6.067200845e-23)
(94.28693919 0.8103651679 2.708365769e-20)
(94.50713847 0.5489779446 1.105691256e-20)
(94.16928268 0.3997600462 -5.008828308e-21)
(93.88515529 0.6751182835 -2.227073558e-20)
(91.07022907 1.567607577 2.263004062e-20)
(91.45940614 1.098903772 -2.549383887e-20)
(90.94737246 0.7707427194 -5.131374094e-20)
(90.38441797 1.231308288 1.595081767e-20)
(84.7125627 2.38986328 7.919954443e-21)
(85.3096597 1.814913132 1.376590178e-19)
(84.79030483 1.200559615 -6.199235394e-20)
(83.94624809 1.748796452 -1.378834129e-19)
(119.7879946 22.87720938 0)
(118.2795654 21.73036107 0)
(120.616882 21.2172039 -4.948742236e-20)
(119.0955188 20.42865292 3.928041629e-20)
(114.9439841 10.20845988 4.774160088e-20)
(113.5225677 9.661846279 -5.844697242e-20)
(115.051369 8.817699668 6.492878927e-20)
(113.6904054 8.594996856 8.075873274e-20)
(109.6751996 5.112360154 -1.236616952e-20)
(110.5122667 5.280805227 -2.122373556e-20)
(110.4002084 4.559951623 1.782256328e-21)
(109.6166073 4.519570682 0)
(106.8035649 2.816540636 1.803277965e-20)
(107.3361628 2.860688374 4.465671854e-21)
(107.1868027 2.44319043 4.982801122e-20)
(106.6954034 2.458580835 6.461220571e-22)
(105.073142 1.552570104 1.714753284e-20)
(104.7214549 1.554469067 2.204970939e-20)
(104.9418105 1.296669922 1.278295426e-20)
(104.6179303 1.321481593 2.46340848e-20)
(103.0976377 0.7719196972 -4.583429771e-21)
(103.5435089 0.7292803464 2.237300672e-22)
(103.2991438 0.4160679903 7.331353587e-21)
(102.9383334 0.5151566354 1.090568513e-21)
(102.1242558 0.3893541908 -1.850452478e-21)
(102.431112 0.3498265138 1.285591232e-20)
(102.2487299 0.1476067472 4.733399469e-21)
(101.9942463 0.2176700097 9.392650204e-21)
(101.0795099 -0.04628888619 -3.192681811e-22)
(101.3123247 -0.2041314864 -9.966346525e-22)
(101.6780239 -0.04316591013 -1.012474948e-21)
(101.6287806 0.09652402016 -1.14419242e-21)
(100.7231612 -0.05859422428 1.011009364e-21)
(100.8425907 -0.1752188109 1.242492474e-21)
(100.5261812 -0.03802898304 -4.025803481e-21)
(100.5638695 -0.1192494135 1.557428843e-21)
(100.428947 -0.04121524106 -1.990638064e-21)
(100.1691182 -0.1581923626 -1.59305132e-21)
(100.289459 -0.09217723326 8.82504399e-22)
(100.0670848 -0.3137476545 -9.269603773e-22)
(100.2211775 -0.2764103626 -6.575572211e-22)
(99.88318757 -0.4657250977 4.746142081e-22)
(100.0853523 -0.4606347565 -2.340053791e-22)
(99.56392792 -0.563424453 5.273424633e-22)
(99.85420414 -0.642680409 7.980048143e-22)
(99.60759368 -0.659693112 4.724611561e-22)
(99.44678875 -0.5140454179 1.385960778e-21)
(99.4888597 -0.6467052582 -1.269104782e-23)
(99.35225909 -0.6079396842 -1.269285288e-23)
(98.96098543 -0.5933690759 -2.048328477e-21)
(99.10953726 -0.6605411545 0)
(99.00781091 -0.7824430295 -1.006232952e-21)
(98.81622575 -0.7100594524 -1.063422584e-21)
(98.25836891 -0.6443566181 1.341531735e-21)
(98.46160344 -0.755331778 4.319943537e-21)
(98.29852227 -0.90921737 7.525777497e-21)
(98.0324307 -0.7433181745 3.589335322e-21)
(98.04659756 -0.8520629533 3.589267816e-21)
(97.41631624 -0.6752777143 -4.312588162e-21)
(97.54720385 -0.757146106 -1.709257734e-20)
(97.43395935 -0.8566296938 1.74651947e-20)
(97.28505209 -0.7756265004 1.353313127e-20)
(96.10326147 -0.7201676642 2.340080442e-21)
(96.30213832 -0.8388490017 -4.16365612e-20)
(96.1279331 -0.9798629567 -3.268622785e-20)
(95.89701533 -0.8645045049 -1.699965587e-20)
(94.11981848 -0.8215952711 2.702561536e-21)
(94.42331707 -0.985759481 -5.579866959e-21)
(94.18514428 -1.199268768 -6.927717346e-21)
(93.83725941 -1.054830675 1.231932714e-22)
(91.2821684 -1.284410538 6.489238179e-21)
(91.76973933 -1.459004231 1.25836872e-22)
(91.51641741 -1.810174892 -3.797760079e-20)
(90.98997958 -1.707040288 2.084327544e-20)
(88.11822922 -3.191410019 9.24406218e-23)
(88.50436329 -3.111611486 -4.185831673e-20)
(88.53265546 -3.396832834 -2.821010388e-20)
(88.21358174 -3.548129362 2.452213292e-22)
(133.8166321 9.232735582 7.542992978e-20)
(132.1467787 9.912366723 -9.27868139e-20)
(132.7913757 7.819066396 -2.76038213e-19)
(131.3950672 8.555972851 -6.262020776e-20)
(120.1827993 4.231130135 -4.023333702e-20)
(118.6017325 4.676476659 -1.266054656e-19)
(119.2631258 2.952546467 -1.287167288e-19)
(117.9911951 3.53847289 -3.034284018e-20)
(112.1042578 2.265310817 -3.242133887e-20)
(112.989848 2.019713088 -1.148175619e-20)
(112.4528037 1.344504257 -7.760514575e-20)
(111.7026947 1.65751354 -5.009271561e-20)
(108.0735327 1.02814599 7.355347229e-20)