/*--------------------------------*- C++ -*----------------------------------*\
| =========                 |                                                 |
| \\      /  F ield         | OpenFOAM: The Open Source CFD Toolbox           |
|  \\    /   O peration     | Version:  v1912                                 |
|   \\  /    A nd           | Website:  www.openfoam.com                      |
|    \\/     M anipulation  |                                                 |
\*---------------------------------------------------------------------------*/
FoamFile
{
    version     2.0;
    format      ascii;
    class       volScalarField;
    location    "0.56";
    object      omega;
}
// * * * * * * * * * * * * * * * * * * * * * * * * * * * * * * * * * * * * * //

dimensions      [0 0 -1 0 0 0 0];


internalField   nonuniform List<scalar> 
12556
(
31.93110451
31.93200689
31.93294328
31.9337601
31.96673688
31.96756473
31.96845591
31.97027763
31.97381204
31.97950654
31.9871912
31.99453141
31.99825428
31.99649944
31.99045866
31.9829863
31.97658316
31.97168485
31.96956281
31.96783176
31.934022
31.9328141
31.93174803
31.9307708
31.79511854
31.79772069
31.80033295
31.80263618
31.83641349
31.83950792
31.84452862
31.86772751
31.88384311
31.91027358
31.94551922
31.98203498
32.00225072
31.99598114
31.96772193
31.93342273
31.90196133
31.8797731
31.85060199
31.8418601
31.80445527
31.80063393
31.79734749
31.79446315
31.6609197
31.6655151
31.67005849
31.67382877
31.70848553
31.71524692
31.72708009
31.76063965
31.79880981
31.85823077
31.9363124
32.01431126
32.05695653
32.04529436
31.98539128
31.91018341
31.84004181
31.789201
31.74028949
31.72116401
31.67802645
31.67140891
31.66565722
31.6608179
31.52823757
31.53432019
31.54036131
31.5460282
31.58315439
31.59618737
31.62123209
31.67518876
31.75109382
31.87181106
32.03113673
32.19547418
32.28705884
32.25590142
32.12102099
31.96486614
31.82519621
31.72678765
31.64626586
31.60987889
31.55647993
31.54538678
31.5365775
31.52957006
31.39768305
31.40545222
31.41358748
31.4220928
31.46237665
31.48501473
31.53212993
31.61844557
31.76408438
32.00972995
32.3630707
32.79545895
33.05288245
32.97515316
32.58589426
32.20419435
31.89867068
31.70960334
31.57689925
31.51079596
31.43986368
31.42247112
31.40992717
31.40041429
31.26818707
31.27748008
31.28756039
31.29986637
31.34714235
31.38497618
31.46605902
31.59959814
31.86386319
32.35391742
33.24635596
34.81798031
36.03579091
35.51577249
33.93671287
32.84487932
32.1396259
31.75472926
31.53391474
31.42665681
31.33002264
31.30213123
31.28457516
31.27220684
31.14134844
31.15256942
31.16567768
31.18338815
31.23853777
31.29688275
31.4206296
31.62799777
32.07852874
33.0178949
35.33451749
42.99515343
50.7125966
46.96491547
37.63097841
34.23739185
32.63783529
31.89814129
31.52184821
31.35896271
31.22610128
31.18478782
31.16072236
31.14497869
31.01641371
31.02945546
31.04586838
31.07073462
31.13781279
31.2215079
31.3976138
31.70383575
32.39606368
33.98503386
38.87424264
63.71797064
82.73340341
46.05770172
36.72416496
33.44875434
32.14617456
31.54183099
31.3048662
31.12938684
31.07081112
31.03851236
31.01895767
30.89629209
30.9119449
30.93326352
30.96794919
31.04499944
31.15896288
31.39736946
31.81680245
32.76606299
34.96777256
41.868072
79.03800891
163.2254773
58.12489869
40.08683395
34.51587939
32.47662485
31.59268733
31.26243363
31.03975093
30.96153605
30.91953753
30.89565144
30.78064712
30.79870248
30.8248413
30.86978083
30.96124145
31.10768055
31.41083862
31.94750243
33.1208804
35.74405902
43.48533485
84.2954834
203.0750515
68.37142102
43.39785635
35.60479734
32.8267465
31.66091919
31.22983885
30.95780474
30.85844113
30.80558901
30.77683265
30.67289501
30.69415563
30.72655874
30.78415882
30.88648627
31.06590819
31.43622523
32.08084265
33.4300296
36.31680557
44.53778447
93.0602165
200.7916801
73.95828799
45.73933004
36.48237827
33.14572702
31.7298392
31.20444177
30.8830595
30.7628142
30.69874759
30.66483668
30.5708609
30.59469782
30.63239545
30.70176754
30.81914735
31.03119933
31.46577054
32.2044579
33.68841158
36.7640192
45.50519724
104.1648676
183.8538373
75.47788587
46.88227045
37.03024891
33.3822099
31.78414508
31.1812815
30.81557317
30.67470162
30.59985853
30.5603936
30.47707412
30.50430923
30.54929942
30.6314289
30.75702073
30.99795136
31.48819711
32.31187919
33.89266492
37.12364593
46.66644018
113.0503751
864.6857851
156.4302818
74.34487602
47.03787042
37.20420596
33.51330135
31.81330165
31.15453954
30.75135474
30.59354175
30.50781746
30.46346667
30.38722243
30.41736142
30.4686695
30.56100727
30.70567306
30.9842033
31.54134206
32.43413545
34.11078003
37.54293251
48.3727512
156.1943827
528.7730706
145.2103867
72.132795
46.35938182
37.10541306
33.55771257
31.8137954
31.12085361
30.68693113
30.51644193
30.42121046
30.37187487
30.30276558
30.33576363
30.39258213
30.49342236
30.64908551
30.95371162
31.56048037
32.5516444
34.38333156
38.03391885
49.87955138
376.6538498
376.8334565
133.6336774
68.15696997
45.22199827
36.82151695
33.52992026
31.78581757
31.07670535
30.621876
30.44109353
30.33747165
30.28441898
30.21813165
30.25370521
30.31529526
30.42423553
30.59088187
30.91655729
31.56211516
32.6885925
34.83485009
39.10744208
54.83635469
677.8849572
311.8729891
117.9946907
62.93282438
43.69407211
36.45112234
33.43332216
31.72846676
31.0193786
30.55106455
30.36290774
30.25328654
30.1963028
30.13560352
30.17369633
30.23902789
30.35370462
30.52861567
30.87030931
31.54810276
32.79094262
35.46276365
41.43815109
74.05496282
971.5916166
223.5794054
98.52090861
57.14500003
42.13034245
36.12227444
33.30143849
31.64708948
30.95039021
30.47520004
30.28245957
30.16760986
30.10794147
30.04878161
30.08903161
30.15750513
30.27759073
30.46070194
30.81377124
31.51509241
32.80662943
36.00709836
45.63824419
163.3163736
744.4668755
164.7977994
82.2452454
52.66219796
41.0785407
35.83633302
33.14675239
31.54688449
30.86659828
30.38931711
30.19393478
30.07663644
30.01502074
29.96217102
30.00446469
30.07534361
30.19844711
30.38622776
30.74675242
31.46516362
32.79323277
36.18257904
50.33443328
297.8038229
456.4873717
135.1156429
73.66719662
50.62824322
40.50441002
35.54683551
32.97629448
31.43306758
30.77134319
30.2964489
30.10064543
29.98197513
29.91942373
29.86864376
29.91246401
29.98546155
30.11196986
30.30511795
30.66998197
31.40017959
32.75733514
36.33065173
53.83389665
321.0770129
361.2327724
125.5986471
71.32247326
49.57898264
39.99003718
35.26501738
32.79823366
31.30955762
30.66621211
30.19448521
29.99895078
29.87987642
29.81701604
29.77562523
29.82069807
29.89519776
30.02284561
30.21756802
30.58473322
31.32283272
32.70416613
36.48597124
57.83291238
326.819174
311.8334843
119.5493219
69.51501557
48.72374644
39.53191417
34.99637711
32.61799453
31.17928666
30.55293494
30.08730618
29.89371279
29.77509278
29.71236996
29.67436433
29.72006046
29.79585684
29.92571711
30.12417583
30.49224854
31.23556209
32.63827325
36.66908809
61.47160602
324.4030886
277.4202561
114.6180226
68.00125934
48.03968426
39.13003108
34.74371297
32.43917363
31.04445944
30.43329098
29.97235389
29.78036701
29.6626143
29.60050172
29.57578752
29.62180846
29.69819889
29.82771871
30.02541135
30.39367574
31.14045179
32.56414192
36.92410295
64.28571603
316.6780041
252.4340287
110.5197114
66.71065299
47.4861663
38.78384769
34.50908287
32.26434524
30.90701985
30.30893266
29.85529981
29.66635267
29.54996954
29.48867439
29.46788607
29.51370475
29.5906125
29.72154008
29.92224096
30.290192
31.03961656
32.48758339
37.29058496
66.3445393
305.7524505
233.5161646
107.0575589
65.59803758
47.02510403
38.48815938
34.29357241
32.09529073
30.76864831
30.18138175
29.73178578
29.54457385
29.42952816
29.36929325
29.36612455
29.4115773
29.488307
29.61761903
29.81534628
30.18299004
30.9352631
32.41582786
37.74331041
67.7943966
293.1373869
218.7426672
104.0901284
64.63007348
46.63140988
38.23444467
34.09676429
31.93304622
30.63063074
30.05185896
29.60969025
29.4258659
29.31249588
29.25335665
29.25305926
29.29779736
29.37451164
29.5049224
29.70590615
30.07313324
30.82933374
32.35593628
38.21493636
68.75731799
279.7321802
206.8427267
101.5139103
63.78085415
46.28987841
38.01424788
33.91699887
31.77789483
30.49382176
29.92142515
29.48120646
29.29851663
29.18649211
29.1285516
29.15081184
29.194822
29.27087824
29.39869916
29.59437986
29.9615315
30.72342662
32.31211049
38.6505629
69.30582129
266.0280874
196.9615579
99.25282771
63.03030335
45.99050956
37.82076746
33.75215385
31.62963544
30.35877631
29.79079492
29.35808518
29.17887849
29.06851917
29.01170644
29.0334935
29.07654665
29.15228914
29.28136145
29.4818977
29.84892489
30.61887117
32.28458288
39.02427454
69.51002682
252.4415586
188.5683739
97.24729017
62.36155895
45.7256189
37.64876065
33.6001407
31.48781217
30.22580997
29.66064686
29.22659572
29.04753888
28.93832769
28.88267381
28.93340226
28.97560186
29.05045603
29.17619303
29.36842445
29.73592647
30.51678881
32.27032108
39.33076283
69.43636459
239.2223642
181.2658739
95.44747444
61.75962779
45.48880763
37.49421608
33.45915812
31.35192157
30.09511018
29.53126259
29.10575753
28.93029593
28.82257768
28.76793868
28.81176171
28.85291516
28.92726548
29.05462714
29.25513844
29.62304151
30.41799731
32.26495215
39.57292778
69.14527881
226.5166033
174.780978
93.81211944
61.21154328
45.27466656
37.35398522
33.32767981
31.22146297
29.96677123
29.40313575
28.9714477
28.79498686
28.68817396
28.63457167
28.71656642
28.75687973
28.83030445
28.95385436
29.14143452
29.51069358
30.32294463
32.26403737
39.75587163
68.68323029
214.456436
168.9397165
92.30794946
60.70649741
45.07864409
37.22552146
33.20441485
31.09597642
29.84084716
29.27623536
28.85632515
28.68358857
28.57798889
28.52521902
28.58938686
28.628632
28.70136411
28.82672231
29.02884728
29.39927176
30.23176457
32.26386393
39.88561846
68.09161002
203.1111392
163.6080828
90.90692472
60.23530879
44.89687772
37.10670396
33.08825858
30.97503463
29.71737501
29.15110346
28.7173081
28.54259718
28.4377355
28.38586648
28.50233599
28.54083382
28.61276715
28.73451811
28.91609513
29.2891596
30.14440097
32.26174667
39.9689503
67.40722825
192.5195801
158.6992683
89.58775494
59.79036811
44.72607064
36.99571524
32.97824192
30.8582393
29.5964474
29.02746814
28.61271661
28.44142018
28.33738783
28.28614159
28.36703344
28.40445118
28.47546083
28.59813756
28.80570423
29.18090423
30.06075241
32.25605714
40.01267789
66.66247375
182.6984899
154.1557979
88.3356074
59.36571981
44.56351345
36.89103957
32.8735533
30.74528544
29.47837022
28.90639403
28.46390139
28.29080305
28.18747669
28.13702192
28.29224891
28.3290819
28.39952118
28.52073424
28.69587189
29.0753901
29.98105853
32.24587064
40.02251882
65.88082218
173.6402282
149.9323024
87.14019506
58.95708954
44.40710442
36.79143523
32.77349574
30.63585212
29.36402197
28.78795459
28.37804967
28.20600727
28.10303687
28.05296798
28.11958208
28.15513754
28.22438206
28.34569899
28.59190638
28.97446036
29.90668424
32.23076758
40.00470661
65.08265491
165.3279611
145.9903675
86.00116685
58.56461507
44.25625557
36.69628746
32.67777344
30.52988327
29.25580814
28.67588941
28.18741205
28.01366584
27.91128206
27.86199376
78.32285134
194.6613707
94.30873643
83.57720465
246.6873372
202.1590011
91.69869668
239.6411339
248.4612519
102.9392683
213.3616285
236.2886795
112.0207367
1068.610571
903.4734923
190.2774232
209.7996368
137.6893624
651.2875414
1044.584621
552.5365746
184.4149804
188.0628587
60.16270772
49.97017329
85.84168999
46.44045435
648.7612957
211.0937573
154.0637232
64.32222034
51.13364551
43.17658462
71.46771295
67.96615957
2226.488314
1587.987988
200.8021275
79.57257258
68.69608378
44.32721524
76.35283338
71.95312102
86.90349581
246.9570425
225.5683456
1184.733963
1684.959272
202.4510245
87.6215996
82.31898117
45.32712555
84.21583727
77.1853011
97.12148288
343.1900655
279.2051843
633.7599968
860.8385952
46.46042625
94.32640417
85.17542493
105.8270676
508.9039093
413.0177563
2612.472569
402.1354747
469.7084407
48.15545497
114.0146322
95.83388816
120.8274208
1067.588545
715.3080984
149.3538442
490.0324886
641.4053976
201.015735
230.5827983
122.2091296
194.7216841
1546.694906
686.3100633
151.9987176
543.5546153
1066.842033
222.983401
205.8114624
81.41724596
267.6795529
277.4869536
235.810274
265.1278424
1707.778395
2226.020838
227.3894662
1524.435997
1290.741617
1102.38367
1521.473372
224.5780639
276.2334692
250.5242134
87.9605426
317.7744887
358.2427751
279.4275695
314.6903318
903.2655107
1156.64955
246.28169
861.1391475
665.0208847
1274.668732
896.2318076
247.9764311
408.9699283
346.3315568
98.45794576
420.225897
516.0091829
360.9026286
416.489996
484.3083943
608.5634432
705.1395678
517.9764629
106.0964174
3564.807312
696.833918
1041.303613
520.8371263
681.500027
3971.856044
367.2046341
395.2323539
2303.238231
8572.179326
1075.632943
122.1043439
750.6132362
1666.325394
7890.270619
1049.430929
1641.054817
772.0501701
41.28596371
67.26715782
56.23135474
72.59683898
158.3156422
105.818362
4114.88728
718.4034858
81.02756959
203.5993789
182.7341167
6480.756042
186.4762873
89.65896545
88.64928485
6160.487152
909.0150944
1015.183567
678.5689007
323.6544882
354.1373748
180.2867604
162.1053641
74.51663662
1470.872937
298.2395429
673.8153928
174.3500146
479.2093749
139.9042651
1037.11004
1342.993387
222.904011
501.2179488
424.8621826
641.4793933
515.6699345
226.5898721
1551.417358
4793.730227
918.0424246
84.59918843
67.48237729
110.5329427
182.2665301
81.4515828
87.30088906
5878.443444
449.8983322
4077.529948
523.1808449
2959.093653
403.7608646
1814.160082
1790.455446
1388.494562
1423.418865
2642.897634
5512.52733
718.6819751
3229.126272
1712.567655
6249.87358
3741.286774
751.9038994
447.2684612
179.8229849
187.0278767
760.7417344
865.5251496
5611.845772
768.2358881
228.5096135
240.976318
213.4920539
223.7986691
765.450061
1347.019163
1473.027553
214.6609372
956.0778224
795.9014705
1405.296236
955.7354851
218.3142003
159.9959294
500.3768578
237.641441
711.3537651
533.2662086
171.8563929
703.3493377
1001.660045
1085.643089
1026.910649
266.475751
1503.223396
266.7474727
250.4580751
1468.821222
1423.021838
1499.374652
1473.918983
254.3397664
1832.229941
1854.066188
1387.779702
453.5081847
443.5466904
453.9016663
455.2019614
1375.452371
1294.596967
405.1473091
371.3174286
437.8436212
415.2153704
1317.336474
336.2692939
338.8899761
294.2306072
296.3878327
965.5838207
6475.571839
984.9603789
448.6515399
455.1183898
388.1423569
391.951716
1613.379086
1161.525146
546.4074915
1427.987747
2439.172857
567.4242364
200.6661099
209.9712299
189.6460362
197.789259
559.2095172
1724.068926
739.412572
751.3187241
555.7029819
560.0686215
6297.975192
1273.148236
649.1952753
729.3200837
246.2940662
256.0746373
1308.703572
2643.191085
2205.255605
3246.901688
1081.769798
6879.038568
3492.653047
5963.142561
1077.857057
870.0752471
4414.297678
2676.812987
4834.883812
2472.666314
3304.716149
49.35985936
115.4620952
116.3192212
167.2939059
4252.49383
7991.627155
394.3805992
168.2625694
180.4062882
1392.199361
3735.987736
4954.044554
564.0824771
623.6201125
1190.816996
295.3649052
313.7757541
659.8102299
178.2225326
130.2452218
268.5996997
562.0269521
161.0012292
190.881678
2100.227891
5329.95667
5462.822207
1690.650988
1274.003065
3706.530978
2647.476174
6310.757527
6154.730752
1599.876425
318.0513861
151.499059
155.9068287
146.1196763
150.1046284
312.4424218
171.4503743
177.7037373
442.8853139
987.5692322
405.9680977
423.4935703
6689.002987
3498.629196
596.2976584
1343.403715
4923.793509
5331.160774
734.4603327
297.1971893
248.1476808
357.2684154
313.9664917
769.9094256
1764.393702
6269.868005
6325.045542
2105.366867
264.4905785
141.221536
144.8630602
707.7970133
695.7398675
349.6417279
2490.771753
2268.942899
1082.364153
770.5126893
398.4758448
416.1057897
1122.032878
442.1115727
451.7954744
422.3239455
437.3474737
1098.168908
373.5987205
164.0393919
169.5362855
157.4449088
162.3112598
369.4339336
431.484708
1002.154997
993.350016
1563.711508
1519.630435
496.0832152
371.3494822
742.7206934
709.8016089
989.5816215
983.6565246
405.818526
527.8760852
1116.195266
898.4888371
6368.513554
2634.727013
718.7876741
884.3338904
535.2763557
1594.748714
1570.749864
1598.823346
601.307005
5441.020578
8654.254
320.2659214
358.7979292
429.9373822
445.4184812
1081.118279
2468.157388
1508.705453
692.2918922
1680.374004
8434.6952
2262.409596
2076.753453
15880.4337
1058.479974
1563.847524
2488.664421
3062.124625
2260.599179
6450.803364
6556.519248
1632.357335
2178.250937
6344.595803
1511.754845
1448.78926
460.0719337
1771.044731
720.1071186
1732.714975
504.6304079
4943.778466
3618.671394
1178.027136
5633.362759
6444.399055
5009.929599
3768.263293
1287.479211
5147.391069
6240.761396
3728.610916
4919.65969
6612.330325
2582.740828
3389.896231
1848.610958
2329.255453
5941.273757
6157.62631
1660.268387
1000.857952
2757.571064
1835.114423
896.9778407
551.8753717
1664.251551
5670.751347
7309.059056
1996.440123
1714.379642
5526.51955
5675.54704
4108.731284
3829.042369
1307.18836
6379.572608
6283.061219
4721.530353
6194.443454
6246.060917
1553.53532
6270.799007
4225.156734
3841.359785
4298.293583
2384.682883
1089.624807
1182.534518
4861.787768
1394.140153
1588.711748
1220.255958
1335.923758
4588.867328
4297.207669
1247.982547
1493.264336
380.5177844
400.009505
900.9525218
739.8172492
361.8457143
375.6879961
1445.675784
1454.880664
951.1070931
365.1037752
384.2778159
341.1314681
359.4525042
945.2626975
997.5912791
426.9673093
461.0942967
390.9751289
416.8401497
1005.104486
649.6919625
315.1313019
335.6026343
926.3490364
956.9180577
3544.206049
3670.478564
1273.225253
5159.472693
5330.524159
6697.427919
3695.324348
3078.788469
5218.635218
3643.80518
858.3188485
2538.231092
3398.555726
1535.652936
554.536789
617.0894634
531.7737977
544.2468066
1503.911082
663.1621128
672.0667698
637.3847463
659.963
1454.880239
487.9440539
499.2538274
468.9757097
483.9496365
1448.162979
1488.299214
517.3013973
527.7271918
502.9392482
513.7557714
1487.185961
6135.910549
6224.319725
1782.597965
2015.981128
6438.426419
6108.40698
962.0711277
965.5299587
938.9738989
961.012974
975.9198014
987.0154661
966.9233525
973.6642566
686.2071253
695.1697508
674.8440665
683.1956461
732.827547
897.9786952
699.6102853
711.0190664
2107.438848
2493.378424
1659.676004
1953.733866
6749.063954
4013.877667
4426.474886
2677.566581
3865.867491
1014.3586
1007.534071
435.5599824
1594.581094
1598.828203
1564.588304
1585.882858
1641.814973
485.5404509
1484.931621
1065.490516
956.190397
762.6525441
375.2455918
1032.706972
1474.976194
987.5611733
1042.324189
1531.834025
1553.661501
1493.825183
1522.601139
402.354514
981.9253308
973.479769
6513.385033
1713.058521
6465.095574
5631.275217
6443.17047
1843.096959
6579.277176
2341.37778
6309.166442
5525.347979
725.1008134
802.4256347
1626.314464
1599.8012
539.8161569
585.9728102
1687.33271
1628.719491
6253.757526
1118.969344
456.4314685
496.4075211
6368.090586
7193.289642
1748.608957
7798.530104
5779.030447
2747.795603
1059.889787
6880.089497
4238.347739
7592.523563
4643.980123
1508.848147
76.13452055
47.2440134
39.0365375
6354.282417
6328.794702
172.4242035
88.27604529
89.56844839
6569.730944
1217.396249
3462.404129
2618.323302
413.8813536
343.2604516
201.1302856
457.2972223
298.8695483
733.9319947
2703.162462
435.6302664
502.8274745
61.32770041
74.03966476
157.0283915
564.3027524
1167.855414
1744.298999
236.99533
131.8379772
135.5002888
126.7324523
130.6063393
233.9927491
1059.212184
1187.895976
3832.534306
856.690609
750.5592939
438.5311006
345.1709633
357.7000912
735.0436493
1902.204353
2440.964867
805.6132856
136.6501654
140.0855174
261.0107386
325.8774517
666.0676511
642.2687248
621.461335
558.3372104
305.9071915
630.1011818
327.9976265
341.0022746
5072.391794
4791.858572
3245.930681
1603.623626
1582.878687
1020.050325
4445.523889
6207.294576
5636.954396
1682.640603
929.552566
1031.982999
1669.293107
1053.981814
1635.241765
1622.986704
1639.869953
4443.137222
6280.648371
4307.317143
4693.37378
6102.947406
1982.909313
1575.468328
922.9685581
1485.344917
230.8268789
180.6086438
339.0535155
1136.470727
3140.606793
2207.3486
6385.487295
6719.646167
6858.759937
5730.226108
6550.387848
115.7997656
152.1295799
430.0583563
4755.128472
3060.990099
2338.950717
6417.649145
4909.617409
2915.33896
4950.504633
4566.624886
6788.781233
6447.144934
4914.323813
985.1892358
1064.275961
2181.285919
6405.530518
3715.683076
4107.471638
4996.500371
3349.431935
3797.819879
1394.331428
1818.787557
1468.911276
954.4364111
666.214225
673.3624218
1371.63458
877.9365064
918.2502215
678.68833
687.4051867
965.0354862
281.168234
308.8209435
624.4899356
784.3727133
1365.240076
1014.683154
1489.367599
1540.225797
1009.33053
1818.317929
1348.778155
1396.535841
969.3493804
970.4327114
1505.996794
1482.093262
1492.529007
1425.479946
1443.781425
1462.73902
942.561379
944.6350757
933.4546263
937.0534541
1433.223421
1495.81743
962.5295106
964.9008186
947.0322871
949.5639982
1478.504943
679.2984095
669.6703873
328.5130765
347.0043466
692.4538082
682.4082196
530.6471435
520.35016
287.6845814
1517.015798
1518.458295
1495.799131
1498.994393
1844.069881
1523.718054
1524.260701
303.3972004
547.8275388
534.8524468
6485.728131
6422.628003
4294.542147
4536.750952
6433.866783
6495.287351
6716.517875
1059.344896
2179.424724
1804.799657
312.8401152
323.8909858
603.5680212
542.8528226
300.8876844
309.737823
1048.587714
1048.671675
736.5101373
753.5336466
1055.429203
1059.617543
6261.491433
1383.144969
913.3591585
901.557703
11626.73437
2159.528559
2581.412197
5259.724835
4482.475307
1697.280511
1677.923483
1068.727888
6660.557736
7230.476015
6922.522882
5523.861148
1132.103967
1739.136797
1687.207907
3507.781459
1370.453378
1666.596481
6238.065876
6164.424588
5023.723418
4709.963011
3002.735632
1548.219363
2324.040222
2060.242452
4212.617903
6325.920159
5543.961986
6409.72736
6165.079538
4653.729388
270.1771251
390.57849
1452.69362
5481.372111
5359.426804
5623.130742
5584.271968
5403.73945
3526.666735
3512.536704
3532.697851
3527.070479
5395.480976
6335.784007
3529.048839
3562.643516
3369.387417
3477.191269
6434.784423
5107.165109
3232.274598
2918.280879
3491.721547
3411.531542
5221.680848
6246.37727
3647.909548
3680.282806
3599.541548
3620.043584
6293.406075
5768.787172
5657.34758
5864.172347
5620.787953
1000.679373
709.2064267
712.4047684
1550.94802
1004.103167
1007.369884
979.7261133
998.4759079
1540.131957
6098.640437
6296.242149
5609.425834
6174.544998
1605.8194
1618.227945
1579.717925
1593.236714
2026.692609
969.5332921
1540.949413
1482.901103
1585.745264
1011.893267
1014.820208
1008.665739
1010.614259
1579.541138
1520.932161
1559.639176
1081.328582
1464.018076
2004.478191
6509.993271
6153.705811
4923.498952
6334.274735
818.818369
1132.927655
13072.43792
1083.483956
754.460607
756.9591378
1685.268465
8122.221641
8425.355742
9843.919166
6258.277583
6020.53759
1649.701857
1639.044374
1054.491696
1608.129028
3574.090366
5419.819607
3726.737971
4688.115583
3648.01293
1534.963349
4924.829908
3632.172153
6508.12348
6764.083649
6308.574663
5030.828665
5624.754321
1482.391716
1788.264334
1689.893154
813.7254299
1027.751975
1509.243637
1585.364949
1049.822562
1485.177916
1960.302115
6269.171472
6478.957884
6188.986302
5723.520221
6497.33082
6442.741171
6310.358324
4125.551508
5608.467143
5169.515637
6255.480233
6459.726114
4518.013097
4792.512813
5216.477565
6510.88405
5391.352804
4066.701338
4363.722488
4519.219312
3167.252572
4457.839151
2324.955521
3443.714247
4714.05028
5206.353638
4748.574538
5889.586834
3709.894975
3529.224136
5086.391197
3655.185569
5464.690557
5553.917179
3538.824647
3535.962607
3555.622182
3533.258062
5592.43183
4001.864985
2317.6796
2363.067655
6312.791578
6307.572781
5472.507985
6626.437416
6417.028551
6330.74964
6333.098141
6577.578771
5312.546099
2797.409566
3132.64997
2430.180521
2558.299931
4563.021071
6458.501268
5514.100843
3348.812208
6763.309535
6480.126013
6460.33567
4499.016541
6467.647293
6253.879119
2825.895312
3210.742674
5574.215795
1428.621927
1466.375401
732.4032598
806.6799843
1328.271091
962.206458
690.6001863
712.9156388
1467.417323
1439.61396
880.1190322
1532.910275
1870.846806
957.2005143
1499.6944
1492.878366
3538.57466
2383.632688
2349.05087
2618.041674
2533.609177
3724.189647
5539.289931
5219.984899
3460.912384
5235.539317
5440.257248
4935.657734
5169.489972
3405.183042
5103.786837
5057.812087
6531.114754
4820.416475
1020.268565
1012.303046
1466.127343
1510.871713
978.8790583
974.9928767
1468.673513
1477.109424
1453.492043
1462.327432
940.3141284
941.7029706
1461.396967
1441.058233
938.2143957
939.1351374
956.7115716
959.0583795
1491.274801
1483.806932
952.3309872
954.6333331
6192.320459
3765.328577
3794.656676
3702.808361
3729.930009
6176.911506
6140.602181
4205.432477
4886.603293
3849.947155
3953.850252
6130.321621
963.3160556
1493.432962
1485.199117
1505.186873
1499.671704
964.3052381
954.7180551
1456.546456
1440.665938
1477.352031
1467.985178
959.1887978
979.9242381
1540.756551
1532.837077
1552.35969
1544.598508
981.8387492
968.6808333
1515.783701
1510.9987
1528.195469
1521.0701
970.6285656
1509.991243
1512.516884
689.0633137
966.6904413
965.1431079
970.7589573
969.5200025
692.489593
1503.418109
1506.288454
1559.856526
1484.550211
752.2243308
1017.35122
1026.480842
1409.19724
1360.916236
824.7960322
701.4603328
975.4092751
975.0066832
980.5027872
984.2932101
709.9201836
1531.998502
1525.488376
6388.308213
6255.305538
6541.164479
4829.36569
5551.973751
4159.313252
6390.327243
6461.821671
6389.267435
6399.493583
4250.08266
3005.188412
5550.74471
4780.20815
6255.906657
6394.341507
3503.03704
1018.382041
729.8774896
731.3361635
717.9225586
720.0957342
1007.864157
1594.95494
1606.819118
1569.380544
1583.503493
1555.011329
1955.319821
1427.158011
853.2477547
934.0281714
755.2960763
776.090292
1055.39089
1389.424016
1893.34939
1514.600948
1441.961245
997.595661
1563.710525
1552.777239
1595.655361
1556.933112
993.8298268
1538.190205
1547.930234
1504.858282
1514.957047
6228.234782
4363.199041
4606.849311
3420.65515
3960.768534
6319.525188
6446.466274
6260.766955
4954.140858
5544.433905
6748.796346
6133.055233
4801.514977
5036.106955
3986.388382
4401.164229
6309.433296
1646.597975
1647.660119
1631.430943
1634.626106
1097.34195
1108.330242
780.2695012
1702.964422
1613.013671
1663.485218
1654.952057
1613.737281
1022.398719
1029.101016
1016.413097
1020.918892
1610.343292
1644.64048
1040.510561
1092.374388
1030.360902
1043.299493
1647.819732
6072.02433
781.1031372
785.1065915
1120.60338
6237.198912
8872.712366
9163.241762
8943.776553
8827.863735
6837.623415
1699.224982
6839.146657
5067.140261
5441.173173
1066.971985
1670.637263
1656.751445
6829.402424
7445.424383
7216.65285
5963.603349
6477.973235
7907.464464
7523.434407
5005.258919
7117.383073
6212.487394
2053.659394
1658.402961
1121.553951
31.78585315
31.80806099
31.87841106
31.81703473
31.85381811
31.9017716
31.8670023
31.91584802
31.93514739
31.93209942
31.98312397
31.97157641
31.99608892
32.02875805
31.99857609
32.03202054
32.03156177
32.00106785
32.02401091
31.98854209
31.97788422
31.97501565
31.92593722
31.94316575
31.90977909
31.86466944
31.90990215
31.85224101
31.81796029
31.88490908
31.69417348
31.74006413
31.78767674
31.7590219
31.83210572
31.84254716
31.86022871
31.95803787
31.91756388
31.99186999
32.09816911
31.99582568
32.12039555
32.18936052
32.0521456
32.19832253
32.19658766
32.05051013
32.17452104
32.09959475
32.0030022
32.0708924
31.96812184
31.92822736
31.93627112
31.84920619
31.85516962
31.82301235
31.75696158
31.79916168
31.63030336
31.71705327
31.72897851
31.75426388
31.89906218
31.8378489
31.95805457
32.16777947
31.98978508
32.2446021
32.50344214
32.14865433
32.55043875
32.73702832
32.26980046
32.75959235
32.7647282
32.2630045
32.6891878
32.50279615
32.16235514
32.42939333
32.18238331
32.00356299
32.10791556
31.91850734
31.85579906
31.86657988
31.74198115
31.7472809
31.59915842
31.75684528
31.71938439
31.82805026
32.11515434
31.93759043
32.24108365
32.73589122
32.26533028
32.94374087
33.77851469
32.65510296
33.97265804
34.77490246
33.00166539
34.89396654
34.7726933
32.98745726
34.41311012
33.73535972
32.69227831
33.4812159
32.79445727
32.29656846
32.60501525
32.16756883
31.96403456
32.0565738
31.80158851
31.74788927
31.61593822
31.88759975
31.78108926
32.01340184
32.558873
32.20351551
32.81800062
34.02472869
32.96977152
34.64390793
38.07554019
34.26125522
39.53058882
46.88120628
35.89791314
47.35485157
44.09333063
35.65345761
41.4045202
37.40474735
34.27965463
36.38308233
34.24693958
33.08171606
33.75000216
32.71867819
32.28073475
32.48040497
31.9691106
31.83124747
31.68023096
32.10463049
31.93482181
32.30703899
33.23959749
32.71088471
33.72213247
36.31405472
34.51325273
37.93986355
53.74406862
39.75856039
48.42836859
56.10684095
45.17353709
72.23756652
68.76869734
50.69478211
54.31840856
47.08059183
43.65260324
43.45322271
37.13020641
34.85479272
35.92878777
33.6833775
32.93225431
33.21234346
32.27260492
32.03262552
31.78483004
32.38432424
32.1716134
32.6726823
34.02599701
33.43910495
34.74317513
38.72107925
36.97666369
39.77934507
42.98077924
41.7767803
67.09183431
77.40854604
72.66969209
113.8943657
77.84998586
63.84832468
55.09614319
41.44264394
38.16138785
39.11713325
35.03057539
34.00681018
34.22757696
32.69792087
32.37058082
31.91482274
32.67521702
32.4582555
33.03652512
34.70374181
34.20531141
35.57386392
40.27193613
39.18311165
42.37833178
46.3980492
45.75687394
79.81467977
95.27743215
94.07616024
184.4960964
110.1563622
98.63317425
66.25820744
45.97068526
42.6907264
42.50960807
36.48920246
35.42462282
35.3348801
33.17416876
32.81648446
32.05003919
32.94323331
32.74435492
33.3592683
35.23379093
34.84756266
36.19171007
41.24568098
40.54533123
43.79741283
48.17137679
47.77518429
85.07997398
112.9164897
109.746026
205.3518717
126.9113753
122.6143069
73.04887776
49.37459261
47.05517845
45.17595486
37.71328367
36.86411862
36.2807408
33.60445593
33.28281225
32.18010201
33.17598059
33.00324579
33.63141426
35.64826013
35.34263537
36.66692188
42.01194178
41.43512813
44.8234769
49.58942245
49.16795456
94.42619812
128.9130535
125.9885712
195.386432
129.0356719
129.4210305