/*--------------------------------*- C++ -*----------------------------------*\
| =========                 |                                                 |
| \\      /  F ield         | OpenFOAM: The Open Source CFD Toolbox           |
|  \\    /   O peration     | Version:  v1912                                 |
|   \\  /    A nd           | Website:  www.openfoam.com                      |
|    \\/     M anipulation  |                                                 |
\*---------------------------------------------------------------------------*/
FoamFile
{
    version     2.0;
    format      ascii;
    class       volScalarField;
    location    "400";
    object      k;
}
// * * * * * * * * * * * * * * * * * * * * * * * * * * * * * * * * * * * * * //

dimensions      [0 2 -2 0 0 0 0];


internalField   nonuniform List<scalar> 
12556
(
36.829
36.8288
36.8289
36.8308
36.9166
36.9183
36.9195
36.9222
36.9272
36.936
36.949
36.9637
36.9743
36.9753
36.9666
36.9531
36.9403
36.9308
36.9244
36.9208
36.8329
36.8298
36.8291
36.8287
36.6491
36.6493
36.6497
36.6537
36.7326
36.7401
36.7471
36.7945
36.8089
36.8337
36.87
36.9111
36.9416
36.9466
36.9246
36.8877
36.8507
36.822
36.7632
36.7486
36.6599
36.6526
36.6506
36.6496
36.4703
36.4707
36.4717
36.4775
36.5522
36.5655
36.5811
36.633
36.6679
36.7262
36.8091
36.8957
36.9516
36.9606
36.9218
36.8469
36.7645
36.6981
36.6166
36.5853
36.4923
36.4795
36.4751
36.4733
36.2934
36.2939
36.2955
36.3037
36.3747
36.3952
36.4233
36.4894
36.5624
36.6835
36.8295
36.9607
37.0428
37.0515
36.9899
36.879
36.7439
36.6153
36.4957
36.4366
36.3319
36.3107
36.3028
36.2996
36.1181
36.1188
36.1214
36.1327
36.2028
36.2325
36.2788
36.3691
36.5105
36.7131
36.9399
37.1598
37.3
37.2975
37.1772
36.9943
36.7929
36.6008
36.4122
36.307
36.1798
36.1465
36.1329
36.1277
35.9447
35.9457
35.9498
35.9647
36.0361
36.0786
36.1521
36.2847
36.5125
36.8077
37.1869
37.6366
37.9663
37.8859
37.5787
37.2388
36.921
36.6421
36.3748
36.2016
36.0368
35.9865
35.965
35.9567
35.7736
35.7753
35.7814
35.8008
35.8747
35.9338
36.0442
36.2357
36.5507
36.9802
37.6288
38.7691
39.525
39.3448
38.3522
37.6606
37.142
36.7352
36.3807
36.1225
35.9039
35.8311
35.7989
35.7865
35.6058
35.6084
35.6173
35.6426
35.7208
35.8003
35.9547
36.2111
36.6137
37.1998
38.2032
40.4366
42.0693
39.6384
38.2743
37.4543
36.878
36.411
36.0681
35.7816
35.681
35.6356
35.6182
35.4423
35.4463
35.4586
35.4907
35.5752
35.6781
35.8805
36.1989
36.6874
37.4109
38.6623
41.8619
46.229
41.1806
39.0108
37.8304
37.0577
36.4577
36.0333
35.6704
35.5382
35.4775
35.4541
35.2843
35.2898
35.306
35.346
35.4382
35.5668
35.8175
36.192
36.7606
37.5913
38.9887
42.2214
49.0099
42.5353
39.7358
38.2193
37.2519
36.5139
36.0115
35.5711
35.4051
35.3275
35.2973
35.1324
35.1398
35.1603
35.2089
35.3101
35.4655
35.7627
36.1886
36.8324
37.7558
39.2826
41.9931
50.3851
43.5506
40.36
38.5768
37.4384
36.5708
35.9975
35.4826
35.2829
35.1882
35.1506
34.9869
34.9962
35.0214
35.079
35.1905
35.3729
35.7138
36.1894
36.9058
37.9244
39.5714
41.4939
50.8548
44.2308
40.8415
38.8732
37.5991
36.6202
35.985
35.4028
35.1716
35.0603
35.0154
34.8475
34.8593
34.8899
34.9572
35.0779
35.2871
35.6689
36.1936
36.9827
38.108
39.8575
40.8321
42.2119
50.4202
44.6327
41.1726
39.0927
37.721
36.6557
35.9677
35.3281
35.0693
34.9429
34.891
34.7136
34.7276
34.7631
34.8393
34.9748
35.2135
35.6362
36.2163
37.0878
38.3433
40.1824
39.114
48.9126
50.3628
44.8016
41.36
39.2324
37.7988
36.6728
35.9398
35.2547
34.9728
34.8334
34.7753
34.584
34.6001
34.6402
34.7247
34.8715
35.1331
35.5893
36.2135
37.1594
38.5197
40.3448
32.9547
49.7706
49.7961
44.7206
41.4113
39.2936
37.8323
36.6668
35.8965
35.178
34.8784
34.7281
34.6649
34.4572
34.4752
34.5196
34.6115
34.7691
35.0505
35.5345
36.1959
37.2063
38.645
40.1353
28.3747
48.1765
48.8549
44.4565
41.3592
39.2842
37.8183
36.6263
35.8356
35.0949
34.783
34.6237
34.5564
34.332
34.3517
34.3999
34.4983
34.6656
34.9635
35.4694
36.1592
37.2121
38.6618
39.5906
24.6606
46.6123
47.8727
44.0327
41.1878
39.204
37.7528
36.552
35.7545
35.0032
34.6834
34.5172
34.4469
34.2072
34.2284
34.2798
34.3836
34.5595
34.8706
35.3928
36.1022
37.1766
38.5676
38.8283
21.9195
45.1598
46.9479
43.5686
40.9391
39.0516
37.6372
36.4483
35.6539
34.9005
34.5772
34.4072
34.3343
34.0821
34.1044
34.1586
34.2669
34.4499
34.7714
35.3052
36.0268
37.106
38.3938
37.9251
19.9325
43.821
46.088
43.1087
40.6608
38.861
37.49
36.323
35.5379
34.7883
34.4642
34.2916
34.2174
33.956
33.9793
34.0358
34.1476
34.3365
34.666
35.2078
35.9358
37.0068
38.1623
36.9559
18.4856
42.5849
45.2835
42.6681
40.3753
38.652
37.3236
36.1821
35.4095
34.6677
34.3447
34.1707
34.0956
33.8287
33.8528
33.9111
34.0259
34.2195
34.5551
35.1022
35.8322
36.8845
37.8875
35.9762
17.4179
41.439
44.5273
42.2494
40.0926
38.4358
37.1463
36.0303
35.2716
34.54
34.2192
34.0446
33.9691
33.7003
33.725
33.7848
33.9019
34.0993
34.4396
34.9898
35.7187
36.7434
37.5782
35.0138
16.6172
40.372
43.8135
41.8493
39.8173
38.2183
36.9636
35.8713
35.1269
34.4067
34.0887
33.914
33.8382
33.5708
33.596
33.657
33.7762
33.9765
34.3203
34.8723
35.5972
36.5868
37.2407
34.086
16.006
39.3745
43.1366
41.4633
39.5509
38.0029
36.7788
35.708
34.9775
34.269
33.9541
33.7796
33.7037
33.4403
33.466
33.5281
33.649
33.8517
34.1982
34.7507
35.4693
36.4168
36.8822
33.2033
15.5311
38.4384
42.4918
41.0887
39.2925
37.7914
36.5942
35.5425
34.8251
34.1282
33.8164
33.6422
33.5662
33.3093
33.3353
33.3983
33.5209
33.7254
34.074
34.6263
35.3363
36.2348
36.5105
32.3715
15.1559
37.5571
41.875
40.7242
39.0408
37.5845
36.4113
35.3764
34.6711
33.9852
33.6764
33.5025
33.4265
33.1779
33.2042
33.2681
33.3922
33.5983
33.9486
34.4999
35.1991
36.0418
36.1316
31.5921
14.8548
36.7251
41.283
40.3686
38.7946
37.3821
36.2308
35.2108
34.5164
33.8409
33.5347
33.3612
33.2851
33.0463
33.073
33.1377
33.2632
33.4707
33.8224
34.3721
35.0583
35.839
35.7495
30.8644
14.6098
35.9379
40.713
40.0211
38.5531
37.1839
36.0532
35.0464
34.3619
33.6958
33.3921
33.2189
33.1426
32.9148
32.9419
33.0073
33.1343
33.3429
33.6959
34.2432
34.914
35.6282
35.3668
30.1862
14.4083
35.1916
40.1628
39.6808
38.3156
36.9896
35.8785
34.8835
34.2079
33.5505
33.249
33.0759
32.9994
32.7836
32.811
32.8772
33.0057
33.2154
33.5694
34.1136
34.7664
35.4109
34.9859
29.5544
14.2412
34.4832
39.6308
39.347
38.0817
36.7987
35.7066
34.7225
34.0549
33.4053
33.1057
32.9328
32.856
32.6529
32.6806
32.7476
32.8775
33.0882
33.443
33.9834
34.6159
35.1888
34.6081
28.9654
14.1022
33.8098
39.1154
39.0191
37.851
36.6108
35.5375
34.5635
33.903
33.2606
32.9626
32.7897
32.7126
32.5228
32.5509
32.6186
32.75
32.9615
33.317
33.8526
34.4625
34.9631
34.2346
28.4154
13.9866
33.1692
38.6157
38.6967
37.623
36.4258
35.3711
34.4066
33.7525
33.1165
32.82
32.647
32.5696
32.3934
32.4218
32.4904
32.6233
32.8356
33.1915
33.7213
34.3066
34.7347
33.8663
27.9006
13.8912
32.5596
38.1306
38.3793
37.3977
36.2432
35.2071
34.2517
33.6035
32.9733
32.678
32.5048
32.4271
32.265
32.2937
32.3632
32.4975
32.7106
33.0665
33.5895
34.1486
34.5046
33.5036
27.4174
13.8137
31.9792
37.6594
38.0668
37.1746
36.0628
35.0455
34.0989
33.456
32.831
32.5368
32.3635
32.2853
32.1372
32.1664
32.2367
32.3726
32.5864
32.9423
33.4574
33.9887
34.2733
33.1471
26.9625
13.7522
31.4268
37.2017
37.7588
36.9537
35.8845
34.8861
33.9482
33.3101
32.6898
32.3965
32.2228
32.1442
32.0115
32.0411
32.1123
32.2495
32.4633
32.8188
33.325
33.8273
34.0414
32.7967
26.5325
13.7057
30.901
36.7569
37.4554
36.7349
35.7081
34.7287
33.7996
33.1659
32.5506
32.2582
32.0842
32.0051
31.8925
31.9225
31.9946
32.1331
32.3424
32.6969
33.193
33.6648
33.8095
32.4527
26.1246
13.6734
30.4011
36.3248
37.1564
36.5181
35.5335
34.5735
33.6541
33.0245
32.4201
32.1283
31.9539
31.8744
41.7483
46.5952
42.4384
42.2251
49.9005
47.1185
42.0407
51.3532
50.1672
41.5676
51.8507
51.4511
40.882
40.4468
41.8437
51.8932
51.8733
39.5972
44.9166
40.6342
48.5989
52.1002
51.8354
40.1739
39.4526
41.9058
39.3016
50.8808
44.2268
45.7632
41.5833
40.1558
38.9128
41.5976
41.1076
53.9167
55.4786
48.7465
43.2784
42.0453
39.2099
41.6178
41.6213
42.1803
43.4465
44.4106
51.8586
52.0503
50.2727
44.5084
43.6301
39.4994
41.4027
41.5994
41.8286
40.0417
41.8973
52.2496
51.7241
39.7869
41.0429
41.366
41.2517
35.601
37.8121
40.861
53.3872
52.9226
40.1145
40.3345
40.9839
40.4517
31.9033
33.1962
36.0045
45.4273
45.3595
45.6396
46.7768
42.5423
45.3544
55.4468
51.3368
44.8628
50.0151
54.4625
44.5316
45.2866
42.1884
45.7769
44.564
46.7282
45.923
52.1353
53.7615
48.5481
54.2896
53.1932
54.5852
54.3776
48.3669
42.0823
43.2865
42.1541
42.9355
41.2454
44.4808
43.0484
51.6632
51.8913
50.9717
53.2417
53.2248
53.1405
53.2545
50.8069
37.9334
39.9255
41.7679
39.0452
36.725
41.1285
39.1707
52.8507
52.3309
33.2963
35.4653
41.2095
42.7252
34.1548
32.4969
36.6056
34.2841
43.6447
53.5595
53.4465
40.4524
40.7159
31.8492
40.3954
42.6862
32.3919
62.9239
32.422
32.3438
42.3233
38.5647
41.0056
39.8875
41.1299
44.4797
42.1565
58.9106
48.915
42.1417
45.3824
45.8397
46.1296
50.835
45.3096
44.7449
49.0207
45.4717
45.1416
44.9751
53.9011
53.6681
45.8123
44.716
41.3158
50.9594
44.4323
50.9584
43.6882
49.3022
44.2527
44.8691
42.8052
51.7326
53.3811
53.5142
53.2319
53.3572
51.6754
39.5046
47.9292
40.949
40.8549
40.5339
42.1663
43.4517
41.1198
40.9339
59.8357
48.1787
58.4244
47.3033
57.115
47.1843
55.0863
55.1824
51.7947
51.8105
42.1696
45.1516
52.022
42.8612
42.8189
46.416
43.0522
51.9517
36.8228
40.6657
40.3013
46.8661
45.8155
47.4042
32.4885
38.3795
37.8627
39.0434
38.5532
32.5799
54.3284
51.4127
46.3253
51.5806
53.0294
48.3646
51.2873
46.515
43.8766
48.7428
43.7523
52.8121
49.5398
44.2974
51.9292
54.3603
54.2526
53.9931
45.246
42.4901
45.1571
46.4491
45.2749
47.9498
42.7666
44.9285
46.3288
52.8671
52.9831
53.7352
52.4838
52.0041
52.9458
52.617
53.6574
54.9159
50.8868
49.9875
51.816
51.1464
54.9018
42.1563
42.045
43.8653
43.774
52.1222
46.634
52.0949
38.1274
37.9501
40.1766
40.0474
42.9438
44.5508
52.5613
42.5945
42.0484
34.5526
39.645
39.1988
40.1761
39.7841
34.6781
39.5984
33.486
33.3871
35.7647
35.6409
49.792
39.9162
48.2381
47.2147
37.6951
36.8199
33.142
35.9518
39.3845
42.7621
31.996
56.0382
43.6041
53.8105
31.9629
41.2738
46.6155
40.5696
55.9871
40.7664
41.8551
40.3315
39.2518
40.2033
38.1548
32.1312
40.4708
50.132
51.4238
51.9918
52.5472
42.4109
44.7692
49.5139
48.5672
40.0637
53.9867
53.953
45.3587
42.4794
41.9457
43.9127
46.8786
42.5032
42.6025
54.4395
56.993
56.3307
55.4428
51.7645
46.7202
46.7962
49.5454
48.8823
51.8685
40.9067
42.2299
41.9757
42.5474
42.3119
41.0595
41.1133
40.7818
36.9505
32.112
35.0949
34.7269
57.8725
43.852
45.031
55.1326
57.7023
57.2011
52.3093
48.0394
46.6231
49.6426
48.4742
52.687
52.4235
50.5298
49.8242
53.3804
42.6157
42.8336
42.6221
38.2098
38.6224
41.5913
46.7811
46.6258
51.9776
53.2184
53.4448
53.4123
52.9437
53.2356
53.033
53.3916
53.2857
52.9305
38.9476
41.519
41.2185
41.8881
41.6146
39.0897
38.6701
34.8245
35.1028
33.7452
33.8451
37.127
40.7393
37.4938
38.0696
35.2032
35.5248
39.5471
52.6342
44.8096
47.0451
51.7894
40.7862
33.8498
32.7992
36.2476
33.5469
33.7052
33.1994
34.9286
47.7487
38.2194
35.9782
34.9537
34.6083
34.2385
31.7436
40.109
38.5818
43.7279
32.5092
65.981
40.3287
39.2059
44.1475
32.2132
32.2338
55.889
55.1043
54.5167
46.816
46.766
40.3867
40.5617
49.4855
49.6171
49.1877
46.8804
55.6568
47.3509
56.9732
47.9075
44.5287
42.3327
43.5305
45.9712
47.7948
47.5255
43.6398
39.79
48.3379
52.235
43.5388
47.0365
54.0141
40.4748
42.5897
39.0804
39.9967
52.2386
60.3595
54.9667
52.3607
57.4339
55.6598
51.3935
48.3617
53.8694
55.0567
54.687
54.6331
55.3971
56.0868
55.3035
47.5323
46.8356
51.7624
47.9719
48.4163
46.6116
47.7556
48.4721
51.8431
48.6375
47.8004
42.8777
43.2652
42.5655
48.003
47.3396
44.56
46.4199
45.9435
47.0757
46.5828
44.0699
43.7684
40.8797
40.4503
35.6787
35.2134
32.1867
32.8352
36.1896
35.8136
53.2266
52.7745
52.4143
49.0342
49.229
48.2777
48.8955
52.6678
49.8588
49.0178
48.6976
49.2204
49.0825
50.3111
51.9009
47.1738
48.0363
54.1325
54.3027
57.7344
57.5465
54.9353
58.4446
58.7825
58.5284
58.315
57.8772
58.8957
58.5079
53.0006
57.2875
57.8122
41.4495
45.226
44.2906
45.9914
45.4514
41.7063
43.2962
42.7973
44.0355
43.4668
46.3584
47.955
47.4797
48.5584
48.1098
46.7433
43.656
46.6623
46.1602
47.3181
46.8278
43.9595
51.4627
50.7671
52.5289
53.2868
52.4186
51.6739
38.1918
37.7734
38.8439
38.3385
37.0998
36.7229
37.6367
37.2307
41.9847
41.4927
42.6355
42.1481
40.4781
39.1013
41.327
40.7647
45.3872
45.3183
45.8251
45.4953
46.9979
45.4886
46.2967
45.3247
45.3317
34.4435
34.7348
38.5441
34.165
33.9227
34.4548
34.2411
33.8537
37.3049
33.881
34.3148
36.1644
37.1224
40.5891
35.8358
35.2181
36.5987
36.1367
34.7879
34.5338
35.1326
34.8748
39.672
35.6386
36.0114
47.7635
42.1354
47.612
45.6884
47.4612
42.0539
52.3369
40.3456
51.9666
49.4541
33.7591
32.946
33.3259
33.4897
36.1273
35.171
33.1893
33.2805
49.47
31.7559
34.0895
33.1948
61.1167
63.3111
32.6087
61.7795
55.4112
40.8525
32.1463
56.3106
46.8559
62.1713
48.254
32.2448
41.5863
39.7058
38.5704
49.3781
48.9721
50.8904
45.7765
45.4551
48.758
39.9577
42.7274
40.6169
53.5352
53.7473
51.9099
44.1885
43.4586
46.9427
54.0755
44.3217
44.4028
40.5913
41.015
43.0863
49.5488
53.7302
55.624
43.8908
43.2891
43.1394
43.4486
43.3331
44.027
42.1493
41.2465
42.8308
47.3335
48.2146
53.1293
36.6747
36.3114
32.9252
56.1276
56.9944
52.6065
43.0835
42.8998
42.788
42.5998
39.9063
40.4153
40.6627
41.6512
43.3829
33.7618
37.1939
36.7978
46.6988
45.5338
41.9701
32.6186
32.5835
32.5812
44.754
49.7442
48.1895
39.7616
43.1403
42.4288
32.4212
32.3529
32.6836
32.6596
32.3062
58.2536
46.6843
43.5304
44.5036
49.6448
40.8189
40.746
45.8242
50.492
46.1212
44.5787
46.993
43.9261
41.8368
40.9574
53.7588
53.9769
54.5971
51.2673
53.1629
42.0027
42.3795
45.7182
58.9844
57.1393
56.3161
60.7647
60.093
42.3453
44.2856
43.6506
46.6382
46.5225
44.3283
48.6776
48.1891
42.5681
46.0321
43.6774
43.8905
45.914
41.9295
42.6557
54.0345
54.8587
51.8626
51.8655
51.1719
51.004
48.7691
49.2499
48.9514
50.8245
50.6338
50.9815
45.9217
46.8808
51.547
53.048
56.2058
54.8415
55.379
55.7867
54.3817
40.8954
41.838
41.5996
44.4743
44.2277
42.2207
39.875
39.6638
41.3409
41.0759
45.6352
47.0702
46.8001
48.6767
48.4098
47.5408
43.0525
44.9743
44.7225
46.5316
46.2655
44.5927
39.3297
39.7591
42.4902
41.7047
38.7624
39.1878
42.5467
42.995
44.1358
38.328
38.1552
39.4651
39.2665
37.1936
37.9873
37.8246
43.4847
41.8852
42.3947
46.9753
47.0596
44.192
44.5553
46.763
47.0871
47.2444
52.0021
46.6401
46.9444
37.7082
37.3297
33.9957
35.0145
38.1515
37.8228
32.6434
32.7105
33.5793
33.2737
32.518
32.5783
50.0691
32.2422
31.9967
32.1799
102.842
33.8261
40.3444
53.7791
50.6804
32.6145
32.6235
32.038
56.8311
58.1166
57.9682
51.5738
31.9517
32.5977
32.6035
43.3584
38.9177
38.993
48.78
49.4639
45.1875
44.3158
41.4115
55.0789
55.5631
57.0878
43.0896
47.7567
46.4054
48.1938
48.1695
43.8613
43.5768
44.1525
52.0891
53.7553
53.9818
53.2529
53.5171
56.7795
56.2266
56.4124
55.8442
56.0371
56.5444
49.3602
48.8765
49.0808
48.6173
48.7116
49.1448
57.5345
56.8688
56.9186
56.5915
56.7513
57.3832
50.2482
49.7703
50.0145
49.3035
49.5337
50.0589
52.7691
52.9916
52.3155
52.5173
34.9136
36.2662
36.1561
33.7793
34.2005
34.1017
34.4303
34.3079
33.8129
51.0448
51.06
48.7534
50.4438
33.0187
33.0226
33.0208
33.0187
33.0897
32.6773
32.5643
32.5778
33.6038
33.8281
33.7401
34.0086
33.9178
33.6577
33.0363
33.0247
33.0684
33.0725
33.4097
50.4194
50.2525
46.0569
50.8924
32.9771
32.1809
41.7171
31.7658
32.2252
32.1537
32.4458
66.2143
65.6413
64.1951
65.0555
61.3169
32.661
32.6829
32.2837
32.2675
57.7033
58.8502
57.526
56.6835
55.6171
53.0146
58.0992
56.7483
46.8825
46.8448
49.6359
45.627
47.1278
50.0478
48.5826
54.2615
49.7044
51.5698
56.6155
57.2338
53.3182
55.86
58.2399
47.2865
48.1322
47.7447
49.9938
53.1319
53.3596
51.7109
44.6307
50.7329
48.702
53.3903
52.7401
45.8309
47.7943
49.3211
54.5158
50.532
45.2496
46.4235
58.9647
57.8343
59.4896
56.771
58.4097
59.3308
59.7418
59.3651
54.8
54.5595
54.7853
54.184
54.3397
54.6155
55.8252
55.4344
55.6432
55.0051
55.2217
55.5724
47.2722
48.4906
48.5817
48.1369
48.3038
46.975
47.8528
47.7352
47.4436
48.6981
48.9873
48.3059
48.6567
48.6105
48.6574
48.6877
48.0604
46.1985
45.1693
42.5738
47.004
47.2015
47.0496
43.7407
46.673
46.6529
43.4493
43.5428
45.23
53.6565
52.3144
49.9529
49.5837
49.1227
50.6633
50.4328
50.2163
56.4613
56.388
53.7714
57.6559
57.9439
54.3718
56.1506
56.3954
57.6364
56.819
56.7768
56.8806
56.8478
57.5637
58.5597
58.6411
58.2256
59.8164
59.8217
59.5363
59.7141
58.1103
58.9733
59.8308
60.1292
59.0092
43.3403
42.7739
41.201
41.9624
43.978
43.7027
40.3285
40.0971
40.8184
40.5692
47.6055
47.3377
45.9919
47.1385
48.143
47.8746
45.4883
45.2305
43.3506
44.2684
46.003
45.745
51.2365
50.7758
51.0399
50.262
50.5152
50.9639
52.1651
51.8234
52.0443
51.3088
51.5748
51.9388
38.0496
36.7991
36.9363
36.5291
36.6641
37.9109
38.6553
37.3808
37.5387
37.0781
37.2259
38.4915
36.9717
35.7653
35.8814
35.5419
35.6529
36.8463
37.5004
36.26
36.3942
36.0023
36.1287
37.3645
38.689
38.5059
41.821
40.329
40.5035
39.9837
40.1557
41.657
39.0693
38.8767
37.3705
37.2505
40.0413
38.5522
38.9951
37.6948
37.8489
39.4963
41.1576
39.6409
39.8125
39.2663
39.4645
40.9768
37.6673
37.5155
46.239
46.7056
46.8212
44.9854
45.5513
45.7232
47.4831
47.3685
47.679
47.6064
45.9998
45.2984
46.0959
45.6087
47.1164
46.7108
45.2788
34.5469
35.8062
35.6564
36.0455
35.9309
34.6425
34.0834
34.001
34.3804
34.3123
33.8298
33.9898
33.9361
34.828
34.5896
35.4525
35.1511
34.1337
35.4053
35.1323
35.0617
35.3062
36.4704
35.3233
35.4317
35.1232
35.2197
36.3276
34.7013
34.6163
35.0472
34.9614
47.5354
43.1105
43.7206
42.1078
42.5703
46.9944
46.6329
47.1673
44.4447
45.4585
47.3642
52.0484
45.9064
47.1506
43.6764
44.7753
51.3837
32.9748
32.9378
33.0183
33.0034
32.4525
32.4686
33.1317
32.8267
32.8443
32.898
32.8595
33.3777
33.4906
33.4132
33.6543
33.5711
33.433
33.2168
33.2059
33.1393
33.3397
33.2708
33.2428
50.1093
32.08
31.9911
31.8492
59.5013
77.4334
78.672
71.4857
73.6661
61.3339
32.9066
59.4253
51.4156
53.0308
32.0875
32.6267
32.6397
56.7335
59.2752
59.7053
54.7528
57.0231
62.0905
59.6418
49.8421
57.3326
55.1523
32.9037
32.6519
32.0069
36.672
36.6918
36.8033
36.7005
36.7343
36.8245
36.7483
36.7984
36.8574
36.8169
36.8743
36.8983
36.8918
36.9341
36.9341
36.9431
36.9538
36.9482
36.9516
36.9288
36.9339
36.9163
36.8682
36.9001
36.8506
36.7976
36.8618
36.7814
36.7383
36.8301
36.5232
36.5659
36.6574
36.5844
36.6567
36.7092
36.6864
36.7849
36.7869
36.8175
36.9087
36.8761
36.9352
36.9963
36.9418
37.0091
37.0224
36.9631
37.0184
36.9829
36.9355
36.9643
36.8923
36.8675
36.8644
36.7733
36.784
36.742
36.6553
36.7128
36.3964
36.4812
36.5402
36.5182
36.652
36.6487
36.6999
36.8503
36.7933
36.9014
37.0482
36.9311
37.0918
37.1918
37.0287
37.2117
37.2247
37.0565
37.2143
37.1471
37.0109
37.1152
36.9999
36.9099
36.956
36.8192
36.7791
36.7738
36.6414
36.6444
36.3023
36.4484
36.4673
36.508
36.7034
36.6599
36.7764
37.0206
36.8819
37.1093
37.3871
37.1089
37.4775
37.6934
37.2771
37.7328
37.7262
37.3114
37.6878
37.5183
37.2149
37.4513
37.2355
37.0443
37.1628
36.9492
36.843
36.8807
36.6874
36.6478
36.245
36.4586
36.4483
36.5383
36.8199
36.7267
36.9309
37.3341
37.0836
37.4988
38.1254
37.5222
38.3844
39.1487
37.9163
39.2237
39.0348
37.9412
38.8539
38.2839
37.6633
38.1132
37.6673
37.3227
37.5363
37.1837
36.9973
37.0779
36.7924
36.7079
36.2157
36.4906
36.4649
36.5964
36.984
36.8577
37.1435
37.7724
37.4359
38.0609
39.6653
38.4126
39.1778
39.8845
38.9267
40.6882
40.6601
39.5598
40.0014
39.5597
39.0758
39.2751
38.3402
37.8132
38.1047
37.5286
37.2599
37.3684
36.9563
36.8281
36.2013
36.5362
36.5011
36.6688
37.1579
37.0283
37.3611
38.1788
37.8841
38.3361
38.7694
38.6003
40.6865
41.3583
41.0355
43.6948
42.0733
41.0172
40.7988
39.1959
38.5426
38.8226
37.961
37.6306
37.7331
37.1675
37.0057
36.1934
36.5857
36.5485
36.7426
37.314
37.1989
37.5485
38.4794
38.2624
38.7514
39.27
39.1665
41.9681
42.902
42.7835
47.4441
44.7799
43.8388
42.2271
40.0637
39.4187
39.5619
38.4201
38.0758
38.1237
37.4004
37.2249
36.1891
36.6359
36.5981
36.8145
37.4556
37.3502
37.715
38.7347
38.5447
39.0631
39.6366
39.5491
42.2135
43.0098
43.0847
49.6677
46.592
46.039
43.3298
40.8132
40.2649
40.2162
38.8478
38.5315
38.4923
37.6281
37.4587
36.1889
36.6883
36.6487
36.8872
37.5964
37.4903
37.8811
38.9948
38.7982
39.355
39.9502
39.8781
41.9416
42.2696
42.4456
50.6453
47.5107
47.2446
44.0892
41.3931
40.9754
40.7351
39.2065
38.9451
38.8059
37.8288
37.6814
36.1924
36.7445
36.702
36.9632
37.7461
37.6328
38.0607
39.2756
39.0632
39.6464
40.3189
40.1457
41.4167
41.1159
41.3662
50.8911
48.5611
48.4568
44.5546
41.794
41.5101
41.1038
39.4764
39.2827
39.0455
37.9872
37.8727
36.2147
36.8263
36.7591
37.0672
37.94
37.7852
38.2936
39.6195
39.3484
39.9297
40.5745
40.4938
40.6728
39.4198
39.796
43.3959
50.7424
49.8098
50.4361
45.9695
45.8487
44.7792
42.0276
41.8674
41.326
39.6527
39.5291
39.2049
38.0949
38.0188
36.2154
36.8823
36.8423
37.1427
38.0932
37.981
38.4792
39.868
39.6905
40.246
40.6783
40.7189
38.9047
35.4931
36.4602
49.2776
53.533
53.9418
49.9891
45.8809
45.9804
44.756
42.1017
42.0622
41.4111
39.7392
39.6829
39.2868
38.1517
38.1136
36.202
36.9169
36.8936
37.1981
38.2136
38.1271
38.6203
39.9402
39.9089
40.2261
36.0937
38.5384
29.4624
42.5315
42.996
48.5799
50.2461
51.1509
49.1021
45.5628
45.8255
44.5446
42.0493
42.0974
41.38
39.7406
39.7457
39.2916
38.1526
38.1561
36.1703
36.9196
36.9208
37.2147
38.2676
38.2364
38.6695
39.7231
39.9104
39.7503
32.7907
35.2495
25.4914
41.5216
42.302
46.9936
49.0356
49.9382
48.1142
45.0552
45.4457
44.1454
41.8672
42.0186
41.2406
39.671
39.7317
39.2325
38.1029
38.1457
36.1183
36.8879
36.9148
37.1891
38.2305
38.2661
38.5997
39.3074
39.6344
39.0349
29.812
32.0098
22.5246
40.4088
41.2461
45.5119
47.9065
48.745
47.1727
44.5061
44.9187
43.6852
41.591
41.8037
41.0053
39.5166
39.6387
39.0943
37.9925
38.0801
36.0473
36.8257
36.875
37.1266
38.1224
38.2094
38.4434
38.76
39.1813
38.1601
27.2451
29.1312
20.3711
39.31
40.1307
44.1455
46.8631
47.638
46.2974
43.9691
44.3698
43.2222
41.2822
41.5155
40.7317
39.3168
39.4697
38.911
37.8434
37.9581
35.9599
36.7383
36.806
37.034
37.9606
38.0864
38.2247
38.1184
38.6071
37.2007
25.0768
26.6672
18.8064
38.2595
39.0422
42.885
45.8965
46.6146
45.4799
43.4594
43.8389
42.7762
40.9672
41.2034
40.4467
39.096
39.2629
38.7053
37.6717
37.8021
35.8592
36.6305
36.7131
36.917
37.7581
37.9134
37.9597
37.4195
37.9475
36.2204
23.2585
24.5915
17.6561
37.2655
38.0056
41.7177
44.9973
45.6658
44.7122
42.9775
43.3365
42.3522
40.6574
40.889
40.1627
38.8675
39.0393
38.4902
37.4879
37.6266
35.7479
36.5062
36.6009
36.7803
37.5237
37.7022
37.6584
36.6984
37.2403
35.2517
21.7352
22.852
16.797
36.3268
37.0257
40.6319
44.1558
44.7818
43.9883
42.5175
42.8607
41.9479
40.3575
40.5814
39.8853
38.6383
38.8101
38.2726
37.2982
37.4409
35.6282
36.3683
36.4729
36.6273
37.2631
37.4608
37.3274
35.9753
36.5173
34.314
20.4569
21.3945
16.1442
35.44
36.1004
39.6178
43.3638
43.9534
43.3026
42.0747
42.4054
41.5586
40.0684
40.2843
39.6167
38.412
38.5814
38.0564
37.1066
37.2504
35.5018
36.219
36.332
36.4605
36.9802
37.1943
36.9733
35.2623
35.7958
33.4194
19.3804
20.1703
15.6392
34.601
35.2259
38.6671
42.6143
43.1727
42.6502
41.6467
41.9664
41.1814
39.7886
39.9977
39.3564
38.1905
38.3562
37.8439
36.9156
37.0588
35.37
36.0598
36.1801
36.2814
36.6794
36.9065
36.6044
34.5674
35.0866
32.5746
18.4705
19.1385
15.2419
33.8062
34.3983
37.7726
41.9018
42.4329
42.0268
41.2317
41.5417
40.8145
39.5162
39.7198
39.1032
37.9742
38.1359
37.6358
36.7268
36.8682
35.2338
35.8914
36.0186
36.091
36.3659
36.602
36.2268
33.8961
34.3972
31.782
17.6984
18.2655
14.9242
33.0522
33.614
36.9288
41.2218
41.7289
41.4288
40.8284
41.1298
40.4567
39.2497
39.449
38.8557
37.7629
37.9209
37.4323
36.5408
36.68
35.0938
35.7146
35.848
35.8906
36.0445
36.2862
35.8452
33.2518
33.7325
31.0415
17.041
17.5241
14.6666
32.3365
32.8698
36.1308
40.5709
41.0565
40.8535
40.4356
40.7293
40.1073
38.9885
39.184
38.6131
37.5561
37.7108
37.2331
36.3581
36.4949
34.9504
35.5302
35.6692
35.6816
35.7183
35.9633
35.4624
32.6359
33.0951
30.3513
16.4796
16.8923
14.4551
31.6565
32.1632
35.3746
39.946
40.4123
40.2986
40.0522
40.3389
39.7653
38.7316
38.9239
38.3747
37.3534
37.5051
37.0378
36.1787
36.313
34.8036
35.3393
35.4831
35.4658
35.3897
35.6363
35.0809
32.0488
32.4864
29.7082
15.9991
16.3523
14.2801
31.0103
31.4919
34.6569
39.3449
39.7935
39.7622
39.6773
39.9577
39.4299
38.4788
38.6681
38.1399
37.1542
37.3033
36.8461
36.0024
36.1343
34.6538
35.143
35.2907
35.2448
35.0606
35.3074
34.7022
31.4901
31.9065
29.1088
15.5873
15.89
14.1346
30.3961
30.8538
33.975
38.7656
39.1981
39.2428
39.3102
39.5849
39.1006
38.2295
38.4162
37.9084
36.9581
37.1049
36.6576
35.8291
35.9588
34.5011
34.9424
35.0932
35.0198
34.7321
34.9784
34.3276
30.9586
31.3547
28.5494
15.2341
15.4937
14.0135
29.8122
30.2473
33.3264
38.2067
38.624
38.7392
38.9502
39.2196
38.7768
37.9834
38.1677
37.6798
36.7648
36.9095
36.4718
35.6586
35.7863
34.3458
34.7385
34.8918
34.792
34.4055
34.6503
33.9579
30.4531
30.8299
28.0261
14.9316
15.154
13.9133
29.2574
29.6709
32.7092
37.6669
38.07
38.2505
38.5968
38.8612
38.4582
37.7401
37.9223
37.4538
36.5739
36.7168
36.2886
35.4907
35.6164
34.1883
34.5321
34.6872
34.5623
34.0814
34.3242
33.5938
29.9717
30.3306
27.5354
14.6728
14.8629
13.8315
28.7304
29.1231
32.1217
37.1453
37.5349
37.776
38.2497
38.5095
38.1445
37.4996
37.6798
37.2302
36.3853
36.5266
36.1077
35.3252
35.4491
34.0289
34.3238
34.4802
34.3312
33.7604
34.0008
33.2357
29.5128
29.8549
27.0737
14.452
14.6141
13.7661
28.2302
28.6029
31.5624
36.6409
37.0176
37.3149
37.9087
38.1639
37.8354
37.2615
37.4398
37.0088
36.1988
36.3385
35.9289
35.1619
35.2842
33.8678
34.1142
34.2715
34.0995
33.4429
33.6807
32.8837
29.0743
29.4013
26.6378
14.2647
14.4021
13.716
27.7559
28.1093
31.0301
36.1532
36.5175
36.8669
37.5736
37.8244
37.5308
37.0257
37.2023
36.7894
36.0141
36.1525
35.752
35.0007
35.1214
33.7055
33.9037
34.0616
33.8675
33.1291
33.3641
32.5381
28.6546
28.9677
26.2246
14.1066
14.2225
13.6801
27.3066
27.6413
30.5237
35.6817
36.0339
36.4317
37.2442
37.4907
37.2307
36.7923
36.9672
36.5721
35.8312
35.9683
35.577
34.8415
34.9607
33.5521
33.7043
33.8511
33.6477
32.8315
33.0514
32.2103
28.2591
28.5524
25.8366
13.9748
14.0712
13.6581
26.8866
27.1981
30.0498
35.2381
35.5663
36.0219
36.9343
37.1628
36.9485
36.5739
36.7344
36.3691
35.6614
35.7859
35.4147
34.6948
34.8021
42.6546
42.5109
41.6223
46.0418
47.4833
48.5837
42.7489
43.4349
43.0353
43.1054
43.1482
42.225
49.604
51.6067
51.9823
48.9153
49.7982
47.6122
42.501
42.6569
42.0838
51.2428
52.7594
52.8114
52.088
52.3531
50.4061
41.4454
41.6717
41.6377
51.8192
52.763
52.7821
52.5445
52.6024
51.5356
39.9153
40.2553
41.0294
40.2895
39.3807
39.4365
44.4914
44.0872
41.5033
51.9118
53.7883
53.8937
52.7963
52.8097
51.8913
36.7219
37.3641
39.8544
44.0577
38.5697
38.7712
40.1153
39.2182
40.409
51.7072
51.5011
46.6941
51.6778
53.9705
53.8713
53.9221
53.9711
51.7075
41.8241
40.2648
39.402
52.3114
49.821
55.5372
39.1606
40.1236
40.5972
53.2571
53.1517
41.4241
41.6531
42.1631
39.4774
40.5622
40.232
50.4153
51.4045
52.0289
44.9036
46.08
45.1899
43.5026
42.4337
44.2363
41.1075
41.8916
42.4671
40.7395
41.3092
40.6273
39.459
39.3664
38.8343
41.4597
39.8836
40.0513
39.6431
39.8264
41.3819
54.0813
53.5301
53.2792
56.0673
55.9724
55.4856
45.8216
45.0627
47.8034
42.8966
44.0323
44.4794
43.0224
43.5464
42.4852
39.8017
39.7211
39.1368
41.6498
40.289
40.3959
40.1038
40.2468
41.6515
42.8768
42.9803
42.2001
43.6016
43.6023
43.4953
44.157
44.0735
44.2865
51.8147
50.2829
50.3336
50.56
50.4352
51.9746
47.1338
46.7491
49.8456
44.2447
45.575
45.8609
44.8853
45.2507
43.9525
40.0836
40.0185
39.4273
41.4994
40.5271
40.5868
40.4268
40.5037
41.5277
42.0163
42.2082
41.8866
40.395
41.52
41.3689
42.377
42.2367
41.7035
52.1719
50.2248
50.3802
48.0269
48.4738
51.7937
40.4652
40.3641
39.717
41.2019
40.6521
40.7036
40.6058
40.6362
41.2469
40.7572
41.0285
41.3386
36.1719
38.6415
38.6115
39.837
39.6506
37.4467
39.9714
40.0652
41.3791
53.1965
48.5039
49.35
51.7068
51.8456
52.9943
40.7005
40.6012
40.0171
40.7278
40.7809
40.824
40.7198
40.7661
40.796
38.8811
39.2881
40.6195
31.9671
32.5329
32.4463
34.3894
34.2763
33.1049
27.9935
30.8504
37.7005
45.1616
41.314
36.8467
38.7239
38.7621
44.5488
45.89
47.7009
46.905
48.1742
48.3597
46.7647
42.9596
43.4316
42.9014
46.4948
46.0817
45.0338
55.3863
56.2004
56.1467
52.5914
53.0911
51.7801
45.7926
47.0835
45.4615
50.7007
49.3152
48.7068
52.0917
51.7127
53.8945
44.8793
43.5735
43.4825
43.7146
43.6026
44.9874
42.217
43.1472
42.9939
45.6266
45.7117
46.1331
43.7263
44.1666
44.8162
46.653
47.7665
48.0831
46.2673
46.6635
46.0644
52.2259
50.8478
50.6997
53.0361
52.8162
53.6168
50.9447
51.4614
49.0499
54.0436
53.9355
53.8321
54.199
54.1976
53.3721
54.8253
52.7358
52.4321
53.7895
53.664
54.6545
47.8034
50.0592
50.7484
42.2628
42.6464
42.5134
43.384
43.269
43.1233
42.1218
42.7052
42.8374
42.822
42.3175
42.4568
40.5006
40.6318
41.3619
44.2225
43.1427
43.5812
42.6037
42.7566
43.1635
51.6114
47.4583
47.8866
50.3757
50.4135
51.9241
52.6384
52.7367
51.116
53.2302
54.0533
54.0795
53.4429
53.4474
53.2199
53.0191
54.1878
54.1954
54.1059
54.1316
52.9022
50.6193
52.424
52.5961
38.3198
40.2007
40.02
41.2148
41.058
39.5778
41.7044
41.7436
41.9502
38.92
37.7605
37.8855
35.3386
35.4509
36.8477
41.0065
40.2267
40.367
38.0109
38.1367
39.2963
52.7789
51.4221
51.5653
50.5417
50.6889
52.4106
33.4138
34.6482
34.5105
38.5377
38.2551
35.1229
41.0751
40.362
40.6626
34.0448
33.0664
33.1587
36.4868
35.1245
35.2309
33.2624
33.3873
34.4513
53.4463
50.6541
51.3655
49.6246
50.4051
53.6117
40.1406
39.9666
39.942
44.2762
31.8562
31.8334
32.3679
32.2951
31.8031
40.0999
38.0228
38.7438
40.3269
40.6089
43.0401
62.906
61.8553
67.2657
41.971
39.8193
40.0591
39.0514
38.9201
38.4565
40.6276
39.3478
39.5772
38.9784
39.2621
40.4696
41.9232
41.6583
40.92
43.6187
42.2855
42.7492
41.7374
42.1184
43.2739
50.8406
53.2666
51.0288
43.0013
42.9783
42.0662
45.6401
43.7909
43.7398
43.6336
43.787
45.7114
48.3276
47.5847
50.7109
45.1432
46.5207
46.6889
46.1115
46.3308
44.9555
45.144
40.8599
41.4711
43.064
43.3356
45.3778
51.6408
51.0143
43.7953
53.8346
52.7833
52.9718
51.5741
52.5776
53.7559
45.4591
43.3166