/*--------------------------------*- C++ -*----------------------------------*\
| =========                 |                                                 |
| \\      /  F ield         | OpenFOAM: The Open Source CFD Toolbox           |
|  \\    /   O peration     | Version:  v1912                                 |
|   \\  /    A nd           | Website:  www.openfoam.com                      |
|    \\/     M anipulation  |                                                 |
\*---------------------------------------------------------------------------*/
FoamFile
{
    version     2.0;
    format      ascii;
    class       volScalarField;
    location    "400";
    object      nut;
}
// * * * * * * * * * * * * * * * * * * * * * * * * * * * * * * * * * * * * * //

dimensions      [0 2 -1 0 0 0 0];


internalField   nonuniform List<scalar> 
12556
(
1.15562
1.15558
1.15553
1.15552
1.15589
1.15591
1.15593
1.15596
1.15603
1.15615
1.15632
1.15651
1.15665
1.15667
1.15655
1.15637
1.1562
1.15608
1.15599
1.15595
1.15555
1.15554
1.15558
1.15562
1.15486
1.15476
1.15466
1.15463
1.15492
1.15501
1.1551
1.15537
1.15557
1.15591
1.15641
1.15697
1.15739
1.15746
1.15717
1.15666
1.15615
1.15575
1.15533
1.15513
1.15473
1.1547
1.15478
1.15487
1.15407
1.15391
1.15377
1.15375
1.15399
1.15414
1.15435
1.15469
1.15519
1.15602
1.15718
1.13605
1.04038
1.03699
1.11596
1.15769
1.15654
1.15561
1.15487
1.15443
1.15396
1.15388
1.15397
1.15411
1.15326
1.15305
1.15288
1.15287
1.15309
1.15333
1.15371
1.15426
1.15532
1.15704
0.966545
0.785104
0.709145
0.719883
0.801398
0.952647
1.15784
1.15606
1.15476
1.15391
1.15326
1.15309
1.15317
1.15335
1.15244
1.15218
1.152
1.15201
1.15225
1.15261
1.15326
1.1542
1.15623
0.940068
0.660525
0.49277
0.422461
0.442987
0.531236
0.67337
0.886443
1.15744
1.15517
1.15367
1.15267
1.15234
1.15237
1.15257
1.15162
1.15132
1.15113
1.15118
1.15146
1.152
1.15306
1.15465
1.10079
0.717599
0.451595
0.27978
0.20928
0.240864
0.33521
0.473261
0.665777
0.951087
1.15622
1.15375
1.15219
1.15164
1.15158
1.15177
1.1508
1.15047
1.15029
1.1504
1.15075
1.15154
1.15314
1.15561
0.954982
0.592661
0.332774
0.142947
0.0746191
0.114871
0.212502
0.34364
0.520268
0.773587
1.15723
1.15422
1.15185
1.15098
1.15078
1.15095
1.15
1.14966
1.14949
1.14968
1.15013
1.15122
1.15349
1.1569
0.894994
0.571479
0.331298
0.126037
0.0627028
0.155054
0.273033
0.434052
0.661732
1.03169
1.15503
1.15166
1.15039
1.15001
1.15014
1.14925
1.14889
1.14875
1.14903
1.14961
1.15107
1.15407
1.15833
0.903408
0.638287
0.480859
0.374062
0.0709627
0.145634
0.247875
0.393764
0.600364
0.950125
1.1561
1.15163
1.1499
1.14931
1.14937
1.14855
1.14819
1.14809
1.14848
1.14921
1.15106
1.1548
1.15977
0.940749
0.728455
0.666333
0.709497
0.0962294
0.160444
0.253053
0.387885
0.578992
0.909166
1.15733
1.15177
1.14954
1.14871
1.1487
1.14792
1.14756
1.14751
1.14803
1.14893
1.1512
1.15565
1.1612
0.974124
0.78338
0.747055
0.607883
0.13002
0.189946
0.2793
0.408517
0.589513
0.903166
1.15863
1.15207
1.14934
1.14827
1.14818
1.14737
1.147
1.14702
1.14767
1.14876
1.15146
1.15656
1.16264
0.99348
0.789375
0.707143
0.500812
0.165519
0.232567
0.325158
0.453767
0.629089
0.928016
1.15992
1.1525
1.1493
1.148
1.14783
1.14688
1.14653
1.14661
1.14742
1.14868
1.15182
1.15753
1.16405
1.0122
0.778336
0.623438
0.4209
0.0425293
0.212697
0.297209
0.398212
0.527882
0.699536
0.983148
1.16113
1.15301
1.1494
1.14789
1.14765
1.14646
1.14611
1.14626
1.14721
1.14873
1.15234
1.15863
1.16551
1.05471
0.798826
0.583402
0.218209
0.0981293
0.314732
0.412495
0.515152
0.640384
0.805833
1.07163
1.1622
1.15354
1.14959
1.14791
1.14761
1.14609
1.14575
1.14595
1.14703
1.14876
1.15274
1.15952
1.16664
1.16425
0.902005
0.677384
0.0427273
0.147926
0.505465
0.628065
0.701046
0.804629
0.954863
1.16717
1.16306
1.15403
1.14982
1.14801
1.14767
1.14575
1.14541
1.14566
1.14687
1.14879
1.15311
1.16026
1.16749
1.16699
1.11095
0.76001
0.0325848
0.164675
0.522471
0.815632
0.983519
1.03424
1.15558
1.16801
1.16367
1.15443
1.15005
1.14814
1.14778
1.14544
1.1451
1.14538
1.14669
1.14879
1.15339
1.16082
1.16799
1.1662
1.10961
0.632838
0.0294302
0.178257
0.534132
0.824313
1.0176
1.11569
1.15682
1.16839
1.164
1.15471
1.15023
1.14827
1.14789
1.14514
1.14479
1.14509
1.14648
1.14874
1.15357
1.16118
1.16814
1.16438
1.08673
0.522255
0.0284654
0.189562
0.540776
0.830134
1.01997
1.11663
1.15724
1.16837
1.16405
1.15484
1.15034
1.14835
1.14798
1.14484
1.14448
1.14479
1.14624
1.14863
1.15364
1.16135
1.16795
1.1615
1.05815
0.439894
0.0285449
0.199113
0.543285
0.833919
1.02109
1.11674
1.15709
1.16804
1.16389
1.15485
1.15038
1.14838
1.14801
1.14455
1.14417
1.14447
1.14596
1.14846
1.1536
1.16133
1.16747
1.15752
1.02512
0.384666
0.0292322
0.207289
0.544092
0.8357
1.02135
1.1163
1.15653
1.16747
1.16355
1.15475
1.15034
1.14836
1.14798
1.14424
1.14386
1.14415
1.14566
1.14823
1.15347
1.16117
1.16672
1.15241
0.988148
0.347785
0.0303149
0.214366
0.544404
0.83506
1.02089
1.11547
1.1557
1.16673
1.16309
1.15458
1.15024
1.14828
1.1479
1.14393
1.14354
1.14383
1.14535
1.14796
1.15327
1.16087
1.16572
1.14616
0.946468
0.321417
0.0316724
0.220553
0.544436
0.832359
1.01965
1.11433
1.15467
1.16589
1.16255
1.15436
1.1501
1.14815
1.14777
1.14361
1.14323
1.14351
1.14504
1.14768
1.15302
1.16048
1.16448
1.13864
0.901922
0.301806
0.033229
0.226012
0.544213
0.828566
1.01747
1.1129
1.1535
1.16499
1.16196
1.15409
1.14992
1.14798
1.14758
1.14328
1.14291
1.1432
1.14473
1.14739
1.15274
1.16001
1.163
1.12944
0.860037
0.286914
0.0349347
0.23087
0.543759
0.824365
1.0144
1.11114
1.1522
1.16404
1.16134
1.1538
1.14971
1.14778
1.14736
1.14294
1.14259
1.14289
1.14444
1.14711
1.15245
1.15947
1.16122
1.11804
0.823797
0.275467
0.036755
0.235232
0.543114
0.820052
1.01066
1.10904
1.15078
1.16306
1.16071
1.15349
1.14947
1.14755
1.14711
1.1426
1.14227
1.14258
1.14415
1.14684
1.15216
1.15888
1.15906
1.1044
0.793017
0.266604
0.0386665
0.239182
0.542317
0.815732
1.00651
1.10664
1.14924
1.16207
1.16008
1.15316
1.14922
1.14729
1.14682
1.14225
1.14195
1.14228
1.14387
1.14658
1.15187
1.1582
1.15642
1.08913
0.766696
0.259719
0.0406536
0.242791
0.541412
0.81145
1.00212
1.10398
1.14761
1.16107
1.15944
1.15283
1.14895
1.14702
1.14652
1.1419
1.14163
1.14198
1.1436
1.14632
1.15157
1.15743
1.1532
1.07304
0.743938
0.254373
0.042706
0.246118
0.540436
0.807229
0.997614
1.10114
1.1459
1.16005
1.15881
1.15249
1.14867
1.14674
1.14621
1.14155
1.14131
1.14168
1.14333
1.14607
1.15126
1.15654
1.14935
1.05683
0.724066
0.250236
0.0448178
0.249213
0.539424
0.803087
0.993059
1.09814
1.14411
1.15903
1.15818
1.15215
1.14839
1.14645
1.14588
1.1412
1.14099
1.14139
1.14307
1.14583
1.15093
1.1555
1.1449
1.04092
0.706564
0.247057
0.0469865
0.25212
0.538405
0.799041
0.988507
1.09504
1.14228
1.15801
1.15756
1.15181
1.1481
1.14615
1.14555
1.14085
1.14067
1.1411
1.14281
1.14558
1.15058
1.15429
1.1399
1.02554
0.691032
0.244638
0.049212
0.254876
0.537407
0.795105
0.983991
1.09187
1.1404
1.15698
1.15694
1.15147
1.14782
1.14585
1.14522
1.1405
1.14035
1.14081
1.14256
1.14534
1.1502
1.15289
1.13442
1.01081
0.677151
0.242824
0.0514963
0.257516
0.536453
0.791294
0.979538
1.08865
1.13848
1.15595
1.15632
1.15112
1.14753
1.14555
1.14489
1.14015
1.14003
1.14053
1.14231
1.14509
1.14978
1.15129
1.12856
0.996754
0.66466
0.241488
0.0538433
0.26007
0.535564
0.787622
0.975167
1.0854
1.13653
1.15491
1.15571
1.15078
1.14724
1.14525
1.14455
1.13981
1.13972
1.14025
1.14207
1.14485
1.14933
1.14948
1.12241
0.983365
0.653345
0.240527
0.0562577
0.262565
0.534759
0.784102
0.970895
1.08216
1.13457
1.15387
1.15511
1.15045
1.14695
1.14494
1.14422
1.13948
1.13943
1.14
1.14184
1.1446
1.14882
1.14747
1.11603
0.970614
0.643022
0.239853
0.0587458
0.265026
0.534057
0.780746
0.966737
1.07892
1.13258
1.15283
1.15451
1.15012
1.14668
1.14466
1.14391
1.13919
1.13917
1.13977
1.14165
1.14437
1.14828
1.14528
1.10949
0.958462
0.633538
0.239393
0.0613149
0.26748
0.533473
0.777568
0.962709
1.07572
1.1306
1.15181
1.15393
1.14985
1.14646
1.14442
1.14364
0.31511
0.0627058
0.0537206
0.720961
0.0873457
0.065609
0.621041
0.122089
0.0913624
0.514352
0.153684
0.127592
0.428077
0.0326565
0.039966
0.189943
0.157673
0.26325
0.0647906
0.034116
0.0933305
0.254165
0.192618
0.121102
0.0766141
0.0557527
0.107851
0.0327818
0.023234
0.068604
0.123282
0.130679
0.625554
0.809091
0.388433
0.0412825
0.053109
0.0925103
0.136964
0.124817
0.740898
0.73117
0.807231
0.672758
0.205356
0.245437
0.0608926
0.0469153
0.12568
0.165177
0.142967
0.72151
0.632121
0.719408
0.568051
0.114501
0.16143
0.0980972
0.0774666
0.641091
0.529563
0.618976
0.478896
0.0581507
0.0820733
0.0183298
0.138474
0.131451
0.582419
0.356926
0.515968
0.370214
0.0254683
0.0373674
0.0832683
0.0861918
0.0682917
0.0968084
0.288823
0.0438908
0.0858074
0.0516672
0.0343192
0.0557094
0.0357311
0.0506083
0.251287
0.296718
0.731803
0.217581
0.189757
0.278463
0.223749
0.0465127
0.0412686
0.0769156
0.0533798
0.0586067
0.0518247
0.0533991
0.075399
0.165842
0.199704
0.660016
0.145496
0.116599
0.187072
0.14826
0.0749252
0.062355
0.109056
0.0817213
0.0988259
0.0591607
0.0797568
0.104389
0.0833884
0.112637
0.55469
0.086927
0.0614148
0.114961
0.0881907
0.12735
0.101426
0.0378003
0.0568577
0.474927
0.0164035
0.0401683
0.026909
0.0606488
0.0409514
0.01587
0.143454
0.14033
0.0191089
0.00517803
0.0253646
0.362963
0.0492705
0.0186543
0.00910622
0.0267901
0.0190216
0.0469445
0.433088
0.334298
0.148604
0.169788
0.0966116
0.0524121
0.012654
0.0105392
0.62427
0.304271
0.366789
0.0140159
0.15875
0.202135
0.173704
0.0136692
0.0510887
0.0460354
0.061686
0.157688
0.146144
0.291848
0.108784
0.195356
0.0410879
0.0162618
0.0287642
0.0266162
0.0340567
0.0543106
0.043953
0.0304517
0.142335
0.127466
0.13628
0.101622
0.123903
0.139132
0.0225941
0.0146872
0.0379331
0.0295811
0.0528498
0.042492
0.0235073
0.037521
0.0282201
0.0108942
0.0266121
0.0219735
0.0123716
0.0197493
0.0250644
0.0496952
0.0503212
0.053132
0.052272
0.0197613
0.0146369
0.0887871
0.0188721
0.0262104
0.0139909
0.0179196
0.0858751
0.0725587
0.242426
0.225323
0.0638842
0.0541401
0.0143517
0.0345857
0.157144
0.142855
0.177816
0.16237
0.0352181
0.0525661
0.0421234
0.146917
0.0649859
0.0767336
0.0411569
0.0641456
0.168769
0.0538999
0.0303197
0.0189522
0.0687832
0.0336453
0.0598368
0.0318231
0.0630729
0.0429329
0.0422076
0.20902
0.0284967
0.207705
0.251895
0.0333838
0.0398693
0.028931
0.0326726
0.244197
0.0445626
0.044325
0.0555659
0.072602
0.068001
0.0792057
0.0744166
0.0558533
0.060853
0.0606343
0.0556015
0.0662853
0.0619708
0.0600951
0.13048
0.128622
0.169336
0.166982
0.0736922
0.0139062
0.072209
0.0779211
0.0757829
0.0996063
0.0978535
0.027441
0.0386365
0.111933
0.0289588
0.020616
0.0507753
0.198858
0.183008
0.219846
0.204064
0.0516152
0.0215562
0.0379607
0.0375404
0.0557229
0.054971
0.00762523
0.0266579
0.0780747
0.0673078
0.138659
0.113036
0.0118268
0.00733338
0.0215206
0.0169663
0.0260386
0.0115206
0.0164711
0.0135602
0.0257241
0.0401386
0.015071
0.0186335
0.00500969
0.0191393
0.0171283
0.635937
0.239939
0.340899
0.147356
0.00833397
0.00557454
0.142954
0.416918
0.286443
0.00684111
0.0164994
0.0148756
0.0935135
0.0818255
0.0280669
0.197603
0.164098
0.064553
0.011964
0.0209545
0.0163333
0.0105678
0.0156868
0.0112205
0.0429794
0.0277102
0.025605
0.0520386
0.0567881
0.0225897
0.0260512
0.0167347
0.016468
0.0486491
0.132003
0.337276
0.318637
0.363276
0.343669
0.136339
0.265423
0.248165
0.0737318
0.0265662
0.0698883
0.0652266
0.00962958
0.0146059
0.0720168
0.0483629
0.0303662
0.0284054
0.0418626
0.0479051
0.0436839
0.0540796
0.0493462
0.0433541
0.0455267
0.018115
0.0169694
0.0422655
0.179482
0.390176
0.369912
0.0506161
0.0518966
0.121562
0.0269393
0.0289698
0.0664851
0.0884323
0.108004
0.10003
0.0650093
0.0871737
0.0812166
0.0969666
0.0896066
0.0659874
0.0983046
0.28881
0.271219
0.312582
0.29473
0.100478
0.083283
0.0317525
0.032307
0.0210412
0.022048
0.0647511
0.109058
0.0463736
0.0501223
0.0324831
0.0329115
0.092121
0.115645
0.0404848
0.0574889
0.00746776
0.0182093
0.0390713
0.0297144
0.0585076
0.020028
0.020765
0.0181228
0.0484097
0.0143925
0.00426703
0.0779312
0.0542735
0.0639203
0.0599776
0.0249145
0.0193111
0.0254969
0.056135
0.0177764
0.00996533
0.0213613
0.0219582
0.00299181
0.026621
0.019976
0.0149754
0.0073797
0.0137908
0.0135665
0.0136277
0.0231272
0.0200174
0.00771301
0.038059
0.0369509
0.0191462
0.012833
0.0086791
0.0134956
0.021024
0.0149426
0.0167967
0.0353416
0.0143744
0.0128777
0.0146373
0.0159784
0.0268419
0.0144346
0.0113296
0.0160512
0.0147473
0.0115459
0.0183954
0.0165714
0.0214642
0.0190989
0.0137653
0.0176746
0.0251996
0.0217234
0.0323413
0.0267695
0.0209508
0.0186747
0.0153136
0.0227786
0.0206845
0.0447859
0.0515973
0.024985
0.0233719
0.0209813
0.0219108
0.055785
0.0152246
0.0161573
0.0180004
0.0153127
0.0167391
0.0494919
0.0173251
0.0206061
0.0171715
0.0164363
0.0216436
0.0526449
0.0465276
0.0156915
0.0382374
0.0339238
0.044369
0.0397268
0.0161719
0.0156575
0.0283617
0.0243303
0.07823
0.071702
0.0281995
0.0362703
0.0850048
0.0800123
0.0475797
0.0459867
0.0669547
0.11129
0.155199
0.0800648
0.101709
0.0676573
0.0532005
0.139798
0.122088
0.159178
0.146076
0.0587239
0.0477533
0.058788
0.073081
0.0423109
0.0483668
0.0371612
0.0341952
0.0472594
0.0276753
0.0303584
0.0260693
0.0378383
0.0334744
0.0310966
0.0362877
0.0387431
0.0391279
0.0375653
0.0270393
0.0869983
0.0704843
0.0954243
0.0903673
0.0274387
0.0644219
0.0629569
0.0677311
0.0649297
0.0356511
0.111529
0.107134
0.11897
0.113109
0.0366145
0.0304359
0.100462
0.096687
0.105734
0.101736
0.0308797
0.0200311
0.0185361
0.0452538
0.0429234
0.0216521
0.0206773
0.037335
0.0368896
0.0382413
0.0374729
0.0358267
0.0350684
0.0367187
0.0360743
0.0605984
0.059056
0.0624972
0.0610881
0.0532923
0.0394931
0.0585005
0.0557532
0.0277077
0.0247228
0.0326693
0.0289706
0.0127531
0.0196967
0.0186023
0.0237494
0.0203572
0.0306017
0.0315796
0.0820981
0.0199144
0.0194098
0.0208292
0.0200926
0.0192189
0.066865
0.0223619
0.0294376
0.0337272
0.042509
0.106439
0.0295128
0.0239092
0.0347924
0.0324533
0.0220231
0.0211105
0.02349
0.0223549
0.0934759
0.0330202
0.0333614
0.00830146
0.0249916
0.0135068
0.0143707
0.0133401
0.0238269
0.00740336
0.0189353
0.0111885
0.0142197
0.0388045
0.0330771
0.0191566
0.0198
0.0578122
0.0511453
0.0183378
0.0189372
0.0133957
0.0242924
0.0582671
0.0415892
0.0125473
0.0121204
0.0171778
0.0103733
0.0134223
0.0185926
0.026515
0.00723476
0.0151403
0.00993481
0.0147315
0.0201698
0.0646235
0.138555
0.184685
0.0127534
0.0120361
0.193466
0.256125
0.213361
0.00785593
0.0283918
0.0164526
0.0182442
0.140394
0.146526
0.168584
0.00572888
0.0091181
0.00671101
0.00568323
0.00697133
0.00543754
0.0702808
0.0448756
0.0270517
0.0297463
0.0271474
0.0307339
0.222597
0.447116
0.425259
0.477249
0.454531
0.228189
0.0359828
0.0303754
0.0162411
0.0605642
0.0704218
0.138433
0.0919934
0.0866803
0.0365508
0.0320587
0.036975
0.0372242
0.4181
0.397056
0.1843
0.138452
0.0553138
0.0575651
0.0598222
0.0733902
0.157103
0.0423137
0.100769
0.0939394
0.0146637
0.015005
0.0169472
0.0200585
0.0204028
0.0271823
0.0153497
0.0126968
0.0143015
0.0217661
0.0429387
0.0378589
0.0184318
0.0267409
0.0194591
0.0197107
0.0192792
0.0120863
0.0135882
0.0157072
0.0151909
0.0128245
0.020938
0.024009
0.0517244
0.0398615
0.0424583
0.0391781
0.0290814
0.0376289
0.017547
0.0200079
0.0110193
0.00731819
0.00725203
0.0139418
0.0117545
0.0282967
0.0180174
0.0122434
0.0171436
0.0221848
0.0210681
0.0305268
0.0315946
0.0189345
0.0151079
0.0155825
0.00989047
0.0136842
0.0153423
0.0602539
0.0546364
0.0226725
0.0143322
0.0186245
0.0178061
0.014772
0.0169441
0.0163079
0.051101
0.0416751
0.0432476
0.0656757
0.0919487
0.0908551
0.0425608
0.0609005
0.0587478
0.0896164
0.0880382
0.0630037
0.0439608
0.0532489
0.0439829
0.0336529
0.0365697
0.0297
0.0457905
0.0476916
0.0686469
0.0247391
0.0321512
0.0315636
0.0485663
0.0479242
0.028081
0.0269649
0.0264499
0.0308175
0.0300473
0.0341814
0.0548586
0.0542376
0.0578602
0.0573611
0.0387145
0.0294018
0.0498352
0.0491957
0.0535954
0.0529399
0.0319915
0.0538415
0.0549218
0.136369
0.123266
0.0523095
0.053479
0.0811189
0.0839487
0.176676
0.0242933
0.0240466
0.0260849
0.0257421
0.0214791
0.0238105
0.0235793
0.159745
0.0761293
0.080153
0.0140892
0.0141993
0.0172277
0.016774
0.0139206
0.01437
0.0143185
0.067899
0.0298695
0.0335688
0.109985
0.103219
0.0454019
0.0536827
0.117885
0.112014
0.0274824
0.0275979
0.0382748
0.0368556
0.0269718
0.027308
0.0117201
0.0183855
0.0267583
0.0188127
0.0073213
0.0119179
0.0194273
0.0137913
0.0146847
0.0180347
0.0182214
0.0262253
0.0110327
0.00723836
0.01052
0.0139425
0.024958
0.0176604
0.017864
0.0163881
0.026076
0.0226991
0.013927
0.0134562
0.0147353
0.0150672
0.0177337
0.00795908
0.00545374
0.00988226
0.0158829
0.0139853
0.0143276
0.012434
0.01357
0.0153413
0.012112
0.00811258
0.00623842
0.0240272
0.0245849
0.0229869
0.0234509
0.0269925
0.0351517
0.0353369
0.0347303
0.0349649
0.0263922
0.0163355
0.0262345
0.0261334
0.0270316
0.026484
0.0161587
0.0299379
0.0367081
0.0383903
0.0355438
0.0359005
0.0291646
0.0178288
0.0261265
0.0261188
0.0260827
0.0260837
0.0173236
0.0219919
0.0225186
0.0226322
0.0220833
0.0319198
0.045773
0.045442
0.0213678
0.0301464
0.0300682
0.0305821
0.0302695
0.0217078
0.0121048
0.0111775
0.0142855
0.0129035
0.0199647
0.0196503
0.0206056
0.0202853
0.0170827
0.0279261
0.0206982
0.0209181
0.0202595
0.0298528
0.0297526
0.0300073
0.0299372
0.0205049
0.0211946
0.0209133
0.0251477
0.0214076
0.0174389
0.00756549
0.0117523
0.0148639
0.00737275
0.0195398
0.014621
0.00356888
0.02517
0.0339388
0.0334761
0.0182173
0.0096481
0.00680132
0.00516812
0.0117039
0.0126273
0.018988
0.0192193
0.0266973
0.0195652
0.0086429
0.00724752
0.016497
0.00572614
0.00990605
0.00809941
0.00586764
0.00726663
0.0134781
0.0111003
0.0118559
0.0147565
0.0142954
0.0389388
0.0339911
0.0105952
0.0126203
0.014115
0.0207695
0.0235829
0.0153173
0.018777
0.0165588
0.0139767
0.00803981
0.0137066
0.0141033
0.00727372
0.0108096
0.0121139
0.0155651
0.014052
0.0144464
0.011614
0.0122428
0.0151228
0.0146817
0.0143115
0.0108925
0.0140685
0.0154436
0.0150644
0.0275795
0.0237984
0.0186783
0.0302979
0.0323606
0.034442
0.0277841
0.0247
0.0223129
0.0318929
0.0330446
0.0251553
0.0294118
0.021756
0.0244535
0.0342423
0.0344899
0.0336085
0.0339528
0.023862
0.0212404
0.031788
0.0313683
0.0154448
0.0157338
0.0169407
0.0152765
0.0151884
0.0159433
0.0169133
0.0167357
0.0185732
0.0290812
0.0279549
0.0308584
0.0301162
0.0198904
0.0139678
0.0144987
0.0180454
0.00916206
0.0134639
0.0134618
0.015877
0.0136126
0.0136399
0.0205766
0.0196069
0.0149772
0.0493347
0.0444996
0.0749888
0.0657719
0.0437051
0.061492
0.0857745
0.0819071
0.0415315
0.0380364
0.0377347
0.0267808
0.0334079
0.0572264
0.0493913
0.0468773
0.0368086
0.0441612
0.0447872
0.0412654
0.0431167
0.0360056
0.0285356
0.0297138
0.0385239
0.0318518
0.0310548
0.0330679
0.0328935
0.0357342
0.0318276
0.0302685
0.0282694
0.0325069
0.0439463
0.0394509
0.0264326
0.0277594
0.0472222
0.0461588
0.028079
0.0275102
0.0293423
0.0286883
0.0559148
0.0553942
0.0348684
0.0376437
0.0569184
0.0564375
0.0511166
0.0504864
0.0299209
0.0313667
0.0522951
0.0517004
0.0194885
0.0261562
0.0261297
0.0261364
0.0261727
0.0191244
0.0215456
0.0251737
0.0239049
0.0260303
0.0257753
0.0210708
0.0371903
0.024265
0.024673
0.0236094
0.0239263
0.0370466
0.0378065
0.0261505
0.0266568
0.0251235
0.0256111
0.0376126
0.0355714
0.0218896
0.0221562
0.0214549
0.0216513
0.0353176
0.0365307
0.023031
0.0233118
0.0224327
0.0227241
0.036311
0.0248267
0.0245526
0.0600961
0.0410172
0.0413228
0.0403879
0.0407058
0.0595829
0.0254187
0.0251142
0.0229109
0.0225742
0.0486596
0.0333264
0.0368368
0.0271423
0.0275206
0.0425961
0.0578748
0.0396934
0.0400566
0.0384943
0.039243
0.0570603
0.0233617
0.0231464
0.014738
0.0142324
0.0139762
0.0162463
0.0154519
0.019288
0.0144145
0.0142319
0.0149051
0.0146258
0.0189699
0.0225796
0.0158301
0.0167957
0.0143574
0.014939
0.0213625
0.0311002
0.0441621
0.0432635
0.0450978
0.044701
0.0313772
0.0197427
0.019577
0.0205527
0.0202786
0.0189691
0.0181434
0.0226283
0.0337894
0.0315009
0.0415304
0.03821
0.0269091
0.024606
0.0194851
0.0203997
0.024302
0.0344347
0.0210649
0.0212579
0.0206707
0.0208722
0.0338257
0.0217066
0.0214016
0.0230861
0.0227085
0.0136116
0.0158425
0.015361
0.0172668
0.0164845
0.013908
0.0138636
0.0135335
0.0149153
0.0143525
0.00858208
0.0119959
0.0149662
0.0146325
0.0158561
0.0153713
0.0126392
0.0189974
0.0188003
0.0194209
0.0192042
0.0242685
0.0261452
0.0355567
0.0182443
0.0180096
0.0186126
0.0184313
0.0193716
0.0293561
0.0291867
0.0296352
0.0295032
0.0195818
0.0184987
0.0282756
0.0273122
0.028985
0.0287187
0.0187182
0.0126077
0.0326611
0.0308586
0.022534
0.0127971
0.00947943
0.00943539
0.00649881
0.00925822
0.0124317
0.0156334
0.012674
0.0141491
0.0137694
0.026384
0.0184831
0.0187376
0.0104623
0.0107282
0.0102733
0.0133957
0.0130145
0.00690321
0.00706314
0.0143278
0.0110148
0.0133165
0.0156243
0.0174006
0.0232281
1.15484
1.15513
1.1555
1.15525
1.15573
1.15579
1.15592
1.15663
1.15625
1.15688
1.15767
1.15681
1.15791
1.1321
1.1573
1.1187
1.10471
1.15748
1.11065
1.1584
1.15728
1.15823
1.15758
1.15682
1.15734
1.1566
1.15629
1.15638
1.15577
1.15586
1.15434
1.15496
1.15504
1.15523
1.15626
1.15578
1.15668
1.11916
1.15687
1.05723
0.905564
1.15809
0.869902
0.801115
1.05403
0.790113
0.788889
1.02997
0.797982
0.852279
1.09054
0.878838
0.987726
1.15796
1.03366
1.15785
1.15681
1.15743
1.15622
1.15581
1.15418
1.1554
1.155
1.15593
1.10214
1.15655
1.01343
0.787006
1.03025
0.727705
0.591158
0.819572
0.558391
0.49646
0.719365
0.487631
0.49395
0.710135
0.505689
0.564706
0.774929
0.591391
0.694259
0.907689
0.735493
0.892781
1.12025
0.956122
1.1576
1.15647
1.15449
1.15658
1.15562
1.14828
0.848439
1.03061
0.761237
0.551836
0.718698
0.49505
0.359588
0.525472
0.325835
0.263021
0.431007
0.255413
0.269194
0.43046
0.283821
0.349675
0.504172
0.376945
0.477307
0.631889
0.516527
0.657245
0.825841
0.713125
0.916243
1.10569
1.15533
1.09322
1.15697
0.983774
0.693645
0.800973
0.614411
0.412039
0.507968
0.353605
0.206597
0.314143
0.171227
0.0914352
0.216764
0.0897917
0.12306
0.225329
0.140545
0.209097
0.307579
0.236823
0.333082
0.434482
0.370007
0.499568
0.611263
0.550573
0.732896
0.862647
1.15656
1.01126
1.06556
0.902467
0.63971
0.670688
0.566965
0.374709
0.391765
0.318615
0.145004
0.183276
0.128867
0.0755793
0.11844
0.036939
0.0464942
0.0808803
0.0869737
0.116686
0.137562
0.163942
0.251935
0.307244
0.285918
0.404623
0.470596
0.450978
0.616542
0.697257
1.15797
0.996395
1.00197
0.896877
0.675035
0.641253
0.6164
0.471225
0.386849
0.354246
0.305829
0.283734
0.135053
0.113992
0.102982
0.0617652
0.0883778
0.094131
0.145015
0.220659
0.240015
0.250793
0.358033
0.388816
0.400183
0.551523
0.595056
1.15941
1.0212
1.0004
0.930858
0.750324
0.692717
0.707576
0.628375
0.509499
0.530505
0.514324
0.450469
0.440892
0.448931
0.363843
0.0801032
0.0990776
0.0938749
0.155197
0.222355
0.218615
0.249572
0.347724
0.352512
0.386661
0.526647
0.541537
1.16085
1.05242
1.02943
0.967127
0.809257
0.768173
0.774606
0.727413
0.662344
0.700023
0.730316
0.688889
0.697564
0.528435
0.551608
0.108347
0.12474
0.114535
0.181396
0.24523
0.22633
0.270999
0.364186
0.349571
0.40111
0.532967
0.525671
1.16228
1.07333
1.05881
0.989576
0.828971
0.817837
0.791262
0.721206
0.734873
0.744605
0.776842
0.783051
0.594658
0.414589
0.435065
0.142447
0.160474
0.146237
0.220309
0.285761
0.253677
0.311589
0.403931
0.371915
0.440011
0.566484
0.53951
1.1637
1.09021
1.07722
1.00625
0.827043
0.829109
0.780096
0.667146
0.708693
0.677908
0.708712
0.711738
0.487262
0.31144
0.330275
0.17359
0.194109
0.182946
0.277879
0.349424
0.299081
0.37664
0.470431
0.41778
0.506181
0.628446
0.580208
1.16518
1.12274
1.0963
1.03862
0.841925
0.82776
0.786266
0.630526
0.654131
0.605389
0.560867
0.618261
0.399111
0.215437
0.23312
0.0505555
0.111455
0.0975
0.278996
0.353176
0.274759
0.377087
0.453077
0.370649
0.480613
0.573422
0.492271
0.608012
0.724322
0.650262
1.16638
1.16834
1.13824
1.12703
0.922973
0.855765
0.866139
0.697423
0.635457
0.588766
0.522438
0.508194
0.203403
0.0665685
0.0897742
0.110557
0.245742
0.214404
0.489242
0.545018
0.389711
0.562631
0.623152
0.488344
0.646699
0.727304
0.606398
0.758255
0.861616
0.755877
1.16731
1.16891
1.16853
1.16704
1.0997
0.957432
1.04548
0.916121
0.734691
0.792304
0.111989
0.184073
0.0340604
0.0820655
0.0704678
0.160844
0.435471
0.422272
0.51879
0.745752
0.614257
0.812847
0.890669
0.679876
0.900034
0.948146
0.775457
0.969976
1.05261
0.905808
1.1679
1.16886
1.16896
1.16649
1.13923
1.14496
1.11431
0.862259
0.929629
0.663479
0.0799176
0.100534
0.0299363
0.095587
0.0856319
0.175099
0.447531
0.439068
0.531666
0.756856
0.748943
0.822458
0.978531
0.974476
1.01674
1.09746
1.01569
1.11527
1.14976
1.11274
1.16813
1.16813
1.16875
1.16494
1.12784
1.13679
1.09303
0.767883
0.838763
0.547451
0.0663743
0.0755694
0.0285828
0.107382
0.098682
0.186918
0.453933
0.449587
0.539587
0.764473
0.759032
0.82889
0.98196
0.979568
1.01952
1.09894
1.09795
1.11649
1.15048
1.15002
1.16803
1.16669
1.16784
1.16233
1.11224
1.12432
1.06576
0.676412
0.744627
0.457746
0.0592448
0.0641825
0.0284564
0.117777
0.110102
0.196867
0.457389
0.454951
0.542902
0.769543
0.765966
0.833146
0.983856
0.982554
1.02091
1.0994
1.09913
1.11677
1.15051
1.15054
1.16762
1.16454
1.16622
1.15862
1.09284
1.10773
1.03374
0.59529
0.654704
0.396335
0.055138
0.0580062
0.029017
0.127002
0.120186
0.205357
0.459969
0.458084
0.543956
0.7719
0.770412
0.83547
0.984687
0.984151
1.02135
1.09918
1.0994
1.11645
1.15007
1.15044
1.16693
1.16167
1.16389
1.1538
1.07012
1.08746
0.997793
0.532756
0.577762
0.355805
0.0527029
0.0544049
0.0300146
0.135237
0.129147
0.212687
0.462076
0.460538
0.544353
0.771297
0.772007
0.835445
0.984631
0.984757
1.02107
1.09849
1.09904
1.1157
1.1493
1.1499
1.16599
1.15805
1.16083
1.14784
1.04401
1.06393
0.957328
0.488125
0.520147
0.327269
0.0512974
0.0522717
0.0313119
0.142629
0.137159
0.21908
0.463738
0.462531
0.544452
0.768716
0.770782
0.833173
0.983539
0.984465
1.02005
1.09743
1.09826
1.11464
1.1483
1.14906
1.16481
1.15364
1.15702
1.14066
1.01353
1.03683
0.913019
0.455322
0.479028
0.306202
0.0505785
0.0510628
0.0328243
0.1493
0.144359
0.224708
0.464993
0.464087
0.544291
0.76533
0.767912
0.82957
0.98123
0.983076
1.01811
1.09599
1.0971
1.11329
1.14712
1.14802
1.16339
1.1483
1.1524
1.13193
0.979284
1.00522
0.87002
0.430139
0.448422
0.290272
0.0503461
0.0504804
0.0344963
0.155353
0.150867
0.229706
0.465899
0.465249
0.543892
0.761704
0.764434
0.825432
0.977852
0.980472
1.01524
1.09412
1.09556
1.11161
1.14579
1.14681
1.1617
1.14167
1.14677
1.12111
0.944802
0.970531
0.832309
0.410306
0.424742
0.278057
0.0504763
0.0503482
0.0362905
0.160876
0.15678
0.234183
0.466519
0.466078
0.54329
0.758019
0.760784
0.821132
0.973765
0.976882
1.01164
1.09182
1.09359
1.10959
1.1443
1.14543
1.15964
1.13343
1.13977
1.108
0.912984
0.936535
0.800252
0.394438
0.406008
0.268612
0.0508886
0.0505553
0.0381811
0.165943
0.162183
0.238229
0.466912
0.466636
0.542528
0.754331
0.757095
0.816809
0.969286
0.972672
1.00758
1.08914
1.09118
1.10726
1.14265
1.1439
1.15713
1.12352
1.1311
1.09305
0.884643
0.905572
0.772908
0.381606
0.390975
0.26128
0.0515284
0.0510287
0.0401504
0.17062
0.167147
0.241918
0.467132
0.466981
0.541646
0.750663
0.75341
0.812515
0.964618
0.968131
1.00323
1.08615
1.08842
1.10467
1.14087
1.14222
1.15406
1.11225
1.12081
1.0771
0.859562
0.878083
0.749332
0.371141
0.378789
0.255584
0.0523579
0.0517189
0.0421871
0.174962
0.171735
0.24531
0.467224
0.467165
0.540684
0.747035
0.749751
0.808277
0.959877
0.963436
0.998747
1.08293
1.08536
1.10186
1.13897
1.1404
1.15037
1.10008
1.10927
1.06087
0.837296
0.853747
0.728792
0.36255
0.368833
0.251171
0.0533502
0.0525913
0.0442844
0.179019
0.176001
0.248459
0.467229
0.467232
0.539678
0.743465
0.746136
0.804114
0.955131
0.958689
0.994198
1.07956
1.0821
1.0989
1.13698
1.13848
1.14607
1.08746
1.09695
1.04485
0.817417
0.832115
0.710739
0.355454
0.360647
0.247772
0.054486
0.0536211
0.0464389
0.182835
0.179994
0.251409
0.467182
0.467221
0.538658
0.739972
0.742584
0.800042
0.950422
0.953949
0.989642
1.07607
1.07869
1.09582
1.13491
1.13647
1.14119
1.07474
1.08428
1.02933
0.799563
0.812774
0.694747
0.349561
0.353877
0.245179
0.0557515
0.0547904
0.0486502
0.18645
0.183757
0.2542
0.467112
0.467165
0.537653
0.736572
0.739112
0.796077
0.94578
0.949254
0.985114
1.07252
1.07519
1.09267
1.13278
1.13438
1.13583
1.06213
1.07157
1.01443
0.783437
0.795379
0.680479
0.344638
0.348247
0.243226
0.0571361
0.0560865
0.0509196
0.189899
0.187327
0.256866
0.467047
0.467094
0.536686
0.733284
0.735739
0.792234
0.941225
0.944631
0.980644
1.06892
1.07162
1.08946
1.1306
1.13224
1.13006
1.04977
1.05901
1.0002
0.768786
0.779643
0.667663
0.340498
0.343535
0.241782
0.0586323
0.0574996
0.0532504
0.193214
0.190739
0.259438
0.46701
0.467034
0.535778
0.730121
0.73248
0.788526
0.936775
0.940101
0.97625
1.06532
1.06802
1.08622
1.12838
1.13004
1.12397
1.03773
1.04672
0.98665
0.7554
0.765326
0.656072
0.336987
0.339565
0.240736
0.0602345
0.0590228
0.0556474
0.196426
0.194026
0.261945
0.467023
0.467008
0.534951
0.727099
0.729351
0.784966
0.932446
0.935681
0.971952
1.06173
1.06442
1.08297
1.12613
1.12782
1.11764
1.02607
1.03478
0.973742
0.7431
0.752228
0.645516
0.333979
0.336191
0.239997
0.0619385
0.0606508
0.0581166
0.199563
0.197216
0.264413
0.467104
0.467036
0.534222
0.724231
0.726367
0.781568
0.928251
0.931384
0.967764
1.05817
1.06083
1.07973
1.12387
1.12557
1.11114
1.01479
1.02321
0.961443
0.731732
0.740175
0.635835
0.331367
0.333291
0.23949
0.0637411
0.0623796
0.0606647
0.202651
0.200338
0.266866
0.467273
0.467137
0.533607
0.721532
0.72354
0.778344
0.924204
0.927225
0.963702
1.05465
1.05728
1.07651
1.1216
1.1233
1.1049
1.00442
1.01203
0.95025
0.721539
0.729019
0.627173
0.329107
0.330763
0.239159
0.0656335
0.0642064
0.0632915
0.205692
0.203419
0.269306
0.467563
0.467331
0.533162
0.719139
0.720885
0.775461
0.920536
0.923217
0.960009
1.05143
1.05378
1.07356
1.11951
1.12103
0.297527
0.243522
0.266095
0.0600789
0.0526094
0.0568361
0.0450814
0.0445526
0.0529828
0.559683
0.587103
0.731954
0.0838843
0.0780771
0.0828505
0.0584832
0.0641352
0.0674965
0.441961
0.462921
0.634129
0.117962
0.114019
0.119127
0.0849608
0.0904122
0.0954993
0.33658
0.355611
0.527843