/*--------------------------------*- C++ -*----------------------------------*\
| =========                 |                                                 |
| \\      /  F ield         | OpenFOAM: The Open Source CFD Toolbox           |
|  \\    /   O peration     | Version:  v1912                                 |
|   \\  /    A nd           | Website:  www.openfoam.com                      |
|    \\/     M anipulation  |                                                 |
\*---------------------------------------------------------------------------*/
FoamFile
{
    version     2.0;
    format      ascii;
    class       volScalarField;
    location    "400";
    object      omega;
}
// * * * * * * * * * * * * * * * * * * * * * * * * * * * * * * * * * * * * * //

dimensions      [0 0 -1 0 0 0 0];


internalField   nonuniform List<scalar> 
12556
(
31.8693
31.8706
31.8719
31.8739
31.9377
31.9387
31.9393
31.9406
31.9431
31.9475
31.9539
31.9613
31.9666
31.9671
31.9627
31.956
31.9496
31.9449
31.9417
31.9399
31.8748
31.8723
31.8706
31.8691
31.7347
31.7377
31.7408
31.7448
31.8052
31.8094
31.8129
31.8466
31.8536
31.8656
31.8832
31.9032
31.9181
31.9204
31.9095
31.8915
31.8735
31.8598
31.8205
31.8133
31.7476
31.742
31.7382
31.7347
31.6014
31.6062
31.6109
31.6166
31.6747
31.6821
31.6899
31.7254
31.7418
31.7696
31.8094
31.8525
31.8836
31.8884
31.866
31.8281
31.7883
31.7565
31.7062
31.6913
31.6236
31.6146
31.6083
31.6029
31.4702
31.4764
31.4824
31.49
31.5454
31.5567
31.5706
31.6127
31.6469
31.7045
31.7849
31.8768
31.9416
31.9446
31.8913
31.8122
31.7349
31.6724
31.6046
31.5765
31.5035
31.4898
31.4808
31.4733
31.3405
31.3481
31.3555
31.365
31.4193
31.4352
31.4577
31.5102
31.5772
31.6889
31.8731
32.1177
32.3023
32.2756
32.1008
31.902
31.7375
31.6222
31.5211
31.471
31.3878
31.3678
31.3552
31.3453
31.2123
31.2212
31.2301
31.2416
31.2959
31.3181
31.3533
31.4249
31.5368
31.7569
32.214
33.0931
34.0105
33.6401
32.8161
32.2221
31.8457
31.6162
31.4602
31.3772
31.2767
31.2481
31.2311
31.2187
31.0859
31.0961
31.1065
31.1205
31.1751
31.2051
31.2575
31.3564
31.5316
31.9445
33.0502
37.2168
43.001
40.1524
34.9296
32.989
32.1176
31.6753
31.423
31.296
31.1705
31.1309
31.1083
31.0931
30.9615
30.9731
30.9854
31.0023
31.0581
31.0976
31.1703
31.3001
31.5547
32.2133
34.2688
45.4832
65.2826
39.9801
34.4138
32.5942
31.8099
31.4096
31.2271
31.0695
31.0165
30.9871
30.9687
30.8396
30.8526
30.867
30.8874
30.9453
30.9957
31.0904
31.2511
31.5893
32.4589
35.1171
52.157
115.492
47.0842
36.3683
33.2424
32.0101
31.4166
31.1679
30.9739
30.9056
30.8685
30.8466
30.7207
30.7353
30.752
30.7762
30.837
30.899
31.0161
31.2062
31.6225
32.65
35.7129
59.5089
139.875
52.8629
38.3066
33.9381
32.2419
31.4365
31.116
30.8839
30.7994
30.754
30.7281
30.6052
30.6214
30.6406
30.6689
30.7331
30.8073
30.946
31.1647
31.6539
32.821
36.448
69.081
140.569
56.277
39.8313
34.5563
32.4651
31.4592
31.069
30.799
30.6985
30.6444
30.6143
30.4932
30.511
30.5326
30.5654
30.6335
30.72
30.8793
31.127
31.6881
33.0086
37.5132
82.8531
130.536
57.6391
40.7973
35.0163
32.6448
31.4742
31.0237
30.7182
30.6026
30.5402
30.5058
30.3846
30.4043
30.4288
30.4661
30.5375
30.6359
30.8147
31.0929
31.7277
33.2363
38.8589
97.0114
992.537
110.641
57.647
41.2513
35.2922
32.7598
31.4741
30.9764
30.6399
30.511
30.4409
30.4022
30.2791
30.3004
30.3275
30.3688
30.4466
30.5583
30.7571
31.0733
31.8024
33.6053
41.3999
179.25
498.45
104.614
56.9348
41.3191
35.4042
32.8063
31.4544
30.9239
30.5622
30.422
30.3449
30.3023
30.1758
30.1987
30.2284
30.2736
30.3558
30.4778
30.6932
31.0408
31.8451
33.9307
45.6441
771.278
336.455
98.5154
55.693
41.1218
35.3867
32.7929
31.415
30.8639
30.4828
30.3338
30.2506
30.2045
30.0739
30.0985
30.1307
30.1793
30.2658
30.3966
30.6264
31.0033
31.8822
34.3267
52.8088
870.796
292.554
93.5075
54.5057
40.816
35.2809
32.7266
31.3577
30.7954
30.4002
30.2448
30.1562
30.1072
29.9727
29.999
30.0336
30.0852
30.1756
30.3137
30.5555
30.9585
31.9089
34.8427
62.5604
837.935
261.489
89.6271
53.4175
40.4753
35.1389
32.6349
31.2841
30.7171
30.3135
30.1534
30.0603
30.0088
29.8716
29.8993
29.9364
29.9906
30.0845
30.2285
30.4801
30.9058
31.9281
35.4897
74.3475
770.037
238.232
86.8158
52.4838
40.1374
34.9727
32.5232
31.1959
30.6291
30.2211
30.0582
29.9623
29.9086
29.77
29.7991
29.8384
29.8951
29.9921
30.1406
30.4003
30.8461
31.9465
36.284
86.214
698.287
220.08
84.832
51.6942
39.8208
34.7986
32.4003
31.0976
30.5338
30.1237
29.9591
29.8608
29.8059
29.6677
29.6978
29.7392
29.7983
29.898
30.0502
30.3167
30.781
31.9707
37.2273
96.0725
632.37
205.437
83.2277
51.0567
39.5314
34.6252
32.272
30.992
30.4322
30.0217
29.8561
29.7561
29.7004
29.5644
29.5953
29.6386
29.6999
29.8021
29.9575
30.2301
30.7121
32.0063
38.3419
103.444
574.565
193.309
81.791
50.5945
39.2721
34.4571
32.1419
30.8813
30.3258
29.9156
29.7495
29.6483
29.5923
29.4602
29.4916
29.5365
29.5997
29.7043
29.8626
30.141
30.641
32.0578
39.7036
108.936
524.657
183.049
80.475
50.2779
39.0499
34.297
32.0122
30.7672
30.2154
29.8059
29.6398
29.5378
29.4818
29.3552
29.3869
29.433
29.4979
29.6046
29.7657
30.0499
30.5691
32.132
41.2904
112.94
481.686
174.215
79.2642
50.0422
38.8717
34.1476
31.8844
30.6509
30.1022
29.6935
29.5274
29.4251
29.3693
29.2496
29.2813
29.3283
29.3946
29.5032
29.6669
29.9573
30.4981
32.2432
42.8844
115.726
444.575
166.493
78.1444
49.8429
38.7348
34.0114
31.7602
30.5338
29.9869
29.579
29.4131
29.3107
29.2552
29.1435
29.1751
29.2228
29.2903
29.4003
29.5666
29.8638
30.4303
32.4091
44.3198
117.515
412.35
159.66
77.1018
49.6605
38.6289
33.8893
31.6405
30.4166
29.8705
29.463
29.2973
29.1949
29.1399
29.0372
29.0685
29.1166
29.1851
29.2964
29.4652
29.7701
30.3686
32.6346
45.5622
118.498
384.178
153.544
76.1233
49.4876
38.5437
33.78
31.5258
30.3
29.7536
29.3461
29.1805
29.0782
29.0237
28.9308
28.9618
29.0101
29.0795
29.1918
29.3631
29.6771
30.3162
32.9062
46.628
118.837
359.374
148.02
75.1978
49.3205
38.4714
33.6816
31.4159
30.1847
29.6365
29.2288
29.0632
28.9609
28.907
28.8246
28.8551
28.9036
28.9738
29.0869
29.2609
29.5856
30.2758
33.203
47.54
118.669
337.383
142.987
74.3155
49.1568
38.4073
33.5922
31.3104
30.0706
29.5199
29.1113
28.9455
28.8434
28.7901
28.7185
28.7486
28.7972
28.868
28.9819
29.1589
29.4964
30.2487
33.5068
48.3186
118.106
317.758
138.368
73.4687
48.9947
38.3479
33.5099
31.2089
29.9582
29.4037
28.9939
28.8279
28.7259
28.6731
28.6128
28.6424
28.691
28.7625
28.8771
29.0574
29.4102
30.2348
33.8055
48.9808
117.242
300.133
134.102
72.6506
48.8325
38.2911
33.4333
31.1111
29.8474
29.2884
28.8768
28.7105
28.6086
28.5562
28.5076
28.5367
28.5853
28.6574
28.7728
28.9568
29.3277
30.233
34.0922
49.5413
116.153
284.212
130.138
71.8556
48.6687
38.2351
33.3609
31.0165
29.7383
29.174
28.7603
28.5934
28.4915
28.4396
28.4029
28.4315
28.4801
28.5528
28.6689
28.8572
29.2494
30.2415
34.3632
50.0129
114.901
269.752
126.437
71.0791
48.502
38.1789
33.2919
30.9247
29.6309
29.0606
28.6444
28.4769
28.375
28.3234
28.2988
28.327
28.3755
28.4489
28.5658
28.759
29.1756
30.2585
34.6169
50.4072
113.535
256.553
122.964
70.3173
48.3313
38.1213
33.2252
30.8354
29.5252
28.9484
28.5293
28.361
28.259
28.2078
28.1953
28.2231
28.2716
28.3456
28.4635
28.6623
29.1065
30.282
34.8531
50.7344
112.098
244.45
119.692
69.5671
48.1555
38.0615
33.1602
30.7484
29.4211
28.8372
28.4149
28.2457
28.1435
28.0926
28.093
28.1203
28.1688
28.2434
28.3621
28.5673
29.0421
30.3104
35.0721
51.0041
110.62
233.305
116.596
68.8258
47.9738
37.9988
33.0961
30.6633
29.3187
28.7273
28.3018
28.1317
28.0294
27.9787
27.9956
28.0226
28.0711
28.1462
28.2623
28.4747
28.9825
30.3425
35.2747
51.2245
109.128
223.002
113.658
68.0912
47.7854
37.9327
33.0324
30.5799
29.2184
28.6193
28.195
28.024
27.9214
27.8709
51.4809
132.902
73.217
58.5678
171.165
140.395
67.694
169.699
172.565
80.8156
154.852
168.237
95.5016
1238.55
1046.98
138.067
152.701
150.417
693.258
1191.06
520.718
133.732
135.372
44.1759
42.4228
66.0286
40.164
503.928
159.034
110.047
50.9158
43.1206
35.5629
50.8868
46.4537
1306.04
1033.89
138.409
59.5941
53.432
36.2376
56.9195
51.5607
62.6975
211.567
180.945
851.64
1109.45
141.283
64.3919
61.1417
37.2126
65.4981
57.8245
73.6353
349.707
259.538
532.631
667.695
38.4874
77.5035
66.8297
86.1392
612.22
460.711
2229.22
323.843
402.602
40.791
108.705
79.4312
109.266
1252.67
888.374
432.391
527.049
664.202
121.295
161.957
79.0241
116.919
1019.06
537.988
107.484
399.748
799.66
177.214
152.625
55.8847
210.39
234.847
167.808
205.244
1120.88
1302.72
155.688
1017.04
907.631
817.827
1018.32
154.089
253.749
216.754
63.8683
295.098
353.735
237.774
290.357
689.531
832.192
173.125
651.503
538.571
898.239
667.711
173.644
454.901
354.463
75.2995
449.172
597.983
357.76
444.159
415.003
515.953
880.846
623.755
86.7701
2604.63
850.291
1207.66
603.567
837.191
2750.14
299.28
315.032
2116.95
7863.2
1255.66
111.294
866.365
1736.43
6909.99
1210.22
1700.37
901.56
34.9479
46.0033
41.6913
48.6641
95.0083
69.4631
1748.82
657.81
54.8971
149.151
124.976
3291.22
132.126
66.0897
65.057
3496.55
890.055
980.585
729.098
265.612
289.526
120.895
97.7872
49.467
1240.25
173.856
475.35
129.235
360.672
98.6861
1020.84
1405.67
161.035
418.787
342.773
523.823
430.636
162.973
1748.45
3263.34
1079.51
62.0504
52.423
73.8052
129.584
63.6495
63.9707
1872.38
340.958
1653.2
459.079
1486.99
288.426
1108.48
1096.6
974.831
991.17
2133.94
3084.78
585.918
2271.15
1633.66
3317.58
2402.52
604.968
507.49
167.745
178.86
733.61
846.239
3303.03
939.36
244.231
265.043
219.571
237.44
925.09
1033.52
1220.53
134.751
793.72
691.085
1175.13
799.545
140.631
96.8474
316.559
134.9
605.301
355.788
102.362
537.703
861.864
807.518
778.9
216.468
1491.05
217.41
184.399
1356.19
1202.67
1478.23
1375.11
189.719
1186.36
1195.33
967.054
335.712
329.874
335.596
336.482
960.685
902.436
302.962
276.327
326.417
310.193
913.582
323.086
326.888
259.043
262.148
707.296
3353.46
721.447
489.308
500.774
403.354
409.259
1564.95
1153.07
469.579
1470.86
2039.6
680.499
199.363
214.192
182.747
194.959
671.858
1836.99
882.125
889.363
641.832
648.358
3680.69
1497.35
617.845
701.475
271.855
325.737
2802.28
4902.49
1830.08
2520.41
1228.79
4221.54
2647.31
3968.26
1242.52
1028.28
3093.06
2177.24
1873.2
2129.99
2443.63
44.3293
163.591
115.39
258.93
3855.44
7259.93
350.686
123.343
130.763
1031.06
2570.46
3009.58
529.483
593.546
1427.44
242.883
258.907
702.659
123.421
86.5573
154.212
450.913
117.39
132.752
1266.64
2056.75
2199.98
1065.42
911.538
2068.21
1796.32
2960.64
2968.31
1066.18
309.893
125.209
131.735
117.122
123.118
301.158
154.897
164.334
501.147
1208.75
502.157
532.404
6009.87
3002.34
625.285
937.292
1900.21
2013.74
564.191
217.499
177.571
265.83
230.361
597.973
1151.49
2789.39
2936.12
1262.98
237.437
109.78
115.222
754.894
744.218
342.141
1736.54
1609.46
781.792
601.798
298.086
310.759
814.403
327.875
334.308
314.691
325
802.13
396.193
143.759
151.975
134.007
141.196
389.037
464.322
1096.75
1086.54
1603.77
1535.07
573.381
373.558
808.516
759.534
1083.74
1079.4
429.295
455.136
1106.83
818.334
3861.51
2239.85
866.359
1103.82
619.537
1675
1623.18
1831.92
721.52
3317.61
8956.9
461.666
644.028
541.428
570.855
1274.1
2076.99
1513.19
778.977
1828.78
5590.66
1887.93
1785.48
14297.3
1210.07
1613.63
1437.56
1659.24
1285.62
3450.86
3431.69
1746.29
2026.32
3678.51
1303.69
1331.16
271.187
1086.74
426.205
1167.07
315.753
2979.99
2520.29
1231.71
3198.14
3525.38
3246.87
2731.18
1482.39
3348.74
3832.61
2712.49
3189.49
3993.41
2200.27
2570.08
1820.72
2094.19
3794.96
1903.5
1064.85
795.891
1380.31
1143.26
705.111
448.152
1131.42
2417.03
2643.86
1219.87
1073.64
2244.82
2366.24
2265.46
2137.56
927.89
3150.94
2996.57
2589.48
3118.7
2895.74
1047.51
2807.35
2319.72
2497.02
2632.29
1966.66
911.826
1017.45
2839.75
1213.99
1354.32
1061
1172.58
2725.1
2795.36
1441.37
1662.55
456.075
491.107
1141.39
905.293
425.736
447.601
1118.68
1147.6
782.832
273.789
301.554
227.9
263.198
778.449
937.186
350.634
398.871
309.217
336.005
856.741
498.769
189.125
216.875
729.067
745.589
1553.62
1682.88
899.714
2111.8
1936.29
2245.11
1541.16
1450.01
1893.96
1612.33
677.067
1333.54
1538.98
1532.94
519.849
628.375
481.968
502.963
1519.98
672.073
679.787
650.153
669.444
1300.34
429.978
443.179
408.157
425.339
1276.63
1434.36
464.477
477.419
447.52
460.29
1423.57
2569.14
2738.82
1160.76
1241.44
2420.95
2499.07
1022.95
1023.96
1015.76
1023.1
1035.53
1047.18
1025
1032.06
692.836
702.599
682.198
689.957
759.548
990.08
706.439
731.164
1638.07
1833.06
1402.7
1570.39
3391.38
2309.45
2488.76
1908.46
2226.82
1125.54
1099.91
469.488
1715.59
1747.71
1654.16
1704.17
1761.48
557.914
1515.12
1165.68
1072.26
873.283
381.338
1214.25
1472.99
1051.92
1113.5
1579.61
1635.86
1495.64
1560.05
424.408
1079.3
1079.43
3569.46
1685.98
3525.04
3179.28
3526.34
1764.98
3898.87
2130.71
3827.11
3477.87
869.979
996.035
1739.66
1691.4
624.908
687.668
1809.89
1757.41
3519.96
1307.24
585.057
798.16
4870.92
5223.5
1898.3
4990.47
4128.28
2197.25
1212.38
4375.67
3094.78
5078.77
3275.56
1598.67
59.8191
40.8171
35.7924
3641.96
3619.51
119.678
65.8702
66.1767
3637.76
1407.37
2597
2226.29
333.433
267.069
146.265
272.932
174.912
460.027
1632.64
277.706
303.442
50.4792
59.9885
110.175
418.523
883.538
1094.42
197.176
96.8185
101.443
91.0397
95.3358
192.941
1171.37
1357.89
2637.19
781.542
684.654
368.763
398.667
418.912
900.805
1158.47
1274.59
641.286
103.046
108.045
232.166
307.687
721.453
702.08
679.727
567.531
276.144
797.893
369.103
391.718
3184.65
3034.57
2476.52
1626.17
1597.01
1198.62
2915.64
3548.62
3369.55
1826.77
1004.69
1120.71
1758.98
1209.86
1679.6
1656.94
1675.7
1696.3
3435.64
2771.36
2929.63
3611.98
1949.51
1697.11
885.93
1266.68
164.312
126.612
251.771
1167.35
2384.27
2047.06
3994.35
4075.78
4152.51
3677.24
3888.85
83.0543
107.238
322.51
1709
1426.66
1333.18
1990.54
1845.29
2236.4
2931.28
2801.27
3450.46
3399.72
2889.28
807.875
881.996
1877.52
3211.81
2345.16
2464.91
3108.18
2474.57
2615.65
1057.41
1316.34
1199.2
789.721
556.527
561.378
1145.87
808.693
833.246
567.134
575.134
809.182
160.719
181.724
477.962
633.088
984.631
806.251
1209.4
1169.74
792.194
1653.07
1301.29
1317.96
915.745
922.867
1503.53
1478.78
1499.58
1341.47
1367.04
1335.09
858.027
862.873
841.281
843.949
1227.98
1464.28
902.462
909.074
868.201
873.924
1393.89
730.473
723.921
311.582
338.33
741.021
732.77
524.498
512.158
249.812
1577.72
1586.72
1512.94
1525.38
1731.61
1595.4
1604.15
272.213
550.185
528.922
3334.14
3314.21
2565.18
2656.22
3359.26
3276.76
3299.54
765.874
1561.46
1398.45
342.848
361.654
748.772
652.249
323.632
337.662
1187.79
1185.25
877.321
902.811
1205.63
1193
3665.9
1753.68
1195.77
1710.55
14047
2838.26
2076.69
3899.5
3451.23
1808.43
1790.4
1221.65
4347.79
4582.21
4514.54
3699.03
1280.22
1845.81
1825.1
2645.71
1492.47
1717.82
3502.55
3624.31
3066.62
2941.2
2335.19
1236.85
1562.35
1382.2
2712.96
3414.79
3238.87
3544.37
3504.12
2859.02
176.183
248.091
1250.21
2237.27
2195.73
2316.66
2282.1
2103.53
1599.54
1596.42
1607.94
1602.67
2142.47
3021.66
1863.06
1878.09
1798.54
1839.28
3041.38
1921.79
1549.22
1482.63
1592.16
1580.79
1967.56
2818.37
1904.98
1914.88
1890.28
1899.03
2889.64
2399.48
2353.24
2311.56
2378.15
1093.79
792.304
795.655
1580.85
1134.48
1134.14
1125.83
1133.41
1557.64
3702.79
3745.6
3412.8
3598.75
1653.86
1680.51
1602.51
1627.72
1914.5
1170.13
1573.29
1557.4
1658.67
1133.16
1134.02
1133.34
1132.96
1641.45
1558.72
1579.12
1314.97
1544.9
1915.81
3728.21
3650.68
3098.57
3781.46
1687.69
2201
11689.1
1262.05
949.511
960.498
1781.05
5657.62
5613.6
9006.76
5327.67
4855.9
1720.09
1700.52
1209.25
1649.23
1720.74
1847.55
1634.37
1838.29
1617.46
1282.47
1877.06
1722.18
3478.43
3461.99
3647.61
3092
3296.72
1285.29
1429.27
1006.46
531.689
653.593
1033.42
1083.4
770.227
987.225
1271.55
3383.23
3584.25
3483.34
3544.82
4001.18
3971.26
3735.54
2867.36
3610.37
3371.23
3934.86
3831.1
3030.58
3255.36
3446.24
4088.2
3591.86
2930
3081.67
1670.95
1505.33
1757.58
1277.73
1547.1
1722.63
1781.91
1724.11
2455.98
1710.71
1657.92
2153.98
1847.55
2510.37
2282.91
1618.88
1613.32
1636.64
1626.42
2328.91
2225.58
1525.44
1548.75
3116.7
3070.06
2772.91
3132.45
3142.88
2975.76
2879.27
2927.12
2600.84
1673.13
1738.89
1576.79
1616.66
2416.27
3307.5
3115.41
2359.26
3523.71
3505.78
3495.04
2754.97
3428.67
3420.33
2111.59
2220.79
3019.92
1087.6
1175.61
666.138
753.874
1123.96
823.901
587.97
613.088
1056.1
1016.47
697.492
1138.03
1253.79
762.152
1136.85
1098.5
1565.84
1286.63
1264.86
1378.41
1318.46
1598.74
2052.16
1973.53
1511.41
1877.96
1926.33
1761.47
1815.38
1488.19
1852.9
1976.67
2127.01
1815.28
986.21
1084.23
1558.72
1511.65
931.3
946.79
1436.25
1457.54
1391.11
1414.14
851.393
854.562
1319.01
1252.23
845.825
848.275
889.894
895.895
1448.84
1411.32
879.68
884.809
2629.06
1941.26
1953.33
1923.07
1930.07
2664.87
2421.15
2058.63
2177.14
1971.12
2000.94
2464.97
1023.11
1516.55
1497.03
1547.23
1532.38
1023.33
1022.45
1429.45
1408.22
1475.83
1453.51
1023.37
1039.37
1633.9
1619.48
1656.59
1646.69
1043.29
1026.55
1574.4
1561.19
1604.9
1589.89
1029.01
1558.36
1568.3
695.902
983.221
980.175
989.991
986.486
699.144
1537.03
1548
1631.12
1650.14
822.887
1156.81
1058.59
1388.79
1375.29
927.228
711.149
998.677
993.907
1020.05
1005.65
718.132
1612.35
1620.79
3137.4
3281.63
3350.06
2768.97
2947.95
2370.55
3294.12
3328.33
3198.83
3254.97
2424.89
2006.16
2911.91
2715.5
3281.68
3126.77
2119.55
1110.82
810.79
824.168
799.274
803.805
1104.06
1726.38
1736.78
1672.79
1692.04
1783.42
1873.4
1499.72
1030.74
1098.05
853.651
919.944
1268.48
1438.89
1803.04
1718.73
1452.81
1059.12
1676.88
1666.75
1699.18
1687.4
1073.97
1598.66
1617.46
1518.11
1539.57
3492.28
2721.19
2846.22
2438.65
2582.45
3378.96
3363.69
3485.23
2979.81
3167.29
3555.52
3799.97
3067.33
3222.32
2754.54
2912.91
3692.14
1735.76
1751.98
1700.14
1718.56
1337.23
1241.86
931.799
1799.28
1823.71
1767.52
1782.81
1723.02
1140.84
1144.81
1135.62
1137.88
1707.35
1795.63
1174.37
1213.35
1150.24
1158.51
1775.96
3634.01
982.207
1036.7
1413.38
4649.58
7509.06
7597.83
6493.73
6821.78
4933.65
2104.89
4688.76
3633.85
3851.34
1216.17
1765.21
1741.93
4376
4659.71
4746.57
4087.33
4381.51
5119.57
4785.75
3478.7
4401.05
4141.64
1959.48
1876.48
1377.94
31.755
31.7643
31.8507
31.7685
31.7846
31.8608
31.7913
31.8153
31.8767
31.8243
31.8521
31.8965
31.8608
31.8823
31.9141
31.8871
31.8928
31.9212
31.8916
31.8793
31.9144
31.8729
31.8494
31.8979
31.8408
31.8153
31.8793
31.8074
31.7869
31.8639
31.6399
31.6598
31.7368
31.6685
31.7028
31.7614
31.717
31.7661
31.7986
31.7841
31.8408
31.8423
31.8587
31.9024
31.8779
31.9117
31.9199
31.89
31.916
31.8877
31.8735
31.8741
31.8261
31.8382
31.8092
31.76
31.7977
31.7446
31.7028
31.7636
31.5346
31.5746
31.6364
31.5921
31.6586
31.6878
31.6864
31.7921
31.7629
31.8344
31.9744
31.8546
32.0211
32.1348
31.9304
32.1571
32.162
31.95
32.1448
32.0563
31.9082
32.0197
31.9038
31.8326
31.8649
31.7593
31.7532
31.729
31.653
31.6865
31.4445
31.5139
31.5565
31.5435
31.6698
31.6553
31.7293
31.9803
31.8196
32.0933
32.5368
32.0551
32.7137
33.1998
32.2726
33.2901
33.2134
32.3021
33.0977
32.6894
32.15
32.5573
32.2076
31.951
32.1102
31.8701
31.774
31.8057
31.6525
31.6471
31.372
31.4798
31.5031
31.5297
31.7668
31.6856
31.8868
32.4692
32.0677
32.784
34.5212
32.8278
35.5428
40.0252
33.8655
40.517
38.6444
33.8375
37.4697
34.7725
33.008
34.1844
33.0061
32.3471
32.7406
32.1687
31.9237
32.0314
31.7276
31.6632
31.3132
31.4678
31.475
31.5472
31.937
31.8043
32.1443
33.2692
32.6493
33.9742
40.7439
35.518
39.0884
44.9507
38.2482
58.6659
55.7216
42.8146
44.6693
41.0031
38.3631
38.4124
34.6636
33.3289
33.9926
32.726
32.2819
32.4553
31.8966
31.7608
31.2628
31.4696
31.4674
31.5805
32.1183
31.9842
32.4032
33.9584
33.4701
34.5306
35.8697
35.4819
46.6724
52.4553
50.5907
84.7589
58.5292
50.4439
45.3157
37.176
35.2307
35.8578
33.534
32.9086
33.0703
32.1549
31.9542
31.2172
31.4753
31.471
31.6145
32.2678
32.1588
32.6058
34.4135
34.0865
35.2711
36.9106
36.6984
52.9384
62.4599
60.9818
128.232
79.4534
72.5202
51.6401
39.7973
37.8574
37.8512
34.439
33.7591
33.7675
32.4619
32.2293
31.1748
31.4816
31.4767
31.646
32.3966
32.301
32.778
34.8427
34.5156
35.8728
37.8803
37.5973
60.5156
81.3909
78.1076
142.156
89.2347
87.017
55.6395
41.8687
40.3797
39.5
35.2602
34.6574
34.4144
32.7642
32.5397
31.1361
31.4908
31.4835
31.6791
32.5284
32.4284
32.9586
35.4054
34.9662
36.6798
39.3851
38.9534
70.5307
101.955
97.5614
137.576
89.5089
90.0732
57.4538
43.1812
42.2704
40.6074
35.8816
35.4372
34.9183
33.0159
32.833
31.1011
31.5049
31.4938
31.7173
32.6804
32.5641
33.175
36.1822
35.5794
37.8311
42.5362
40.8877
84.9987
132.019
125.248
125.739
93.491
94.238
57.7297
43.7927
43.3943
41.1801
36.264
35.9995
35.2401
33.1893
33.067
31.0807
31.5476
31.5093
31.7903
32.9208
32.7224
33.5278
37.5725
36.4126
39.2737
46.8376
45.2308
101.909
182.976
170.71
858.382
455.272
510.87
106.314
64.6577
65.6276
57.1501
43.8903
43.8567
41.3306
36.43
36.3237
35.3896
33.277
33.2188
31.0493
31.5682
31.5535
31.8349
33.1221
32.9712
33.8456
39.1997
37.9079
42.2591
50.9417
51.6942
191.269
533.182
406.132
445.722
217.843
236.771
99.9641
62.8597
64.2959
56.0006
43.6361
43.8598
41.1921
36.4301
36.4445
35.404
33.2895
33.2863
31.0133
31.5825
31.5727
31.8739
33.3352
33.1734
34.2156
42.0305
39.764
50.7711
322.297
209.365
865.006
518.263
610.151
302.03
115.383
121.133
94.6474
61.0964
62.4087
54.8007
43.2259
43.5357
40.8935
36.3101
36.4063
35.3113
33.2319
33.2795
30.9704
31.5859
31.5844
31.9032
33.5908
33.3955
34.7027
46.0687
42.9315
59.9119
410.307
350.621
851.523
434.386
493.999
268.383
109.569
113.737
90.4971
59.5294
60.6798
53.675
42.7857
43.1192
40.5615
36.1481
36.2729
35.1776
33.1398
33.211
30.9197
31.5785
31.5849
31.9237
33.8972
33.6617
35.3144
51.1893
47.2534
71.303
449.15
423.581
788.046
376.308
417.97
243.486
105.537
108.422
87.4237
58.218
59.1788
52.7033
42.3551
42.6756
40.2203
35.9588
36.1025
35.0155
33.0231
33.1125
30.8616
31.5641
31.5754
31.9416
34.2753
33.9844
36.0715
57.3024
52.6187
83.3651
459.874
453.881
715.871
333.765
364.487
224.241
102.458
104.71
85.2776
57.1366
57.9266
51.8784
41.9596
42.2526
39.8976
35.7621
35.9098
34.8423
32.8927
32.9914
30.7977
31.5474
31.56
31.9638
34.7358
34.3825
36.9772
64.0333
58.9688
93.8616
454.801
459.731
648.116
301.251
324.849
208.831
99.7819
101.76
83.6095
56.3019
56.9032
51.2002
41.6042
41.867
39.6012
35.5684
35.7131
34.6682
32.7562
32.8589
30.7296
31.5327
31.5434
31.9961
35.2842
34.8644
38.0437
70.2377
65.6802
101.798
441.313
452.01
588.249
275.557
294.281
196.146
97.3808
99.1576
82.1382
55.7211
56.1349
50.6941
41.292
41.5219
39.3338
35.3828
35.5211
34.4985
32.6181
32.7217
30.6589
31.5239
31.5299
32.0432
35.942
35.4367
39.337
75.1822
71.5957
107.715
423.71
437.178
536.44
254.695
269.948
185.466
95.2171
96.819
80.7937
55.3098
55.6067
50.3471
41.0329
41.2218
39.1015
35.2081
35.338
34.3361
32.4813
32.5838
30.5871
31.5248
31.5231
32.1107
36.7656
36.1301
40.8835
79.0107
76.2321
112.063
404.458
418.984
491.837
237.375
250.073
176.308
93.2568
94.7095
79.558
54.976
55.2216
50.0966
40.8349
40.9778
38.9122
35.0478
35.1666
34.1838
32.3475
32.4475
30.5157
31.5416
31.5271
32.2109
37.7625
37.0014
42.4971
81.9788
79.826
115.131
384.944
399.567
453.36
222.725
233.49
168.333
91.4668
92.7947
78.4168
54.6757
54.8987
49.8907
40.6898
40.7943
38.7657
34.9051
35.0105
34.0442
32.2185
32.3148
30.4468
31.5851
31.5495
32.3619
38.8223
38.0271
43.9793
84.2479
82.6069
117.151
365.925
380.123
419.998
210.138
219.404
161.295
89.818
91.0424
77.3561
54.394
54.6038
49.7051
40.5808
40.6598
38.6531
34.7805
34.8723
33.9186
32.0955
32.1872
30.3833
31.6662
31.6016
32.5732
39.832
39.0824
45.2693
85.9352
84.7206
118.319
347.788
361.298
390.88
199.178
207.26
155.013
88.286
89.425
76.3626
54.1253
54.3258
49.5302
40.4934
40.5574
38.5635
34.6723
34.7521
33.8062
31.979
32.0658
30.3283
31.7882
31.693
32.8352
40.7447
40.0699
46.377
87.1364
86.2779
118.806
330.711
343.416
365.291
189.523
196.652
149.351
86.851
87.919
75.4248
53.8665
54.0599
49.3619
40.4185
40.4739
38.4886
34.5773
34.6474
33.7053
31.8688
31.9509
30.2847
31.9446
31.8245
33.1276
41.554
40.9566
47.3254
87.9338
87.3709
118.753
314.749
326.616
342.643
180.934
187.284
144.204
85.4964
86.5055
74.5326
53.6149
53.8031
49.1976
40.3506
40.4011
38.4228
34.4928
34.5554
33.6138
31.7643
31.8422
30.2542
32.1243
31.9878
33.431
42.2667
41.741
48.1357
88.3983
88.0789
118.279
299.888
310.932
322.464
173.223
178.93
139.488
84.2089
85.1687
73.6776
53.3681
53.5529
49.0352
40.2864
40.3344
38.3625
34.4161
34.473
33.5299
31.665
31.7391
30.2371
32.3164
32.1716
33.7318
42.8919
42.4309
48.8255
88.5911
88.4701
117.482
286.078
296.339
304.37
166.248
171.415
135.138
82.9776
83.8962
72.8528
53.1239
53.3069
48.8732
40.2237
40.2707
38.3052
34.3454
34.398
33.452
31.57
31.6409
30.2324
32.5125
32.3654
34.022
43.4389
43.0357
49.4102
88.5643
88.6034
116.443
273.251
282.782
288.046
159.894
164.605
131.103
81.7934
82.6775
72.0525
52.8803
53.0631
48.7099
40.1609
40.2081
38.2492
34.279
34.3285
33.3787
31.4789
31.5469
30.2386
32.7066
32.5614
34.2971
43.9161
43.5645
49.9029
88.3625
88.529
115.227
261.334
270.19
273.241
154.068
158.391
127.34
80.6491
81.504
71.2718
52.6356
52.8193
48.5441
40.0969
40.1451
38.1931
34.2157
34.263
33.3089
31.3911
31.4567
30.2536
32.8951
32.7544
34.5552
44.3315
44.0256
50.3155
88.0232
88.2895
113.885
250.25
258.488
259.744
148.698
152.686
123.812
79.5385
80.3686
70.5067
52.3882
52.5741
48.3745
40.0305
40.0806
38.1359
34.1544
34.2002
33.2417
31.3062
31.3697
30.2756
33.0757
32.9411
34.7958
44.6921
44.4266
50.6586
87.5783
87.921
112.462
239.93
247.601
247.381
143.72
147.418
120.492
78.4564
79.2655
69.7539
52.137
52.3259
48.2001
39.961
40.0135
38.0767
34.0942
34.1393
33.1764
31.2236
31.2854
30.303
33.2474
33.1195
35.019
45.0045
44.7746
50.9418
87.0544
87.454
110.992
230.304
237.46
236.008
139.083
142.53
117.354
77.3986
78.1899
69.0105
51.8806
52.0734
48.0199
39.8876
39.9431
38.0149
34.0345
34.0793
33.1121
31.1431
31.2033
30.3343
33.4097
33.2889
35.2257
45.2749
45.076
51.1738
86.474
86.9141
109.502
221.312
227.999
225.504
134.747
137.973
114.378
76.3615
77.1376
68.2744
51.6182
51.8157
47.8332
39.8098
39.8687
37.9496
33.9745
34.0195
33.0483
31.0642
31.1232
30.3666
33.5561
33.4488
35.4093
45.502
45.3368
51.358
85.866
86.3227
108.031
212.922
219.156
215.796
130.713
133.705
111.582
75.3653
76.1052
67.5627
51.359
51.5517
47.6472
39.731
39.7896
37.8841
33.9171
33.9594
32.9882
30.991
31.0447
59.8385
58.8417
50.839
124.796
182.387
208.927
82.5131
94.1466
81.5916
77.0176
73.4933
57.688
169.165
266.012
266.785
216.881
237.356
147.213
96.1646
92.1472
66.3647
171.111
241.366
232.485
266.307
262.99
173.414
123.137
117.183
78.8828
156.952
190.05
186.595
211.718
208.283
166.595
166.973
156.633
91.2442
1286.64
1574.98
1503.42
816.753
856.25
1106.64
144.152
258.832
237.36
183.128
179.794
150.555
375.728
311.46
138.298
754.013
1445.54
1414.35
2115.56
1818.61
1198.03
388.448
403.335
618.154
127.207
210.972
199.359
231.215
215.432
128.942
65.6271
48.2834
40.2035
1497.92
1045.7
1961.17
39.812
47.8124
56.787
1712.02
1709.64
59.8807
65.4625
73.1476
41.9199
53.3216
47.0667
471.282
577.598
631.939
204.313
261.352
197.362
69.9139
61.3835
91.4301
48.2864
54.9035
58.6852
47.4477
51.0847
45.647
37.3469
37.1217
35.4175
48.8242
39.2396
39.8362
38.6368
39.0767
48.1204
1304.12
1712.37
1711
1286.26
1293.2
1045.9
85.9241
81.3554
131.438
57.8021
68.2706
70.6527
62.2566
65.4797
55.7477
38.5582
38.2003
36.0467
54.4325
41.1625
42.1267
40.0672
40.8695
53.6767
85.9626
82.5074
61.5799
206.411
154.683
157.876
137.702
140.332
184.823
872.352
1072.33
1047.01
1398.98
1384.43
1096.97
90.1169
89.6472
142.3
63.5285
75.5166
76.4452
72.6453
74.2617
62.4521
40.3586
39.8533
36.9343
61.8881
43.9612
45.2412
42.467
43.5704
60.7994
108.31
103.489
72.0469
334.785
213.723
217.836
189.558
193.669
266.075
549.729
699.832
674.128
1049.14
956.282
646.269
44.712
43.1257
38.1486
72.5864
47.4997
49.3101
45.701
46.9828
71.1661
142.036
134.439
87.1772
553.192
313.44
308.854
267.293
273.913
477.8
1807.33
1902.91
2352.69
355.221
656.501
581.865
490.741
474.699
390.899
50.9507
47.4445
39.9111
88.9779
52.9748
58.0552
49.9746
52.1398
86.2143
202.206
187.498
103.639
1249.75
921.138
929.805
658.893
666.836
893.034
2702.3
3497.47
299.759
599.109
2694.83
2065.19
1352.42
1191.4
687.255
125.453
192.708
164.317
293.01
266.053
155.168
84.7071
99.6661
90.6242
152.71
144.208
112.254
999.324
1259.3
1276.35
682.788
728.961
572.486
143.258
172.888
116.253
440.816
323.288
296.176
462.904
441.471
723.755
166.916
85.7098
89.6585
81.6918
84.525
163.598
56.8301
72.0583
66.9138
215.827
387.32
371.468
492.512
480.345
226.318
173.464
316.203
299.953
367.363
355.272
200.12
1131.6
1422.85
1411.51
1704.75
1691.48
1295.24
259.157
264.996
159.65
1000.44
558.433
559.19
581.508
586.727
932.959
860.685
501.127
482.8
559.111
559.785
993.004
148.921
243.006
256.143
248.221
181.923
185.675
161.125
164.414
221.855
65.0899
90.8642
87.154
299.539
381.141
374.707
444.557
440.084
349.82
246.789
508.176
496.431
366.983
358.265
285.399
711.619
1192.39
1082.3
1023.32
1001.17
814.698
252.447
244.267
172.26
635.071
490.751
501.112
280.029
293.663
585.284
865.675
567.912
575.233
511.346
521.429
754.164
173.767
261.284
254.958
434.442
254.627
260.891
222.177
226.725
368.484
77.0466
115.306
109.993
454.209
591.091
586.479
815.663
811.854
591.752
362.163
454.817
449.313
581.925
577.435
439.172
427.815
525.28
507.623
649.222
626.264
499.974
867.09
636.394
649.285
310.245
319.537
645.99
89.9653
153.477
144.732
857.417
1181.22
1179.44
608.924
821.261
818.556
1171.36
1142.99
811.553
309.619
483.569
435.9
559.8
501.51
293.675
2014.14
1637.31
1719.18
11144.2
2308.79
3523.7
936.462
942.485
1257.9
124.309
244.83
207.386
1079.38
1034.76
834.661
4807.83
4853.32
8825.7
939.501
1183.2
1128.85
36.4672
36.1969
34.7553
44.5725
38.0066
38.4966
37.0834
37.8112
43.9917
55.5907
54.149
47.7411
85.6349
62.3025
65.0142
58.6839
61.292
81.9228
932.832
1226.9
889.335
65.561
64.0721
53.8778
138.843
77.1446
80.5658
72.0003
75.9677
135.406
94.8381
89.185
136.371
65.8835
77.6639
77.7034
77.0852
77.4815
65.5452
936.85
1616.08
1394.55
1231.54
1179.19
946.891
404.62
439.551
821.621
272.914
349.439
337.711
422.102
362.329
280.917
108.933
68.5979
71.0101
65.7728
67.9094
105.917
50.1808
57.8626
56.8061
198.957