/*--------------------------------*- C++ -*----------------------------------*\
| =========                 |                                                 |
| \\      /  F ield         | OpenFOAM: The Open Source CFD Toolbox           |
|  \\    /   O peration     | Version:  v1912                                 |
|   \\  /    A nd           | Website:  www.openfoam.com                      |
|    \\/     M anipulation  |                                                 |
\*---------------------------------------------------------------------------*/
FoamFile
{
    version     2.0;
    format      ascii;
    class       volScalarField;
    location    "400";
    object      p;
}
// * * * * * * * * * * * * * * * * * * * * * * * * * * * * * * * * * * * * * //

dimensions      [0 2 -2 0 0 0 0];


internalField   nonuniform List<scalar> 
12556
(
654.836
654.059
652.133
648.097
642.671
630.559
610.868
579.431
531.909
463.301
369.68
250.629
111.651
-35.6925
-177.403
-302.193
-404.333
-483.304
-541.419
-582.419
-616.479
-632.408
-641.582
-645.895
655.302
654.8
653.474
650.477
645.06
634.724
617.186
591.08
548.168
484.445
394.687
276.694
134.824
-18.5823
-167.112
-297.412
-403.039
-483.8
-550.579
-589.134
-622.611
-636.724
-644.725
-648.462
656.491
656.615
656.625
655.857
652.014
645.813
633.907
612.26
576.962
520.174
433.176
309.018
149.89
-25.9542
-192.869
-331.972
-437.958
-514.064
-576.279
-608.325
-636.959
-647.13
-652.643
-655.183
657.864
658.868
660.727
663.047
661.981
661.816
658.335
645.266
623.483
581.27
503.753
372.465
180.436
-42.1394
-243.395
-395.243
-499.011
-565.851
-616.132
-637.419
-657.76
-662.234
-664.191
-665.015
658.471
660.473
664.416
670.3
673.077
680.393
687.99
687.994
686.731
671.345
621.143
492.014
237.953
-83.5596
-343.511
-506.812
-594.745
-638.66
-668.832
-674.674
-682.203
-679.454
-677.095
-675.839
657.346
660.342
666.364
675.86
683.15
698.368
717.861
733.832
760.413
789.047
802.448
725.795
354.61
-208.324
-549.894
-686.133
-727.187
-732.048
-730.624
-716.208
-707.163
-696.254
-689.164
-685.643
653.576
657.441
665.271
677.927
689.833
712.192
742.477
774.31
828.518
908.215
1032.83
1211.77
712.465
-656.02
-945.217
-946.652
-893.399
-837.376
-793.568
-756.577
-728.836
-709.838
-698.15
-692.443
646.339
650.838
659.963
674.876
690.847
718.425
756.318
800.197
872.613
982.849
1171.91
1578.41
-2042.89
-1562.03
-1255.82
-1063.36
-936.347
-847.042
-788.648
-742.93
-717.179
-701.711
-694.206
635.009
639.83
649.592
665.621
684.653
714.834
756.05
805.81
882.361
988.335
1129.01
1262.67
-3473.94
-2069.66
-1494.53
-1187.35
-1004.44
-878.772
-805.147
-745.61
-715.604
-697.795
-689.161
619.247
624.054
633.755
649.69
670.535
700.661
741.199
791.324
862.545
952.144
1051.32
1128.6
-3395.55
-2137.57
-1549.7
-1219.48
-1020.72
-879.748
-800.979
-734.419
-703.421
-685.089
-676.17
599.03
603.506
612.493
627.224
648.617
676.423
713.219
760.007
822.409
898.499
982.647
1061.4
-2623.27
-1846.83
-1420.79
-1152.8
-980.119
-847.736
-775.177
-709.063
-680.345
-663.307
-654.949
574.618
578.487
586.219
598.876
619.663
643.368
674.216
715.17
767.079
832.174
913.256
1014.19
-1750.11
-1401.78
-1180.97
-1014.87
-893.955
-788.2
-730.373
-671.279
-647.459
-633.172
-626.076
546.551
549.619
555.7
565.528
584.702
603.088
626.5
659.507
698.298
748.761
820.686
939.544
-768.451
-911.785
-953.155
-910.831
-845.598
-782.059
-711.053
-672.021
-624.332
-606.861
-596.202
-590.823
515.499
517.702
522.013
528.867
545.744
558.209
573.214
596.825
619.47
647.054
683.974
779.926
225.216
-387.104
-600.212
-670.489
-679.62
-664.257
-626.966
-606.491
-571.87
-561.144
-554.39
-550.895
482.281
483.535
485.913
489.529
503.503
509.581
515.762
528.999
533.949
533.404
516.904
453.061
179.552
-167.873
-378.762
-488.092
-537.61
-554.642
-544.334
-539.517
-517.407
-512.922
-509.813
-508.13
447.723
448.055
448.576
449.143
460.162
460.465
458.81
462.332
452.354
430.536
384.522
292.716
125.424
-87.1014
-253.323
-362.156
-425.911
-460.225
-468.267
-475.053
-463.648
-464.364
-464.354
-464.248
412.645
412.167
411.074
409.013
417.167
412.556
404.547
400.275
379.81
345.53
291.433
206.792
88.6033
-54.9117
-179.924
-274.569
-339.612
-381.288
-401.023
-415.516
-412.453
-417.149
-419.567
-420.685
377.794
376.646
374.239
370.065
375.666
367.287
354.72
344.969
318.683
279.993
226.803
154.242
64.5574
-39.9421
-135.746
-214.683
-274.624
-317.569
-343.181
-362.035
-364.964
-372.391
-376.57
-378.57
343.779
342.115
338.706
332.968
336.456
325.476
310.048
296.953
268.328
229.595
180.6
119.263
48.2474
-31.8526
-107.205
-172.597
-225.624
-266.498
-294.147
-314.905
-321.698
-330.769
-336.071
-338.686
311.07
309.041
304.941
298.164
300.001
287.458
270.568
255.789
227.042
190.392
146.476
94.5801
36.7668
-26.8337
-87.4891
-141.878
-187.975
-225.346
-252.738
-273.759
-282.778
-292.625
-298.527
-301.474
280
277.748
273.236
265.877
266.496
253.232
235.926
220.634
193.055
159.399
120.51
76.393
28.4379
-23.3166
-73.0495
-118.598
-158.393
-191.826
-217.709
-237.971
-248.016
-258.007
-264.11
-267.182
250.781
248.425
243.735
236.166
235.942
222.597
205.605
190.574
164.848
134.478
100.238
62.5408
22.249
-20.5973
-61.9491
-100.352
-134.623
-164.163
-187.928
-206.852
-217.091
-226.798
-232.813
-235.859
223.518
221.154
216.47
208.98
208.221
195.251
179.055
164.766
141.211
114.112
84.0612
51.7107
17.5618
-18.3376
-53.0731
-85.6307
-115.127
-141.029
-162.441
-179.737
-189.631
-198.778
-204.513
-207.428
198.23
195.931
191.393
184.191
183.14
170.854
155.749
142.483
121.204
97.2084
70.9032
43.0604
13.9567
-16.3655
-45.7478
-73.4599
-98.8392
-121.432
-140.467
-156.032
-165.249
-173.677
-179.011
-181.73
174.87
172.689
168.397
161.629
160.471
149.065
135.216
123.123
104.103
82.9837
60.0228
36.0273
11.1485
-14.5894
-39.5499
-63.1917
-85.0121
-104.634
-121.38
-135.219
-143.573
-151.202
-156.067
-158.552
153.344
151.318
147.341
141.103
139.975
129.561
117.043
106.188
89.3449
70.8626
50.8927
30.2198
8.93682
-12.9584
-34.2006
-54.3796
-73.1087
-90.0782
-104.676
-116.856
-124.255
-131.061
-135.427
-137.66
133.527
131.681
128.061
122.41
121.415
112.048
100.878
91.2724
76.4903
60.4164
43.1297
25.3581
7.17778
-11.4425
-29.5098
-46.7073
-62.7347
-77.3385
-89.9481
-100.568
-106.981
-112.972
-116.834
-118.81
115.27
113.617
110.38
105.346
104.559
96.2536
86.4135
78.0372
65.1888
51.3152
36.4465
21.2352
5.76547
-10.0226
-25.3413
-39.9426
-53.5915
-66.081
-76.8632
-86.0319
-91.4629
-96.6688
-100.036
-101.76
98.4092
96.9569
94.1157
89.7087
89.1864
81.9345
73.3859
66.2027
55.1598
43.302
30.6244
17.6952
4.62056
-8.68574
-21.5945
-33.9102
-45.4486
-56.0408
-65.1454
-72.9727
-77.4436
-81.9026
-84.7943
-86.2754
82.7782
81.5292
79.087
75.3066
75.0917
68.8702
61.5646
55.5316
46.1732
36.1704
25.4916
14.6172
3.68242
-7.42155
-18.1916
-28.4731
-38.1221
-47.0017
-54.5626
-61.1512
-64.692
-68.4458
-70.8847
-72.1336
68.1979
67.1527
65.1087
61.9492
62.0805
56.8615
50.7483
45.8211
38.0378
29.752
20.9104
11.9055
2.90394
-6.22139
-15.0701
-23.5207
-31.462
-38.7839
-44.9173
-50.3585
-52.9952
-56.0832
-58.0915
-59.1193
54.5206
53.6753
52.0243
49.475
49.9759
45.7276
40.7586
36.8966
30.5925
23.9071
16.7683
9.48251
2.24792
-5.07731
-12.1786
-18.9622
-25.3437
-31.2357
-36.0386
-40.4109
-42.1758
-44.6349
-46.2352
-47.0546
41.4865
40.8457
39.589
37.6497
38.592
35.3017
31.4358
28.6042
23.6977
18.5154
12.9699
7.2835
1.68436
-3.98133
-9.47288
-14.7197
-19.66
-24.2256
-27.7756
-31.1418
-32.007
-33.8604
-35.0665
-35.6812
29.2327
28.771
27.886
26.5251
27.8257
25.4353
22.6365
20.8091
17.2319
13.4721
9.43174
5.25251
1.18895
-2.92504
-6.91381
-10.7261
-14.3186
-17.6391
-19.995
-22.4097
-22.5038
-23.7942
-24.636
-25.0743
16.5579
16.3429
15.875
15.1542
17.3493
15.9717
14.2218
13.3927
11.0875
8.68048
6.0759
3.33759
0.743149
-1.89806
-4.46534
-6.92133
-9.23793
-11.3742
-12.5663
-14.062
-12.8569
-13.5496
-13.9992
-14.205
7.47353
7.28775
7.05882
6.64294
7.57612
6.68137
5.95953
6.25844
5.16917
4.04159
2.82652
1.46831
0.344719
-0.884696
-2.09206
-3.24968
-4.34437
-5.34412
-5.28124
-5.9398
-5.67473
-6.04282
-6.25003
-6.42199
1294.71
-3684.61
-2132.82
1138.89
-3693.08
-3771.67
1067.98
-2851.69
-3613.16
1020.8
-1907.04
-2731.96
946.835
-824.322
-857.822
-1028.41
-1791.69
805.956
313.21
-780.43
178.635
-400.098
-932.866
1579.78
872.623
-1826.72
-482.501
-4590.13
-2456.39
-3388.13
-2183.73
-1666.98
1069.98
1131.14
1252.75
-5198.35
-5291.22
-3460.43
-2386.06
-2291.6
999.206
1058.52
1120.12
1099.81
1123.48
1160.76
-3963.51
-4647.29
-2731.22
-2101.52
-2349.95
931.776
1006.63
1051.56
1043.94
1081.8
1090.94
-2673.83
-3226.31
847.464
934.729
999.438
985.714
1049.46
1068.62
-1562.32
-1491.38
-1999.41
721.919
794.201
922.87
893.982
993.749
1014.83
519.557
284.551
321.735
1536.05
1257.04
2168.86
1605.55
-5283.76
-4661.65
-3218.57
-4473.45
-5141.62
1164.12
1181.73
1176.51
1179.33
1167.84
1239.04
1182.09
-4686.63
-5178.76
-3780.77
-5059.23
-4602.24
-5150.55
-5077.67
-3799.89
1093.43
1118.32
1091
1121.57
1095.58
1165.9
1124.43
-3307.12
-3910.84
-3201.45
-3814.91
-3237.47
-4563.12
-3905.21
-3313.3
1070.2
1081.66
1038.46
1084.85
1074.32
1094.14
1084.68
-2073.16
-2596.92
1017.22
1047.96
980.17
-1525.66
1053.42
1021.81
1072.71
1055.08
-1560.44
-967.169
-1421.15
-1518.55
1028.91
993.811
883.506
-59.7596
1000.59
915.734
1019.79
1000.13
-136.155
1147.67
1280.87
1493.33
1469.62
1597.78
2049.52
-5232.25
-2677.74
1193.22
1185.78
1253.11
-3192.64
-1857.57
-1601.31
-1987.42
-1930.82
-1868.59
-2129.09
-187.849
-476.072
-834.273
1271.52
1536.06
1421.51
1215.56
2964.84
2137.28
-2386.01
-4308.41
-2989.52
-2170.61
-2457.31
-2258.34
-2552.09
-2044.8
-3159.88
-2626.59
-2376.77
-1153.05
-337.683
-476.014
1426.09
1789.88
2190.08
-2062.28
-302.322
1237.73
-5368.56
-3908.58
-5259.86
-2621.27
-5080.68
-3586.63
-5259.16
-5268.18
-4291.81
-4338.31
-2836.81
-3132.13
-2906.8
-3109.51
-2811.53
-3478.34
-3154.78
-2985.85
1058.08
1030.3
1019.9
-1539.97
-1786.21
-1862.29
1000.55
961.542
946.307
980.34
966.306
1001.6
1412.93
1235.98
1375.22
1256.1
1454.16
1166.18
1237.6
1336.81
1956.19
2124.9
2819.46
1503.92
2022.81
1862.22
2019.41
1471.15
-5108.16
-5071.58
1173.53
1170.75
1173.07
1202.97
1153.83
1166.04
1167.15
1155
1195.68
-4926.43
-4956.43
-4865.21
-4315.27
-4408.2
-4127.92
-4274.53
-4835.02
-5152.18
-4452.97
-4390.64
-4428.85
-4457.12
-5143.48
1106.58
1104.66
1148.99
1145.61
-3554.97
-3509.79
-3600.95
1080.94
1079.88
1086.85
1086.3
-2766.98
-2477.27
-2370.19
-2497.56
-2788.53
1027.49
998.445
984.817
1016.03
1003.12
1030.84
-1199.05
1034.92
1031.16
1062.85
1062.21
-1871.67
-1198.31
-1213.57
-1458.32
939.968
916.959
985.83
999.945
470.436
158.898
1007.95
-331.72
112.633
-249.89
1007.59
-387.307
-277.532
80.8649
-2946.13
-2058.87
-2196.31
556.988
533.605
760.059
653.139
658.006
950.534
196.669
-121.831
-293.653
3945.19
-2227.6
-2376.32
-894.206
-1132.17
-1153.14
-138.349
-374.327
-115.624
2324.58
2546.47
3005.05
-2184.41
-52.3063
1778.8
-5239.17
-5735.69
-5699.37
-5294.85
-4102.81
-4288.61
-4115.43
-4894.96
-4760.01
-4522.09
1084.21
1069.11
1063.22
1079.02
1071.36
1085.19
1042.49
1033.49
1059.07
995.133
975.67
970.661
853.375
591.498
341.308
-5224.66
-5676.63
-5751.24
-4922.54
-4083.56
-3743.97
-4351.57
-4168.25
-4953.14
-4796.91
-5058.51
-4942.14
-5095.46
1101.92
1091.69
1081.94
1100.9
1102.74
1098.85
-4061.66
-3909.89
-3776.83
-3558.7
-3321.64
-3535.18
-4270.77
-3883.73
-4070.96
-3606.71
-3816.42
-4225.74
1076.47
1052.89
1045.36
1061.32
1055.22
1077.53
1084.65
1098.27
1094.59
1086.61
1097.47
1078.5
1090.55
1094.77
1099.69
1092.95
1090.04
1084.55
-2295.52
-2437.25
-2166.2
-1392.11
-1386.17
1047.75
1017.63
1067.34
1074.99
1085.84
1077.54
1057.81
-1689.55
902.276
906.353
869.76
968.676
960.593
990.238
125.868
372.634
135.178
1000.77
442.395
670.676
506.376
613.457
1008.95
1005.19
-4526.56
-3108.86
-4143.17
-3306.96
-3361.52
-1890.16
-2016.67
-2035.31
1190.67
1180.25
2667.93
2949.3
3617.67
2740.53
2536.08
-2528.71
-2380.56
-2332.94
-2388.75
-2547.39
-1169.63
-1004.61
-1011.04
-1011.91
-1174.33
-803.64
-961.351
-583.832
-600.194
-754.878
-395.339
-547.797
-487.361
-5600.54
-4943.59
-4456.01
-5380.5
-5076.48
-4265.41
-3574.5
-4251.08
-5592.45
-5552.83
-5243.34
-5290.47
-5676.79
-5613.7
-4498.67
-4341.87
-4151.19
-4395.41
-4564.2
-4171.37
-4346.19
-4606.76
-4477.08
-4716.61
-4546.37
-2965.69
-3017.33
-2986.53
-2903.88
-3025.75
-3338.44
-3237.83
-3367.73
-3066.87
-3194.81
-3289.66
-1742.21
-1716.54
-1845.65
982.613
977.742
992.5
1003.25
989.907
985.131
1314.07
1291.79
1317.55
1390.36
1320.56
1524.87
1419.07
1343.5
1192.97
1242.74
1213.09
1301.49
1255.2
1203.76
1678.64
1718.91
1566.79
1727.72
1647.63
-5616.71
-5649.28
-5199.3
-5773.22
-5771.8
-5769.03
-5608.34
-5469.01
-5778.78
-5641.28
-4928.93
-5455.65
-5601.94
1168.54
1173.11
1175.54
1174
1173.49
1170.77
1181.67
1183.25
1177.75
1180.66
1155.69
1186.84
1179.05
1206.38
1190.61
1155.99
1164.52
1174.74
1173.81
1177.49
1175.37
1165.16
-5193.25
-5094.69
-4831.33
-5059.09
-5330.02
-5217.06
1115.38
1110.42
1125.36
1116.06
1103.73
1103.08
1107.89
1103.63
1170.54
1159.28
1182.52
1174.03
1138.92
1127.77
1155.4
1143.42
-3580.98
-3716.1
-3410.97
-3539.05
-3635.16
-3958.3
-4112.45
-3761.89
-3910.22
1091.03
1097.22
1084.03
1102.71
1093.48
1097.47
1104.49
1092.9
1078.45
1097.03
1089.83
1093.09
1093.66
1089.2
1097.29
1096.59
1101.75
1096.97
1090.79
1094.99
1091.52
1090.28
1084.77
1089.76
1091.44
-2557.54
-2623.52
-2685.01
-2545.16
-2731.59
-2663.43
-1185.19
-1343.66
-1377.02
-1181.79
1045.84
1022.46
1072.06
1073.08
1065.81
1059.32
1079.51
1073.35
-1762.63
986.059
956.717
948.711
648.831
549.829
999.687
244.412
413.857
299.658
1005.54
-484.074
-47.0681
182.754
-90.715
991.651
-1787.3
-1461.86
-919.47
-2183.08
-2235.33
-1040.4
-1074.47
-1466.28
-2246.11
-966.448
-958.83
-807.259
-1973.69
-1510.73
-1452.18
3026.56
3371.66
3954.28
-1921.98
315.414
2430.04
-1061.43
-606.092
-2053.42
-4268.94
-4838.18
-5145.29
1140.69
1127.04
1112.48
1146.1
1132
1146.38
-1543.15
-1672.84
-1690.46
-2085.83
-1845.14
-1778.95
998.531
992.674
1006
-5236.15
-5408.1
-4884.64
1107.85
1095.4
1105.44
1114.41
1116.31
1125.01
1127.45
1137.73
1133.08
1017.04
1005.8
1001.16
-1540.77
-1495.22
-1484.1
1026.43
1031.33
1023.42
-1622.9
-1637.49
-1549.98
-1382.55
-1368.59
-1500.2
1002.14
1018.13
1025
1024.86
996.451
-5097.63
-3224.48
-1909.82
-1968.53
-1976.12
-2178.03
-2046.99
-2006.77
1200.42
-3599.75
-3075.11
-3637.69
-2292.74
-2349.88
-2217.05
-810.314
-825.74
-657.604
-658.579
-753.606
-1076.2
-430.648
-2202.52
-5423.36
-5176.73
-5002.33
-5716.74
-5655.82
-2879.7
-2909.52
-2863.78
-3148.38
-3139.38
-3112.87
-2738.73
-2860.29
-2939.55
-3446.29
-3396.76
-3440.8
-1854.23
-1831.25
-1861.31
1369.5
1400.83
1255.37
1275.37
1301.25
1281.32
1167.95
1186.84
1181.67
1262.94
1246.93
1222.53
1976.58
1779.08
1752.99
1914.16
1872.4
2013.88
1446.14
1488.31
1521.03
1168.25
1170.27
1179.97
1170.91
1171.86
1172.12
1193.26
1195.58
1182.33
1181.7
1156.04
1163.33
1162.03
1178.07
1174.12
1163.32
1163.26
1166.76
1168.82
1162.19
1164.14
1159.39
1109.54
1114.74
1112.12
1100.31
1103.29
1107.51
1156.68
1167
1157.14
1168.54
1164.23
1196.77
1193.24
1128.85
1159.88
1155.55
1136.48
1141.71
1153.03
-3733.57
-3785.58
-3481.49
-3528.51
-3553.39
-3837.56
-3859.23
-3728.09
-3862.46
-3721.52
1014.9
1008.42
1019.3
1040.13
1024.68
1018.05
1038.68
1044.03
1039.08
1027.97
1031.55
1034.51
-1869.05
959.376
959.574
965.711
734.714
967.36
343.061
486.643
612.231
1014.01
1011.11
1007.07
-389.836
-245.562
-219.545
-233.161
1005.04
1011.7
1014.44
-123.464
-197.199
-345.738
-2097.83
-2132.27
-2220.83
-2174.74
-2154.55
3768.18
4396.28
3453.76
-2275.31
-2303
-2234.23
-2394.29
-2342.92
-2329.71
-1030.46
-127.235
-1999.61
-5480.1
-5486.73
-5436.85
-5456.91
-5724.16
-5589.9
-5597.29
-5571.32
-5582.08
-5713.3
-4855.62
-4779.25
-4821.11
-4685.82
-4735.78
-4811.81
-5723.22
-5566.93
-5534.3
-5601.9
-5592.94
-5752.1
-5016.32
-4939
-4977.09
-4863.55
-4901.89
-4982.14
-5404.39
-5422.05
-5332.42
-5370
1097.59
1092.9
1093.05
1087.65
1084.56
1082.9
1088.99
1087.14
1091.34
-1498.21
-1550.5
-1384.32
-1454.68
1058.08
1059.38
1059.9
1057.34
1017.98
1021.24
1031.09
1014.93
1078.26
1075.9
1073.31
1081.42
1078.98
1082.64
1067.56
1066.15
1070.56
1054.86
1060.63
-1698.94
-1689.96
-1677.7
-1554.76
935.41
995.683
1150.2
992.553
982.204
979.508
1002.97
377.273
357.544
1136.01
1003.22
765.81
1010.01
1019.51
1014.41
999.299
-4768.92
-5050.8
-4854.87
-3918.31
-3703.25
-2855.7
-4567.8
-4261.45
-3262.37
-3390.07
-2030.26
-2017.2
-2027.84
1195.11
1162.42
3188.27
3074.03
2891.22
2253.26
2119.64
2684.63
2438.99
2518.3
-2455.6
-2401.17
-2495.51
-1023.69
-1023.85
-1013.26
-1118.12
-839.768
-824.361
-810.862
-954.014
-904.405
-896.5
-584.681
-642.708
-642.458
-469.006
-470.092
-514.511
-5454.61
-5330.33
-5518.93
-5284.85
-5512.26
-5597.97
-5628.24
-5574.11
-5568.59
-5474.44
-5489.61
-5474.71
-5462.19
-5550.27
-5651.44
-5537.82
-5555.93
-5506.06
-5521.56
-5632.84
-4449.72
-4377.4
-4425.79
-4447.59
-4509.77
-4222.19
-4246.7
-4212.13
-4294.96
-4657
-4697.25
-4662.3
-4577.66
-4632.81
-4474.4
-4525.83
-4602.15
-3002.33
-2929.45
-2915.29
-2943.57
-2878.19
-2929
-3069.55
-3096.54
-3045.98
-3302.4
-3344.16
-3373.08
1339.03
1272.28
1209.7
1195.61
1175.35
1212.53
1233.84
1221.98
1686.29
1764.97
1817.77
2002.38
1888.57
1578.58
1542.37
1612.13
-5627.35
-5456.44
-5437.75
-5500.25
-5476.42
-5639.97
-5780.45
-5772.27
-5580.46
-5752.2
-5757.9
-5699.25
-5745.18
-5540.07
-5764.71
-5779.06
-5824.15
-5700.91
1170.31
1171.77
1169.35
1172.22
1171.89
1171.32
1187.79
1190.43
1182.82
1185.24
1165.01
1164.29
1156.58
1158.91
1169.88
1166.65
1166.93
1166.27
1162.54
1163.23
1166.12
1167.1
-5164.12
-5079.75
-5109.33
-5011.79
-5045.61
-5126.5
-5286.79
-5213.3
-5283.13
-5136.44
-5167.71
-5248.31
1114.34
1115.44
1115.51
1111.44
1114.2
1112.69
1121.04
1118.46
1125.89
1114.5
1114.5
1117.59
1103.91
1105.52
1104.48
1105.7
1106.01
1103.74
1105.75
1105.35
1108.05
1103.35
1103.5
1104.25
1177.57
1173.07
1166.92
1170.24
1174.18
1162
1166.11
1163.13
1186.84
1181.72
1143.03
1139.93
1135.04
1137.77
1140.87
1130.21
1125.39
1129.14
1151.47
1153.75
1157.89
1145.56
1149.64
1147.47
1151.48
1147.42
-3664.5
-3693.01
-3607.91
-3578.65
-3613.59
-4003.85
-4035.22
-3994.92
-4149.3
-4085.84
-4054.34
-3804.14
-3840.16
-3806.56
-3949.97
-3905.42
-3857.83
1092.28
1088.97
1087.6
1092.31
1090.74
1094.68
1098.29
1094.84
1100.2
1102.62
1094.38
1085.13
1081.81
1082.76
1086.66
1086.08
1085.76
1091.42
1086.75
1089.36
1099.66
1097.55
1100.05
1101.86
1104
1099.56
1100.56
1098.68
1091.59
1092.96
1089.47
1089.72
-2640.98
-2622.61
-2671.97
-2533.18
-2578.04
-2612.2
-2794.12
-2829.29
-2714.34
-2727.78
-2739.26
-1313.45
-1313.88
-1369.74
-1191.95
-1247.74
-1261.33
1048.67
1041.41
1059.71
1056.1
1027.95
1028.29
1024.57
1030.88
1030.23
1036.63
1033.7
1071.77
1069.9
1069.79
1071.58
1070.5
1072.1
1078.16
1071.95
1071.21
1070.24
1071.12
1075.71
-1811.82
975.136
972.008
984.111
604.816
628.768
700.609
558.469
568.392
542.083
1000.47
346.889
291.869
220.438
1005.63
1007.38
1005.39
-461.147
45.7761
-18.4367
162.616
151.723
162.688
-39.1966
-166.203
-151.479
-48.3368
1001.78
1011.1
1004.68
605.829
579.485
560.412
568.186
526.531
502.308
509.1
446.439
419.276
420.997
332.807
308.061
298.566
186.018
171.142
144.895
18.949
19.0705
-23.8588
-146.07
-132.091
-184.955
-289.655
-267.693
-321.362
-403.365
-379.551
-427.347
-487.555
-466.126
635.99
618.217
587.563
610.188
577.707
536.962
563.374
506.797
458.374
482.443
390.233
343.862
352.608
220.37
192.381
170.909
15.3044
18.3568
-36.6201
-183.022
-153.006
-227.293
-343.045
-300.132
-375.931
-458.111
-414.327
-480.581
-535.955
-497.359
676.677
672.314
630.416
669.503
654.275
594.449
646.041
606.414
527.488
586.437
496.743
411.203
454.628
287.497
233.253
219.895
2.15471
13.4201
-69.113
-258.781
-197.209
-311.733
-439.153
-362.161
-472.549
-549.071
-476.852
-567.699
-608.529
-552.066
722.533
737.089
688.003
741.885
754.936
677.317
757.93
756.827
638.913
750.542
691.933
534.948
650.882
425.942
312.779
316.374
-49.5868
-4.8499
-162.089
-421.558
-288.142
-483.516
-609.142
-473.574
-634.372
-681.538
-578.157
-690.487
-705.01
-630.427
765.252
799.495
753.423
813.03
861.375
782.141
880.663
949.502
802.809
975.695
1049.62
762.968
1056.9
778.367
483.222
648.423
-293.639
-80.2367
-482.733
-783.164
-487.131
-824.415
-872.394
-664.846
-873.777
-858.56
-721.769
-849.943
-820.803
-732.653
795.557
844.816
813.037
864.734
939.354
885.055
970.835
1097.94
996.013
1157.1
1492.56
1168.73
1396.96
1554.24
1169.4
1000.66
-111.615
134.357
-957.473
-1010.04
-791.582
-1398.12
-1227.77
-955.207
-1179.35
-1056.9
-907.945
-1022.87
-937.434
-850.758
806.412
861.314
851.795
883.089
961.233
950.288
992.339
1104.29
1112.53
1172.63
1239.51
1242.98
1554.83
1643.74
1680.33
-2761.94
-2282.81
-1817.97
-1979.02
-1550.43
-1318.88
-1449.35
-1221.39
-1103.99
-1163.7
-1027.73
-963.719
796.708
849.454
860.763
869.712
938.13
958.624
963.361
1043.47
1091.19
1109.19
1141.56
1167.66
1235.77
1237.83
1266.43
-3588.98
-2926.8
-2791.45
-2162.11
-1672.9
-1604
-1555.05
-1288.43
-1249.06
-1221.18
-1063.53
-1042.53
769.263
816.223
842.88
833.988
892.182
928.223
913.054
977.837
1026.94
1033.37
1054.7
1073.96
1118.7
1127.5
1141.71
-3141.27
-2695.14
-2842.36
-1941.27
-1563.85
-1665.15
-1466.79
-1237.55
-1286.35
-1177.61
-1033.75
-1062.1
727.532
767.124
805.293
782.215
831.907
878.39
850.125
910.048
961.483
966.109
987.316
1003.34
1055.27
1066.58
1074.58
-2294.6
-2069.72
-2315.56
-1518.41
-1306.35
-1509.24
-1246.71
-1095.87
-1208.93
-1053.88
-948.262
-1016.8
674.322
704.86
752.722
716.685
756.388
814.585
771.514
825.359
891.199
893.447
918.53
936.551
1007.14
1025.45
1034.73
-1432.89
-1425.35
-1602.66
-1059.43
-999.777
-1230.82
-977.431
-910.208
-1051.68
-888.753
-829.274
-920.62
612.405
631.667
687.457
639.066
663.564
734.779
672.819
706.749
799.4
791.049
812.594
858.763
923.072
955.165
970.322
-507.162
-588.411
-816.59
-487.783
-646.942
-954.339
-676.068
-720.588
-925.14
-725.663
-723.721
-862.284
-719.399
-700.629
-797.157
545.957
552.857
613.216
555.11
560.367
639.669
561.268
559.773
673.117
641.616
648.721
712.917
737.259
741.647
823.934
251.876
20.9528
-84.6258
-203.713
-381.3
-565.06
-422.91
-509.164
-660.732
-527.939
-563.651
-680.593
-570.313
-580.039
-669.196
478.693
474.435
532.929
472.063
460.608
534.511
454.632
426.958
523.669
413.585
352.038
472.79
322.914
191.31
265.511
137.758
-45.4232
-92.986
-100.591
-241.072
-337.574
-278.9
-367.022
-467.75
-389.201
-439.046
-529.121
-451.034
-476.539
-552.371
415.21
402.497
455.671
396.9
374.549
437.681
364.813
327.086
399.019
311.549
248.613
320.817
224.188
130.616
172.505
96.3663
-22.9041
-37.169
-60.6709
-164.426
-217.268
-194.77
-272.097
-339.882
-293.442
-345.393
-413.263
-359.096
-391.239
-453.694
358.106
340.242
385.973
332.9
305.749
355.769
294.785
255.89
306.974
240.913
184.788
229.878
165.325
94.502
119.93
69.6894
-15.3851
-20.2367
-42.8031
-121.02
-151.331
-144.947
-209.003
-253.851
-227.662
-275.676
-325.829
-289.16
-322.861
-372.593
308.28
287.987
326.272
279.996
251.842
291.012
241.008
204.433
241.477
190.823
142.543
172.657
126.84
70.9817
87.7137
51.7846
-12.5869
-14.4255
-33.4942
-94.2534
-113.17
-113.322
-165.972
-196.735
-181.855
-224.258
-261.361
-236.655
-268.904
-308.171
265.47
244.592
276.364
236.614
209.439
240.286
199.323
166.207
193.832
154.121
112.95
134.193
100.029
54.7271
66.3706
39.2893
-11.3793
-12.197
-27.9074
-76.3767
-89.1439
-91.8212
-135.314
-157.364
-148.739
-185.483
-213.555
-196.523
-226.041
-257.281
228.898
208.557
234.952
200.956
175.689
200.286
166.507
137.022
158.19
126.391
91.2793
106.92
80.4652
43.0095
51.4455
30.2869
-10.6958
-11.1815
-24.1024
-63.5897
-72.8018
-76.2889
-112.516
-129.006
-123.871
-155.488
-177.28
-165.169
-191.563
-216.743
197.647
178.473
200.529
171.429
148.436
168.337
140.231
114.179
130.799
104.872
74.8472
86.7581
65.6762
34.2896
40.5912
23.6339
-10.1509
-10.5549
-21.2249
-53.9102
-60.9324
-64.4817
-94.9004
-107.704
-104.535
-131.688
-149.037
-140.114
-163.411
-184.016
170.85
153.162
171.739
146.747
126.108
142.444
118.842
95.9149
109.239
87.7886
62.0367
71.3542
54.1832
27.6383
32.4592
18.6174
-9.60647
-10.0178
-18.8709
-46.2413
-51.8354
-55.1258
-80.8371
-91.0996
-89.0406
-112.359
-126.49
-119.665
-140.072
-157.189
147.747
131.676
147.464
125.908
107.557
121.154
101.157
81.0393
91.9163
73.9558
51.8186
59.2717
45.0488
22.4624
26.2229
14.7728
-9.01967
-9.46477
-16.8377
-39.9424
-44.5568
-47.46
-69.2995
-77.7469
-76.303
-96.3351
-108.08
-102.655
-120.441
-134.866
127.708
113.276
126.812
108.139
91.9406
103.406
86.3235
68.7267
77.7479
62.5625
43.5113
49.5852
37.6532
18.3674
21.3485
11.7869
-8.38504
-8.86573
-15.0185
-34.6224
-38.5324
-41.0108
-59.619
-66.7259
-65.6074
-82.8137
-92.7455
-88.2701
-103.711
-116.025
110.209
97.3761
109.086
92.8405
78.6309
88.4178
73.7215
58.3868
65.9765
53.0354
36.6449
41.6758
31.5688
15.0809
17.4776
9.44134
-7.71081
-8.22017
-13.3547
-30.0302
-33.4139
-35.4699
-51.3438
-57.4327
-56.465
-71.2281
-79.754
-75.9274
-89.2806
-99.9182
94.8236
83.5184
93.7361
79.5461
67.1594
75.6066
62.8908
49.59
56.0577
44.9608
30.8862
35.1133
26.4922
12.4091
14.3605
7.58034
-7.00917
-7.5379
-11.8121
-25.9983
-28.9751
-30.629
-44.1594
-49.4555
-48.5323
-61.1687
-68.5834
-65.2022
-76.6995
-85.9867
81.1977
71.3344
80.3283
67.8852
57.1665
64.5349
53.4801
42.0145
47.593
38.0306
25.9911
29.5905
22.2008
10.2106
11.8186
6.0897
-6.29197
-6.83132
-10.3697
-22.409
-25.0634
-26.3405
-37.8383
-42.5055
-41.5591
-52.3301
-58.8545
-55.7754
-65.6189
-73.8087
69.0375
60.526
68.5135
57.5612
48.3714
54.8651
45.2158
35.4139
40.2817
32.0108
21.7768
24.8807
18.5274
8.37996
9.72085
4.88422
-5.5692
-6.11185
-9.01302
-19.1766
-21.5704
-22.4963
-32.211
-36.3719
-35.3576
-44.4789
-50.2822
-47.401
-55.7646
-63.0564
58.0967
50.8494
58.0093
48.3332
40.55
46.3328
37.8809
29.5961
33.8933
26.7197
18.103
20.8134
15.3437
6.83672
7.96883
3.89925
-4.84866
-5.38902
-7.7315
-16.2357
-18.4164
-19.0137
-27.1467
-30.8965
-29.7828
-37.4322
-42.6479
-39.8856
-46.9172
-53.4718
48.1643
42.1005
48.5825
40.0011
33.5189
38.7248
31.2983
24.407
28.2459
22.0119
14.8586
17.2563
12.5482
5.51819
6.48706
3.08467
-4.13585
-4.66998
-6.51609
-13.5344
-15.5399
-15.827
-22.5411
-25.9558
-24.7184
-31.0416
-35.7779
-33.0714
-38.8951
-44.8454
39.0595
34.1073
40.0375
32.3972
27.126
31.8665
25.3219
19.7206
23.1933
17.7696
11.9546
14.1046
10.0595
4.37468
5.21653
2.40109
-3.4344
-3.95973
-5.35873
-11.03
-12.8915
-12.8824
-18.3088
-21.4509
-20.0692
-25.185
-29.5314
-26.8283
-31.5468
-37.0039
30.6232
26.7208
32.2091
25.3767
21.2414
25.6121
19.8272
15.4306
18.6154
13.8934
9.31643
11.2735
7.80996
3.36572
4.11014
1.8169
-2.74606
-3.26146
-4.25146
-8.68585
-10.4304
-10.134
-14.3773
-17.3001
-15.7543
-19.7584
-23.7914
-21.0451
-24.7417
-29.8019
22.7164
19.8119
24.9534
18.8143
15.7523
19.8364
14.7061
11.4453
14.4097
10.2976
6.88042
8.6915
5.7419
2.4578
3.12935
1.30644
-2.07089
-2.57649
-3.18612
-6.46958
-8.12104
-7.54177
-10.6843
-13.4337
-11.7043
-14.6723
-18.4578
-15.6262
-18.367
-23.1134
15.2163
13.2666
18.1455
12.5989
10.5567
14.4299
9.86041
7.68005
10.4872
6.90336
4.58794
6.29671
3.80291
1.62294
2.24206
0.849501
-1.4062
-1.90432
-2.15294
-4.35102
-5.93195
-5.06886
-7.17401
-9.79138
-7.8576
-9.84795
-13.4441
-10.4874
-12.323
-16.8294
8.02347
6.98837
11.6751
6.63427
5.5592
9.29266
5.19541
4.05195
6.76414
3.63401
2.37784
4.03082
1.93865
0.842275
1.42197
0.435075
-0.74514
-1.24131
-1.13977
-2.30183
-3.83326
-2.68155
-3.79672
-6.31876
-4.1591
-5.21599
-8.67399
-5.55512
-6.52581
-10.853
1.39474
1.17691
5.44752
1.10538
0.873993
4.326
0.788371
0.494319
3.15547
0.393003
0.444651
1.81862
0.400633
-0.0279013
0.659272
-0.0941401
-0.238994
-0.576188
-0.292818
-0.460096
-1.79464
-0.517004
-0.689672
-2.9652
-0.747238
-0.922483
-4.07773
-0.981096
-1.17247
-5.10125
1302.1
1345.96
1332.27
-3564.47
-3964.9
-4152.41
-2236.77
-2612.06
-2437.3
1146.5
1160.68
1150.02
-3762.36
-4122.8
-3992.19
-4191.27
-4265.84
-3829.46
1077.73
1087.64
1075.07
-2969.89
-3177.63
-2975.31
-3939.15
-3769.22
-3521.39
1037.86
1045.76
1027
-2022.8
-2081.62
-1957.81
-2848.82
-2717.81
-2613.4
975.132
989.322
961.013
-872.935
-866.07
-818.75
-870.32
-956.39
-948.214
-1342.46
-1375.78
-985.955
-1834.62
-1712.12
-1677.12
848.885
887.748
840.792
186.612
443.354
580.202
-760.14
-608.45
-659.976
59.5081
-12.3958
117.129
-590.996
-440.345
-213.779
-863.851
-534.454
-664.115
2064.07
1706.71
1461.03
3810.42
4210.37
4740.13
1136.4
1589.39
1321.55
1139.9
2646.94
-1538
-1513.65
-1861.83
-37.0661
-385.18
-871.615
-4480.52
-4651.66
-4752.95
-2538.59
-3019.32
-2852.78
-2733.36
-2406.01
-2960.85
-2039.04
-2264.03
-2442.85
-1790.62
-2041.89
-1863.36
1094.71
1117.19
1089.33
1171.3
1141.78
1106.69
1203.06
1158.01
1188.09
-5216.04
-5345.88
-5327.19
-5439.01
-5437.26
-5295.11
-2891.66
-2922.87
-3580.86
-2390.91
-2674.11
-2657.61
-2570.82
-2646.95
-2360.41
1019.68
1036.7
1016.05
1081.95
1054.47
1030.98
1093.63
1065.54
1090.72
1108.41
1122.52
1109.07
1129.05
1125.33
1120.13
1155.44
1151.18
1156.61
-4005.48
-4061.99
-4012.71
-4730.46
-4688.87
-4606.91
-2404.21
-2618.5
-3043.56
-2202.81
-2410.31
-2284.14
-2603.67
-2518.9
-2287.19
954.43
971.174
949.271
1026.21
990.498
968.856
1021.12
1000.14
1032.41
1057.43
1064
1049.48
1082.21
1075.82
1074.73
1087.21
1084.69
1088.45
-2751.24
-2801.86
-2721.72
-3332.16
-3205.36
-3145.74
872.41
907.347
871.808
966.167
920.776
886.259
958.297
930.838
975.174
1010.94
1021.92
999.607
1053.21
1041.26
1034.9
1058.03
1055.14
1063.88
-1557.4
-1604.47
-1613.77
-1707.6
-1765.46
-1527.07
-2027.65
-1951.74
-1926.04
736.692
794.603
757.536
861.889
808.144
747.498
872.899
826.428
879.943
932.015
949.832
914.644
992.948
987.452
986.403
1009.14
1006.87
1012.42
396.652
577.765
613.1
324.982
538.177
375.995
555.993
518.914
365.351
1473.95
1434.92
1535.33
1225.95
1256.97
1278.66
2118.63
2243.09
2313.96
1601.22
1693.18
1684.28
-5269.55
-5424.77
-5436.66
-4838.73
-4917.99
-4752.12
-3554.31
-3883.65
-3409.44
-4612.43
-4333.25
-4195.37
-4804.92
-4760.86
-5079.8
1171.16
1163.47
1150.55
1184.27
1168.04
1173.1
1162.35
1166.13
1179.71
1177.09
1174.51
1175.8
1178.43
1178.53
1170.54
1224.19
1200.46
1218.62
1176.11