/*--------------------------------*- C++ -*----------------------------------*\
| =========                 |                                                 |
| \\      /  F ield         | OpenFOAM: The Open Source CFD Toolbox           |
|  \\    /   O peration     | Version:  v1912                                 |
|   \\  /    A nd           | Website:  www.openfoam.com                      |
|    \\/     M anipulation  |                                                 |
\*---------------------------------------------------------------------------*/
FoamFile
{
    version     2.0;
    format      ascii;
    class       surfaceScalarField;
    location    "400";
    object      phi;
}
// * * * * * * * * * * * * * * * * * * * * * * * * * * * * * * * * * * * * * //

dimensions      [0 3 -1 0 0 0 0];
oriented        oriented;


internalField   nonuniform List<scalar> 
25162
(
0.000432311
0.916218
0.000530573
0.916602
0.000618013
0.916563
0.000297312
0.916597
0.000373957
0.458339
0.000308509
0.458311
0.000374361
-0.000385855
-0.000472649
0.458291
0.000531553
-0.000590001
0.45824
0.000685127
-0.000787763
0.45822
0.000898021
-0.00102436
0.4582
0.00115924
-0.00129354
0.458203
0.0014257
-0.00155357
0.458232
0.0016528
-0.00172813
0.458292
0.00176965
-0.00177172
0.458368
0.0017385
-0.00167417
0.458425
0.00157924
-0.00147161
0.458453
0.00135333
-0.00122086
0.458456
0.00110011
-0.000979618
0.458464
0.000830745
-0.000784326
0.458435
0.000699213
-0.000576858
0.458451
0.000475721
-0.00180017
0.918584
0.000283989
-0.000418061
-0.00112554
0.918675
-2.54681e-05
0.91575
0.913775
0.00119311
0.915025
0.0018829
0.915912
0.00212246
0.916323
0.00058883
0.917144
0.000986855
0.458092
0.000700976
-0.458205
-0.458194
-0.000853176
0.458003
0.00104478
-0.458063
-0.00128271
0.457774
0.000738971
0.000833431
-0.228983
-0.000891003
0.228897
0.000977452
-0.00129102
-0.228931
0.228818
0.00140438
-0.00179707
-0.228888
0.228743
0.00194284
-0.00238731
-0.228883
0.228726
0.00254405
-0.00295873
-0.22893
0.228795
0.00309386
-0.00337017
-0.229045
0.228976
0.00343918
-0.00348376
-0.229193
0.229207
0.00347013
-0.00326822
-0.229311
0.229396
0.00318339
-0.00282397
-0.229379
0.229504
0.00269959
-0.00228388
-0.229389
0.229521
0.0021522
-0.00176315
-0.22937
0.229481
0.00165148
-0.458792
-0.00244173
0.460123
0.00111135
0.000109531
0.460811
-0.00172105
-0.459199
-0.00196439
0.917895
0.000750606
0.00190329
-0.00119232
0.917903
0.00026301
0.914295
0.914038
0.00151494
0.91351
0.00405057
0.913376
0.00683134
0.913542
0.00278056
0.914968
0.00622658
-0.458069
0.457917
0.0029327
-0.457842
-0.0028904
0.45852
0.0022127
-0.457384
-0.00226002
0.457198
0.00118688
0.00125881
-0.228529
-0.00146856
0.22837
0.0016282
-0.228316
-0.00220268
0.228092
0.00242689
-0.228126
-0.00319197
0.227847
0.00347038
-0.22806
-0.00438316
0.227747
0.00469673
-0.228242
-0.00559908
0.22798
0.00586063
-0.22872
-0.00647956
0.228594
0.00660509
-0.22934
-0.00671878
0.229401
0.00665697
-0.229858
-0.00625047
0.230061
0.00604748
-0.230119
-0.00530751
0.230398
0.00502846
-0.230144
-0.0041928
0.230423
0.00391456
-0.00285452
-0.230077
0.230692
0.00223918
-0.462613
0.000989481
0.461271
0.000352595
-0.459811
-0.000639767
0.459679
0.000771701
-0.000326986
0.919372
-0.000737924
-0.00041276
0.00133969
0.916237
0.000628572
0.915006
0.914666
0.000523297
0.912986
0.00113459
0.912765
0.00232378
0.912353
0.00311937
0.912078
0.00209443
-0.457185
0.456775
0.00352933
-0.460099
-0.00470544
0.457092
0.00771153
-0.458723
-0.00891886
0.460337
0.00196828
0.00533645
-0.227783
-0.00191376
0.227604
0.00209296
-0.22727
-0.00290154
0.226946
0.00322495
-0.226765
-0.00437778
0.226324
0.00481908
-0.226526
-0.00627178
0.226001
0.00679676
-0.226878
-0.00839323
0.22638
0.00889195
-0.228052
-0.0100967
0.2278
0.0103481
-0.229655
-0.0105391
0.229783
0.0104114
-0.230923
-0.00957953
0.231308
0.0091937
-0.231485
-0.00785759
0.231975
0.00736753
-0.233792
-0.00117186
0.237666
-0.00270157
-0.00279605
-0.231362
0.231298
0.00286074
-0.461054
-0.00434921
0.462031
0.00337229
-0.460259
-0.00235645
0.461087
0.0015285
0.00242863
0.91902
-0.00114121
-0.000934551
0.00177271
0.916893
0.000824163
0.915954
0.91549
0.000154091
0.912832
0.000353483
0.912566
0.000693124
0.912013
0.00125847
0.911061
0.00045108
-0.456526
0.455756
0.00202859
-0.455711
-0.0024173
0.455127
0.00300105
-0.454311
-0.00380424
0.45361
0.00239035
0.00211502
-0.228319
-0.00418394
0.226484
0.00601885
-0.226602
-0.00916716
0.228391
0.0073779
-0.224784
-0.00518127
0.224264
0.00570065
-0.223988
-0.00783684
0.223146
0.00867928
-0.22429
-0.0114768
0.223328
0.0124387
-0.226722
-0.0148761
0.226208
0.0153896
-0.23039
-0.0156196
0.230881
0.0151291
-0.232943
-0.0120698
0.23386
0.0111528
-0.241273
-0.00112801
0.238007
0.00439337
-0.233178
-0.00647918
0.233702
0.0059559
-0.00438575
-0.232436
0.232882
0.00393996
-0.463441
-0.00513889
0.464768
0.00381128
-0.461847
-0.00289644
0.462628
0.00211622
0.00321345
0.92055
-0.00274706
-0.00199656
0.0017819
0.918324
0.000814089
0.916922
0.916304
-9.78661e-05
0.91293
-0.000104985
0.912573
0.000116148
0.911792
0.000274559
0.910629
0.000273625
-0.454894
0.454612
0.000556456
-0.454662
-0.00149094
0.453934
0.00221839
-0.45287
-0.00271714
0.451923
0.00180068
0.00186308
-0.225317
-0.00226876
0.225072
0.00251334
-0.223708
-0.00355993
0.223254
0.00401457
-0.223924
-0.00777468
0.221627
0.0100715
-0.221643
-0.0140919
0.222288
0.0134467
-0.219686
-0.0168574
0.219383
0.0171608
-0.223875
-0.0222313
0.222832
0.0232746
-0.234613
-0.0204518
0.235051
0.0200136
-0.243521
-0.0102412
0.241312
0.0124498
-0.236909
-0.0117231
0.238058
0.0105746
-0.235823
-0.00757284
0.236725
0.00667054
-0.00399055
-0.234657
0.235133
0.00351373
-0.465893
-0.00544837
0.467038
0.00430333
-0.463023
-0.00347529
0.46338
0.00311829
0.00272042
0.922449
-0.00226123
-0.00235873
0.00151022
0.919534
0.000624397
0.917808
0.916929
-0.000477345
0.913407
-0.000829374
0.912925
-0.00103821
0.912001
1.35967e-05
0.910291
-0.000713788
-0.454485
0.4542
0.000298435
-0.452918
-0.00051929
0.452573
0.000864964
-0.4516
-0.00180295
0.451233
0.00103421
0.00113557
-0.224288
-0.00139552
0.224077
0.00160671
-0.222214
-0.00248167
0.221792
0.00290348
-0.218887
-0.00415637
0.218345
0.00469929
-0.215464
-0.00792035
0.213291
0.010093
-0.213934
-0.0228641
0.109018
0.103557
0.01008
0.0141423
-0.0178645
-0.108764
0.108143
0.0184854
-0.0148435
-0.244051
0.0285248
-0.01511
0.122302
0.123178
-0.021695
-0.243947
0.246753
0.0188889
-0.242598
-0.0117469
0.244091
0.0102536
-0.239334
-0.00739468
0.24021
0.00651866
-0.00437025
-0.236567
0.237138
0.00379936
-0.46819
-0.00479973
0.468829
0.00415995
-0.464192
-0.003142
0.465008
0.00232645
0.00166079
0.923884
-0.00144535
-0.00165023
0.000791643
0.920404
0.000300312
0.918299
0.917229
-0.000869254
0.914277
-0.00168663
0.913742
-0.00231072
0.912625
-0.0011689
0.910854
-0.00170437
-0.454161
0.454167
-0.0011754
-0.452422
0.00122507
0.452327
-0.00112982
-0.449962
0.000974621
0.449685
-0.000303128
-0.000394219
-0.223596
-0.000265863
0.223498
0.000364278
-0.221014
-0.000534479
0.221099
0.000449507
-0.217206
-0.000742801
0.216966
0.000982154
-0.210624
-0.00184124
0.21039
0.00207532
-0.0988667
-0.00161965
0.0990912
0.00139511
-0.0232474
-0.132437
0.13487
0.0208138
-0.0213512
-0.256352
0.259633
0.0180704
-0.248825
-0.0113048
0.250396
0.00973362
-0.243149
-0.0063007
0.244024
0.00542643
-0.00338579
-0.238791
0.239258
0.00291878
-0.46987
-0.00311656
0.470735
0.00225154
-0.465676
-0.00163278
0.466258
0.00105116
-0.000105824
0.924604
-6.58721e-05
-0.000548153
-0.000285224
0.920583
-0.000189531
0.918204
0.91704
-0.00125068
0.915527
-0.00242767
0.914919
-0.00366926
0.913867
-0.00211865
0.911936
-0.00263324
-0.454346
0.454523
-0.00229629
-0.452397
0.00249685
0.452585
-0.00268399
-0.449574
0.0028527
0.449727
-0.00140233
-0.00160351
-0.223685
0.00166473
0.223722
-0.00170136
-0.221003
0.00185384
0.221063
-0.00191362
-0.21692
0.0021749
0.21706
-0.00231558
-0.211167
0.00306889
0.211624
-0.00352609
-0.102624
0.00304015
0.103008
-0.00342411
-0.0105534
-0.14771
0.148498
0.0097653
-0.0100525
-0.267431
0.268963
0.00852102
-0.254231
-0.00514399
0.255028
0.00434654
-0.245877
-0.00252302
0.246244
0.00215596
-0.00122909
-0.240328
0.240568
0.000989194
-0.471879
-0.000637005
0.472845
-0.000328575
-0.46656
0.000784571
0.466761
-0.000986059
-0.00227223
0.924189
0.00154186
0.00114575
-0.0016274
0.919938
-0.000851781
0.917428
0.916188
-0.00159452
0.917122
-0.00329482
0.916619
-0.0049172
0.915489
-0.00305782
0.91365
-0.0035731
-0.454881
0.455238
-0.00341521
-0.452842
0.00382069
0.453313
-0.00429123
-0.45004
0.00472989
0.450606
-0.00247554
-0.00282023
-0.224015
0.0029444
0.224158
-0.00308709
-0.221475
0.00360591
0.221679
-0.00380951
-0.217738
0.00452043
0.218028
-0.00480961
-0.212988
0.00586189
0.213408
-0.00628175
-0.104378
0.00377874
0.104486
-0.00193484
-0.0019516
0.00552404
-0.147895
0.147171
-0.00479955
0.00512402
-0.269874
0.269084
-0.00433348
-0.255691
0.00292478
0.255421
-0.00265508
-0.246715
0.00210543
0.246587
-0.00197682
0.00164841
-0.240787
0.240718
-0.00157965
-0.472878
0.00310598
0.472488
-0.00271568
-0.466635
0.00267277
0.467049
-0.00308671
-0.0046887
0.922586
0.00340698
0.00288479
-0.00309142
0.918341
-0.00157122
0.915908
0.914617
-0.00202514
0.919147
-0.00403273
0.918627
-0.0061647
0.917621
-0.00396598
0.915908
-0.00445651
-0.45577
0.456299
-0.00449513
-0.453846
0.00514074
0.45443
-0.00572513
-0.451514
0.00640598
0.452654
-0.00368449
-0.0038614
-0.224737
0.00407994
0.224969
-0.00431249
-0.222436
0.00510826
0.222732
-0.00540369
-0.219009
0.00640036
0.219374
-0.00676491
-0.214584
0.00792072
0.214966
-0.00830256
-0.105085
0.00458895
0.10514
-0.0023108
-0.00233305
0.0148346
-0.14012
0.138956
-0.0136706
0.0168062
-0.264369
0.262187
-0.0146248
-0.253255
0.00995222
0.252176
-0.00887313
-0.245513
0.00651424
0.244877
-0.0058788
0.0044953
-0.240025
0.239717
-0.00418734
-0.471788
0.0067173
0.470815
-0.00574453
-0.467344
0.00487667
0.466561
-0.00409387
-0.00693619
0.920001
0.00492014
0.00460025
-0.00452138
0.915926
-0.00222615
0.913613
0.91239
-0.00241879
0.921566
-0.00484582
0.921054
-0.0073906
0.920166
-0.00478069
0.91848
-0.00518214
-0.456982
0.457664
-0.00546247
-0.45521
0.00622136
0.456024
-0.00703534
-0.453763
0.00791636
0.45503
-0.00451728
-0.00466529
-0.225771
0.00503608
0.226071
-0.00533652
-0.223739
0.006333
0.224115
-0.00670921
-0.220592
0.00794141
0.221043
-0.00839296
-0.216209
0.0098212
0.216686
-0.0102976
-0.105506
0.0057003
0.105571
-0.00286514
-0.00290065
0.0183635
-0.130916
0.129745
-0.0171922
0.0226073
-0.255132
0.252745
-0.0202205
-0.24835
0.0145312
0.24694
-0.0131211
-0.242387
0.00973251
0.241356
-0.00870146
0.00670999
-0.238129
0.237512
-0.00609294
-0.469611
0.0097659
0.468181
-0.00833603
-0.465715
0.00708975
0.46466
-0.00603511
-0.00897741
0.918118
0.00567717
0.0051838
-0.00577859
0.912727
-0.00280255
0.910637
0.909588
-0.00644974
0.928015
-0.0130612
0.927665
-0.0197502
0.926855
-0.00570028
0.925571
-0.0211411
-0.458421
0.459287
-0.00656577
-0.456865
0.00746566
0.457882
-0.00848268
-0.456229
0.00947431
0.457095
-0.00512611
-0.00521416
-0.227039
0.00576953
0.227377
-0.00610754
-0.225326
0.00725562
0.225757
-0.00768617
-0.222538
0.0091443
0.223082
-0.00968796
-0.218425
0.0115323
0.219122
-0.0060781
-0.00615087
-0.053228
0.0035475
0.0532609
-0.00358043
-0.0577505
0.00661519
0.0572715
-0.0129088
0.00677262
0.0170362
-0.122662
0.242048
-0.0305937
0.0167721
-0.1226
-0.246056
0.0232524
0.243648
-0.020844
-0.242174
0.0160397
0.240705
-0.0145703
-0.238565
0.0112012
0.237642
-0.0102786
0.00798231
-0.235512
0.234872
-0.00734191
-0.466434
0.0118373
0.464685
-0.0100878
-0.463562
0.00879527
0.462368
-0.00760117
-0.0105897
0.915053
0.00709516
0.00655972
-0.0068106
0.908948
-0.00335253
0.907179
0.906235
-0.00288298
0.930898
-0.00584512
0.930627
-0.00896522
0.929975
-0.00609556
0.928963
-0.00626108
-0.462074
0.462969
-0.00699115
-0.460699
0.00796866
0.461748
-0.00901755
-0.458933
0.0101568
0.460184
-0.00566763
-0.00574082
-0.228506
0.00634356
0.228878
-0.00671546
-0.227183
0.00796007
0.227653
-0.00842996
-0.224997
0.0100541
0.225625
-0.010682
-0.222031
0.0129498
0.222974
-0.00692148
-0.00697063
-0.054758
0.00883433
0.109913
-0.0546816
-0.00462631
-0.00468109
-0.111301
0.00928093
0.11126
-0.0182886
0.00904855
0.0304787
-0.235803
0.233977
-0.0286529
-0.237657
0.0193964
0.236389
-0.0181292
-0.237349
0.0149022
0.236795
-0.0143482
-0.235137
0.0111559
0.234509
-0.010528
0.00831494
-0.233036
0.232478
-0.00775746
-0.463191
0.0125971
0.4619
-0.0113056
-0.461159
0.0100392
0.459708
-0.0085883
-0.00996484
0.911208
0.00684298
0.00696638
-0.00746399
0.906447
-0.00365022
0.903365
0.902585
-0.00302869
0.933927
-0.00613798
0.933737
-0.00940366
0.933241
-0.00641866
0.93249
-0.00651279
-0.463923
0.464872
-0.00736778
-0.462823
0.00838816
0.46391
-0.00947552
-0.461455
0.0106489
0.462734
-0.00594853
-0.00597905
-0.230015
0.00665085
0.230394
-0.00702998
-0.229076
0.0082844
0.229542
-0.00875013
-0.227545
0.010373
0.228171
-0.0109991
-0.225898
0.0132444
0.226809
-0.0141555
-0.112982
0.017529
0.224346
-0.0167988
-0.112095
-0.225438
0.0227208
0.22603
-0.0233127
-0.230613
0.0228244
0.229982
-0.0221927
-0.232656
0.0196432
0.231716
-0.0187032
-0.232662
0.0159093
0.231775
-0.0150219
-0.231718
0.0125625
0.230971
-0.0118157
0.00979421
-0.232112
0.229877
-0.00755957
-0.460799
0.0142903
0.458031
-0.0115222
-0.458213
0.0103552
0.456473
-0.00861601
-0.010318
0.907464
0.00709549
0.00696672
-0.0074973
0.903627
-0.00384428
0.899712
0.898741
-0.0030993
0.937026
-0.00627436
0.936912
-0.00959283
0.936559
-0.00656022
0.936048
-0.00659021
-0.46584
0.466803
-0.00752333
-0.464999
0.00854475
0.466078
-0.00962376
-0.464003
0.0107779
0.465246
-0.00601441
-0.00600707
-0.231511
0.0066971
0.231873
-0.00705838
-0.230885
0.00823423
0.231311
-0.00866005
-0.229925
0.0100765
0.230456
-0.0106072
-0.229097
0.0123628
0.229725
-0.0129909
-0.222166
0.0146717
0.221555
-0.0140599
-0.227356
0.0173237
0.227681
-0.0176485
-0.22882
0.0176785
0.228582
-0.0174406
-0.22959
0.0162015
0.229061
-0.0156726
-0.229555
0.0139173
0.228946
-0.0133082
-0.228992
0.0115065
0.228415
-0.0109291
0.00929892
-0.228214
0.227708
-0.00879289
-0.457628
0.0147369
0.455245
-0.0123545
-0.453882
0.00923742
0.452576
-0.00793145
-0.00952346
0.902238
0.00763275
0.00711667
-0.00508395
0.899187
-0.0039004
0.898528
0.894841
-0.00310102
0.940127
-0.00626885
0.94008
-0.00955966
0.93985
-0.00653913
0.939539
-0.00651206
-0.467753
0.468699
-0.00748542
-0.467137
0.00847393
0.46817
-0.00950665
-0.466452
0.0105982
0.467611
-0.00589527
-0.00586163
-0.232908
0.00652715
0.233235
-0.00685374
-0.232501
0.00789026
0.232866
-0.00825502
-0.231857
0.00941313
0.232264
-0.00982015
-0.231302
0.0110832
0.231739
-0.0115209
-0.220161
0.0122444
0.219833
-0.0119154
-0.228398
0.0139953
0.228572
-0.0141692
-0.228097
0.0142322
0.227984
-0.0141192
-0.227836
0.013438
0.227519
-0.0131216
-0.227439
0.0119975
0.227026
-0.0115842
-0.22691
0.0102965
0.226478
-0.0098638
0.00859383
-0.22635
0.225938
-0.00818195
-0.451857
0.0139138
0.450413
-0.0124699
-0.451258
0.0110874
0.449927
-0.00975705
-0.00875781
0.896095
0.00835546
0.00654524
-0.00471455
0.895144
-0.00354762
0.897361
0.891293
-0.00304466
0.943172
-0.00614445
0.943179
-0.00934191
0.943047
-0.00638264
0.942892
-0.00631141
-0.469606
0.470512
-0.00728891
-0.469169
0.008221
0.47013
-0.00918284
-0.468716
0.0101857
0.469763
-0.00564308
-0.00558978
-0.234153
0.00620798
0.234438
-0.00649289
-0.233862
0.00737285
0.234163
-0.00767315
-0.233328
0.00858938
0.233636
-0.00889736
-0.232844
0.00981876
0.233154
-0.0101282
-0.21918
0.0103628
0.219057
-0.0102394
-0.22896
0.0116539
0.229055
-0.0117487
-0.227725
0.011779
0.227656
-0.0117104
-0.226759
0.0112852
0.226555
-0.0110808
-0.225991
0.0103251
0.225702
-0.0100366
-0.225352
0.00910312
0.225027
-0.00877812
0.00779161
-0.224844
0.224513
-0.00746008
-0.449075
0.0128525
0.44784
-0.011617
-0.448688
0.0104078
0.447501
-0.00922034
-0.0116974
0.891863
0.00787609
0.00805301
-0.00768173
0.891128
-0.00096737
0.890647
0.890326
-0.00294177
0.946114
-0.00592585
0.946163
-0.00898107
0.946103
-0.00612352
0.946055
-0.00602071
-0.47136
0.472211
-0.00697454
-0.471051
0.00783664
0.471929
-0.00871508
-0.47075
0.00961839
0.471678
-0.0053065
-0.00523948
-0.235229
0.00580115
0.235473
-0.00604492
-0.234976
0.00677917
0.23522
-0.00702299
-0.234443
0.0077441
0.234679
-0.00797926
-0.233941
0.00866784
0.234163
-0.00888983
-0.218902
0.00888502
0.218909
-0.00889179
-0.229266
0.00988565
0.229316
-0.00993642
-0.227482
0.0099349
0.227431
-0.00988434
-0.226045
0.00958799
0.225903
-0.0094455
-0.224966
0.00890923
0.224757
-0.00869999
-0.224175
0.0080056
0.223927
-0.00775762
0.00698491
-0.223635
0.223368
-0.00671775
-0.446701
0.0116999
0.445654
-0.0106523
-0.446407
0.00960681
0.445361
-0.00856155
-0.0109646
0.88801
0.00730632
0.00751204
-0.00723549
0.887399
-0.0035913
0.887003
0.886734
-0.00280457
0.948918
-0.00563893
0.948998
-0.00851938
0.948983
-0.00579392
0.949
-0.00567093
-0.472993
0.47378
-0.00658146
-0.472763
0.00736803
0.473555
-0.00815983
-0.472547
0.00896328
0.473359
-0.0049237
-0.00485195
-0.236147
0.00535203
0.236353
-0.00555876
-0.235879
0.00616809
0.236076
-0.00636583
-0.2353
0.00693743
0.235483
-0.00712025
-0.234729
0.00764756
0.234889
-0.00780746
-0.219057
0.00769393
0.21914
-0.00777684
-0.229426
0.00848796
0.229451
-0.00851278
-0.227294
0.00848817
0.227252
-0.00844627
-0.225536
0.00822131
0.22543
-0.00811533
-0.224214
0.00771532
0.224056
-0.0075577
-0.223272
0.00702624
0.223079
-0.00683313
0.00621938
-0.222661
0.222444
-0.00600241
-0.44469
0.0105495
0.443803
-0.00966264
-0.444405
0.00876288
0.443491
-0.00784907
-0.0101398
0.884537
0.00669808
0.00691463
-0.00672109
0.88398
-0.00334526
0.883627
0.883389
-0.0026448
0.951563
-0.00530806
0.951661
-0.00799542
0.95167
-0.00542276
0.951716
-0.00528843
-0.474492
0.475213
-0.00614407
-0.474303
0.0068553
0.475011
-0.00756326
-0.474118
0.00827295
0.474825
-0.00452583
-0.00445478
-0.236923
0.00489511
0.237098
-0.00507012
-0.236612
0.00557662
0.236773
-0.00573798
-0.235971
0.00619704
0.236116
-0.0063422
-0.235296
0.00675454
0.235411
-0.00686909
-0.219459
0.00671555
0.219583
-0.00683938
-0.229499
0.00735346
0.229507
-0.00736225
-0.227135
0.00732211
0.227098
-0.00728509
-0.22515
0.00710338
0.225066
-0.00702031
-0.223639
0.00670894
0.223516
-0.00658601
-0.222562
0.00616786
0.222409
-0.00601419
0.00551865
-0.221869
0.221691
-0.00534045
-0.442986
0.009456
0.442233
-0.00870299
-0.442658
0.00792859
0.441861
-0.00713158
-0.00928363
0.881428
0.00608834
0.00630394
-0.00617751
0.880874
-0.00308211
0.880532
0.880307
-0.0024721
0.954035
-0.00495299
0.954142
-0.00743974
0.954157
-0.00503126
0.954202
-0.00489428
-0.475857
0.476513
-0.00568706
-0.475678
0.00632639
0.476308
-0.00695638
-0.475485
0.0075811
0.476101
-0.00413207
-0.0040644
-0.237581
0.00445026
0.23773
-0.00459871
-0.237213
0.00502193
0.237346
-0.00515483
-0.236508
0.00552914
0.236625
-0.0056468
-0.235701
0.0059743
0.235782
-0.00605539
-0.219988
0.00589741
0.220131
-0.00604014
-0.229517
0.00641329
0.229516
-0.00641181
-0.226992
0.0063616
0.226958
-0.00632778
-0.224842
0.00617455
0.224774
-0.00610676
-0.223186
0.0058558
0.223088
-0.00575706
-0.221994
0.00541992
0.221869
-0.00529516
0.00488859
-0.221216
0.221068
-0.00474048
-0.441538
0.0084436
0.440895
-0.00780109
-0.441136
0.00713301
0.440441
-0.00643782
-0.00843708
0.878657
0.00550169
0.00570677
-0.00563287
0.87807
-0.00281626
0.877715
0.877491
-0.00229522
0.95633
-0.00459135
0.956438
-0.006879
0.956445
-0.00463909
0.956466
-0.00450432
-0.477093
0.477686
-0.00523265
-0.476901
0.00580565
0.47746
-0.00636526
-0.476675
0.00691493
0.47721
-0.00375717
-0.0036935
-0.23814
0.00403196
0.238267
-0.00415847
-0.237709
0.00451482
0.23782
-0.00462555
-0.236946
0.00493572
0.237043
-0.00503291
-0.235986
0.00529609
0.236042
-0.00535249
-0.22057
0.00520754
0.220719
-0.00535592
-0.2295
0.00562654
0.229492
-0.00561831
-0.22686
0.00556173
0.226829
-0.00553029
-0.224588
0.00539715
0.224531
-0.00534008
-0.222819
0.00513199
0.222738
-0.00505067
-0.221529
0.00477292
0.221426
-0.00466976
0.00433104
-0.220672
0.220547
-0.00420645
-0.440301
0.00752715
0.439749
-0.00697542
-0.439809
0.00639666
0.439201
-0.00578898
-0.00763008
0.87619
0.00495296
0.00514352
-0.00510834
0.875548
-0.00255859
0.875165
0.874932
-0.00212047
0.958451
-0.00423571
0.958553
-0.00633165
0.958541
-0.00425855
0.958523
-0.00412982
-0.478207
0.478743
-0.00479434
-0.477987
0.00530731
0.478484
-0.00580441
-0.477711
0.00628864
0.478178
-0.00340828
-0.003348
-0.238618
0.00364647
0.238726
-0.00375494
-0.238125
0.0040576
0.238218
-0.00415098
-0.23731
0.00441202
0.237391
-0.00449354
-0.236183
0.00470695
0.236221
-0.00474512
-0.221163
0.00462089
0.221309
-0.00476721
-0.22946
0.00496218
0.229447
-0.00494939
-0.226737
0.00488896
0.226708
-0.00485945
-0.224372
0.0047413
0.224323
-0.00469212
-0.222515
0.00451563
0.222446
-0.00444726
-0.221142
0.00421423
0.221056
-0.00412755
0.00384147
-0.220213
0.220107
-0.00373549
-0.439236
0.00670769
0.438759
-0.00623078
-0.438648
0.00572696
0.438116
-0.00519416
-0.00687936
0.873996
0.00445019
0.0046238
-0.00461641
0.873285
-0.0023157
0.872864
0.872616
-0.00195277
0.960404
-0.00389568
0.960496
-0.00581156
0.960457
-0.00389853
0.960389
-0.00377882
-0.479211
0.479694
-0.00438167
-0.478952
0.00484106
0.479394
-0.00528326
-0.478616
0.0057109
0.479026
-0.00308769
-0.00303295
-0.239027
0.00329501
0.239121
-0.00338858
-0.238477
0.00364792
0.238557
-0.00372763
-0.237616
0.00395034
0.237686
-0.00401952
-0.236314
0.00419376
0.236339
-0.00421851
-0.221739
0.00411747
0.221879
-0.00425745
-0.229404
0.00439591
0.229388
-0.00437999
-0.226622
0.00431742
0.226594
-0.00428957
-0.224185
0.00418316
0.224142
-0.00414005
-0.222257
0.00398772
0.222198
-0.00392926
-0.220816
0.00373077
0.220742
-0.00365695
0.00341249
-0.219821
0.21973
-0.00332147
-0.438315
0.00598228
0.4379
-0.00556727
-0.437631
0.0051264
0.437162
-0.00465748
-0.00619464
0.87204
0.00399726
0.00415254
-0.00416484
0.871256
-0.00209184
0.870791
0.870524
-0.00179519
0.962199
-0.00357716
0.962278
-0.00532683
0.962206
-0.00356478
0.962081
-0.00345481
-0.480115
0.480551
-0.00400056
-0.47981
0.00441264
0.480205
-0.004807
-0.47941
0.00518599
0.47977
-0.00279722
-0.00274941
-0.239382
0.00297852
0.239463
-0.00305981
-0.238779
0.00328409
0.238847
-0.00335294
-0.237878
0.00354521
0.237937
-0.00360452
-0.236397
0.00374762
0.236412
-0.00376255
-0.222287
0.00368439
0.222419
-0.00381588
-0.229337
0.00391182
0.229318
-0.00389371
-0.226513
0.00383015
0.226486
-0.00380377
-0.22402
0.00370688
0.223982
-0.00366856
-0.222035
0.0035352
0.221984
-0.00348452
-0.220537
0.00331325
0.220473
-0.00324964
0.00303857
-0.219484
0.219405
-0.0029597
-0.437512
0.00534536
0.437148
-0.00498181
-0.436734
0.00459387
0.436319
-0.00417937
-0.00557875
0.870295
0.00359326
0.00373114
-0.00375659
0.869433
-0.00188881
0.868924
0.868636
-0.00165036
0.963849
-0.00328513
0.963913
-0.00488425
0.963805
-0.00326075
0.96362
-0.00316183
-0.480931
0.481324
-0.00365442
-0.480577
0.00402509
0.48093
-0.00437805
-0.480109
0.00471541
0.480429
-0.00253844
-0.00249609
-0.239691
0.00269791
0.239762
-0.00276909
-0.23904
0.00296502
0.239101
-0.00302518
-0.238103
0.00319302
0.238154
-0.00324435
-0.236445
0.00336257
0.236453
-0.00337039
-0.222799
0.00331338
0.222922
-0.0034356
-0.229262
0.0034994
0.229242
-0.00347977
-0.226409
0.00341593
0.226384
-0.00339086
-0.223873
0.00330181
0.223838
-0.00326736
-0.221842
0.00314916
0.221798
-0.00310467
-0.220295
0.00295512
0.22024
-0.0028997
0.00271562
-0.21919
0.219121
-0.00264667
-0.436807
0.00479043
0.436486
-0.00446979
-0.43594
0.0041264
0.435572
-0.00375819
-0.00503314
0.868731
0.0032383
0.0033589
-0.00339348
0.867794
-0.00170777
0.867238
0.866928
-0.00151956
0.965369
-0.00302194
0.965415
-0.0044867
0.96527
-0.00298819
0.965022
-0.00290072
-0.481668
0.482024
-0.00334479
-0.481264
0.0036795
0.481581
-0.00399687
-0.480729
0.00429876
0.481014
-0.0023105
-0.00227238
-0.239962
0.00245169
0.240025
-0.00251455
-0.23927
0.00268748
0.239323
-0.00274063
-0.238298
0.00288865
0.238342
-0.00293347
-0.236468
0.0030317
0.236471
-0.00303444
-0.223274
0.00299629
0.223387
-0.00310923
-0.229181
0.00314865
0.229161
-0.00312795
-0.226311
0.00306428
0.226287
-0.00304038
-0.22374
0.00295789
0.223709
-0.00292659
-0.221672
0.00282068
0.221632
-0.00278119
-0.220084
0.00264918
0.220035
-0.00260039
0.0024383
-0.218933
0.218872
-0.00237752
-0.436184
0.00431071
0.4359
-0.0040259
-0.435235
0.00371999
0.434906
-0.00339106
-0.0045556
0.867323
0.00292962
0.00303379
-0.00307468
0.866313
-0.00154852
0.865712
0.865379
-0.0014036
0.966772
-0.00278897
0.966801
-0.00413573
0.966617
-0.00274773
0.966306
-0.00267181
-0.482336
0.482661
-0.00307202
-0.481882
0.0033758
0.482169
-0.00366279
-0.481282
0.00393466
0.481537
-0.00211118
-0.00207823
-0.240203
0.00223704
0.240259
-0.00229305
-0.239474
0.00244721
0.239521
-0.00249466
-0.238469
0.00262645
0.238508
-0.00266591
-0.236474
0.00274801
0.236473
-0.00274719
-0.223713
0.00272547
0.223817
-0.00282949
-0.229097
0.00285039
0.229076
-0.00282896
-0.226217
0.00276574
0.226194
-0.00274288
-0.223619
0.00266594
0.22359
-0.00263727
-0.22152
0.00254144
0.221485
-0.00250603
-0.219897
0.00238833
0.219854
-0.00234496
0.00220092
-0.218706
0.218651
-0.00214689
-0.43563
0.00389973
0.435375
-0.00364481
-0.434603
0.00337035
0.434307
-0.00307459
-0.00414317
0.866048
0.0026645
0.00275323
-0.0027987
0.864968
-0.00141045
0.864324
0.863969
-0.00130289
0.968075
-0.00258688
0.968085
-0.00383187
0.967862
-0.00253956
0.967488
-0.00247478
-0.482946
0.483243
-0.00283606
-0.482442
0.00311355
0.482703
-0.00337488
-0.481779
0.00362156
0.482009
-0.00193974
-0.00191214
-0.240417
0.00205283
0.240468
-0.00210324
-0.239656
0.00224214
0.239699
-0.00228495
-0.238619
0.00240344
0.238654
-0.00243848
-0.236466
0.00250759
0.236463
-0.00250434
-0.224116
0.00249668
0.224212
-0.0025924
-0.229011
0.00259929
0.228989
-0.00257737
-0.226127
0.00251474
0.226105
-0.00249279
-0.223508
0.00242052
0.223481
-0.00239402
-0.221384
0.00230647
0.221352
-0.0022744
-0.219731
0.00216836
0.219692
-0.00212942
0.00200018
-0.218502
0.218454
-0.0019517
-0.435134
0.00355201
0.434903
-0.00332189
-0.434034
0.00307364
0.433766
-0.00280568
-0.00379252
0.864886
0.00244015
0.00251469
-0.00256367
0.86374
-0.00129273
0.863053
0.862676
-0.00121736
0.969293
-0.00241536
0.969283
-0.00357439
0.969021
-0.0023624
0.968586
-0.00230923
-0.483507
0.483779
-0.00263518
-0.482953
0.00289052
0.483193
-0.00313039
-0.482229
0.00335609
0.482439
-0.00179439
-0.00177184
-0.240612
0.00189689
0.240658
-0.00194274
-0.239822
0.00206928
0.239861
-0.00210831
-0.238754
0.0022159
0.238785
-0.0022473
-0.236451
0.00230597
0.236446
-0.00230116
-0.224487
0.00230536
0.224575
-0.00239349
-0.228923
0.00238985
0.228901
-0.00236762
-0.22604
0.00230563
0.226019
-0.00228448
-0.223404
0.00221614
0.22338
-0.00219143
-0.22126
0.00211067
0.221231
-0.00208132
-0.21958
0.00198478
0.219545
-0.00194944
0.00183227
-0.218319
0.218275
-0.00178837
-0.434684
0.00326114
0.434474
-0.00305148
-0.433517
0.00282494
0.433272
-0.0025801
-0.00349967
0.863817
0.00225409
0.0023147
-0.00236713
0.862607
-0.00119423
0.86188
0.861482
-0.00114692
0.97044
-0.00227432
0.97041
-0.00336272
0.970109
-0.00221621
0.969613
-0.00217404
-0.484025
0.484278
-0.00246943
-0.483423
0.00270657
0.483645
-0.00292883
-0.482641
0.00313743
0.482834
-0.00167469
-0.00165653
-0.240789
0.00176856
0.240831
-0.00181076
-0.239973
0.00192743
0.240009
-0.00196344
-0.238875
0.00206222
0.238903
-0.00209066
-0.23643
0.00214104
0.236424
-0.0021353
-0.224829
0.00214941
0.224911
-0.00223072
-0.228834
0.00221925
0.228811
-0.00219686
-0.225957
0.00213547
0.225936
-0.00211498
-0.223308
0.00204986
0.223285
-0.00202661
-0.221146
0.00195132
0.221119
-0.00192415
-0.219444
0.00183521
0.219411
-0.00180275
0.00169529
-0.218153
0.218112
-0.00165508
-0.434273
0.00302393
0.43408
-0.00283085
-0.433044
0.00262194
0.432818
-0.00239596
-0.00326153
0.862823
0.00210364
0.00215147
-0.00220724
0.861553
-0.00111398
0.860786
0.860368
-0.00109213
0.971532
-0.00216427
0.971482
-0.00319821
0.971143
-0.00210127
0.970587
-0.00207048
-0.484509
0.484745
-0.00233771
-0.48386
0.00256015
0.484068
-0.00276832
-0.483021
0.00296326
0.483202
-0.00157938
-0.0015647
-0.240953
0.00166632
0.240993
-0.00170566
-0.240113
0.00181462
0.240147
-0.00184825
-0.238985
0.00194002
0.239011
-0.00196607
-0.236406
0.00201
0.2364
-0.00200382
-0.225145
0.00202615
0.225221
-0.00210138
-0.228744
0.00208422
0.228721
-0.00206177
-0.225876
0.00200089
0.225856
-0.00198093
-0.223217
0.00191837
0.223195
-0.00189628
-0.22104
0.00182528
0.221014
-0.00179983
-0.219317
0.00171685
0.219287
-0.00168665
0.00158681
-0.217999
0.217962
-0.00154953
-0.433894
0.00283627
0.433714
-0.00265633
-0.432605
0.00246145
0.432394
-0.00225056
-0.00307699
0.861888
0.00198854
0.00202371
-0.00208298
0.860559
-0.00105178
0.859755
0.859316
-0.00105043
0.972582
-0.00208187
0.972514
-0.00307361
0.972135
-0.00201356
0.971519
-0.00199287
-0.484964
0.48519
-0.00223935
-0.48427
0.00245036
0.484467
-0.00264757
-0.483378
0.002832
0.483549
-0.00150674
-0.00149614
-0.241107
0.00158819
0.241144
-0.00162534
-0.240245
0.00172839
0.240277
-0.00176019
-0.239086
0.00184653
0.23911
-0.0018707
-0.236381
0.00190975
0.236375
-0.00190351
-0.225438
0.00193263
0.225508
-0.00200246
-0.228654
0.00198132
0.228632
-0.00195888
-0.225796
0.0018984
0.225777
-0.00187885
-0.22313
0.00181824
0.223108
-0.00179702
-0.22094
0.00172931
0.220916
-0.00170515
-0.219199
0.00162671
0.219171
-0.00159824
0.00150423
-0.217856
0.217821
-0.00146923
-0.43354
0.00269522
0.43337
-0.00252534
-0.432194
0.00234126
0.431995
-0.00214205
-0.00293799
0.860997
0.00190273
0.00192671
-0.00199012
0.859611
-0.00100458
0.85877
0.858312
-0.00102881
0.973611
-0.00203577
0.973521
-0.00300821
0.973107
-0.00196651
0.97244
-0.0019624
-0.485403
0.48561
-0.00217384
-0.48466
0.00237617
0.484849
-0.00256553
-0.483716
0.00274247
0.483879
-0.0014561
-0.0014502
-0.241253
0.00153326
0.241289
-0.00156878
-0.24037
0.00166745
0.2404
-0.00169791
-0.23918
0.00178023
0.239203
-0.00180303
-0.236356
0.00183868
0.23635
-0.00183272