/*--------------------------------*- C++ -*----------------------------------*\
| =========                 |                                                 |
| \\      /  F ield         | OpenFOAM: The Open Source CFD Toolbox           |
|  \\    /   O peration     | Version:  v1912                                 |
|   \\  /    A nd           | Website:  www.openfoam.com                      |
|    \\/     M anipulation  |                                                 |
\*---------------------------------------------------------------------------*/
FoamFile
{
    version     2.0;
    format      ascii;
    class       volVectorField;
    location    "400";
    object      U;
}
// * * * * * * * * * * * * * * * * * * * * * * * * * * * * * * * * * * * * * //

dimensions      [0 1 -1 0 0 0 0];


internalField   nonuniform List<vector> 
12556
(
(99.9993 0.00192045 -1.5048e-19)
(99.999 0.00664593 4.44421e-24)
(99.9981 0.0145143 -1.59866e-19)
(99.9966 0.0268459 -1.56659e-19)
(100 0.0210096 6.46057e-20)
(99.9984 0.0361146 0)
(99.9975 0.0587711 0)
(99.9968 0.0910235 -1.12016e-19)
(99.9957 0.134376 1.3129e-20)
(99.9949 0.188582 -8.69035e-20)
(99.9948 0.248471 1.04874e-20)
(99.996 0.302831 0)
(99.9984 0.336953 0)
(100.001 0.340079 1.41314e-20)
(100.004 0.312777 -2.36769e-20)
(100.005 0.265379 1.49394e-20)
(100.005 0.210985 0)
(100.004 0.159381 2.52623e-20)
(100.004 0.114692 1.03995e-19)
(100.002 0.0822369 -2.94479e-20)
(100.009 0.0941444 -6.15475e-19)
(100.006 0.0596806 0)
(100.004 0.0322057 -7.88535e-20)
(100.004 0.010322 -5.2235e-19)
(99.9929 0.00502545 6.33751e-19)
(99.9895 0.0175666 1.68833e-19)
(99.9814 0.0389506 1.17858e-18)
(99.9679 0.0728339 -4.97118e-19)
(99.9701 0.101213 7.08676e-20)
(99.9495 0.172676 -7.21098e-22)
(99.9232 0.282 0)
(99.912 0.384326 -5.00206e-20)
(99.8814 0.572928 -4.65495e-20)
(99.8546 0.814864 -8.18922e-20)
(99.8441 1.09027 -3.40861e-20)
(99.8646 1.35067 -4.49806e-20)
(99.9208 1.5254 -9.25038e-21)
(99.996 1.55674 -2.0273e-23)
(100.061 1.44077 -3.54341e-21)
(100.099 1.22568 3.39237e-20)
(100.108 0.974889 -6.74304e-20)
(100.097 0.741313 0)
(100.112 0.563966 -4.80267e-19)
(100.081 0.391365 9.31083e-19)
(100.082 0.2695 6.27824e-19)
(100.059 0.170601 1.31972e-18)
(100.044 0.0917894 -1.32471e-18)
(100.039 0.0293463 6.26368e-19)
(99.981 0.00588737 -6.3423e-19)
(99.9712 0.0214195 -1.35791e-18)
(99.9496 0.0502952 -3.04014e-18)
(99.9138 0.0981829 3.97996e-18)
(99.897 0.157663 -1.44916e-19)
(99.8353 0.27673 -1.37937e-19)
(99.7518 0.461141 -2.33611e-19)
(99.6999 0.670151 0)
(99.5942 1.0249 1.85174e-19)
(99.4989 1.49514 4.00697e-20)
(99.4622 2.05696 -1.01632e-19)
(99.5492 2.61125 -1.06034e-21)
(99.782 2.9942 1.39053e-20)
(100.086 3.06481 -3.03997e-22)
(100.338 2.81286 0)
(100.467 2.35647 2.58936e-20)
(100.478 1.83776 -6.95418e-20)
(100.42 1.3622 -1.66576e-19)
(100.373 0.968156 -2.90221e-18)
(100.277 0.661046 -6.45653e-19)
(100.229 0.411078 -6.46097e-19)
(100.167 0.258525 1.49275e-18)
(100.127 0.138356 -1.68008e-19)
(100.109 0.0440474 0)
(99.9688 0.00315465 -3.18875e-19)
(99.95 0.0141186 2.38698e-18)
(99.9102 0.0414736 -6.82954e-19)
(99.8437 0.093001 0)
(99.7949 0.174062 0)
(99.6733 0.323242 -1.11973e-18)
(99.5035 0.562963 -2.18237e-18)
(99.3613 0.86863 2.07512e-19)
(99.1179 1.37627 9.90043e-20)
(98.8732 2.08941 4.70419e-20)
(98.7503 2.9903 -1.32126e-19)
(98.9063 3.97767 3.69526e-20)
(99.4631 4.72116 3.71835e-20)
(100.235 4.84083 0)
(100.837 4.32935 0)
(101.099 3.50363 -1.18666e-19)
(101.094 2.64974 0)
(100.941 1.90389 0)
(100.777 1.28832 1.04707e-18)
(100.574 0.860047 -8.16962e-19)
(100.435 0.500096 -1.65298e-18)
(100.316 0.309685 8.51804e-19)
(100.241 0.163796 -1.713e-19)
(100.206 0.0518292 0)
(99.965 -0.00397939 0)
(99.9359 -0.00684469 0)
(99.8752 0.00773046 3.4401e-19)
(99.7732 0.0496067 5.12193e-19)
(99.6812 0.139489 3.73644e-19)
(99.4853 0.2938 0)
(99.2056 0.552202 0)
(98.9305 0.918034 0)
(98.4744 1.54106 1.74598e-18)
(97.9797 2.45631 2.33168e-19)
(97.5787 3.79074 0)
(97.685 5.52936 2.13208e-19)
(98.8306 7.03028 2.57351e-20)
(100.589 7.19939 -2.057e-20)
(101.793 6.11004 5.57266e-19)
(102.166 4.6256 1.64821e-18)
(102.018 3.31284 3.21831e-19)
(101.673 2.29799 -4.11561e-21)
(101.309 1.47207 -1.73986e-18)
(100.95 0.953739 1.4591e-19)
(100.677 0.516866 0)
(100.486 0.31197 1.74707e-19)
(100.368 0.161839 -1.31415e-19)
(100.312 0.0506843 -4.08638e-20)
(99.9788 -0.0157903 0)
(99.9391 -0.042335 0)
(99.8577 -0.0527225 -6.90534e-19)
(99.7196 -0.0355225 1.38404e-18)
(99.5777 0.0466151 0)
(99.3033 0.176587 0)
(98.9036 0.410472 4.53874e-19)
(98.4646 0.781708 1.75449e-19)
(97.7522 1.39713 2.51199e-19)
(96.8428 2.38739 -1.24028e-18)
(95.7774 4.13918 1.50743e-18)
(95.2536 7.16291 -1.42767e-18)
(97.4332 10.6813 2.43181e-20)
(101.629 10.7213 0)
(103.71 8.11778 2.17404e-18)
(103.879 5.57351 0)
(103.298 3.69895 -2.86593e-19)
(102.578 2.41881 4.98129e-19)
(101.927 1.45974 4.45729e-19)
(101.369 0.907855 -3.01421e-19)
(100.923 0.445129 0)
(100.651 0.256751 0)
(100.486 0.128299 -4.43349e-20)
(100.407 0.039319 -1.24927e-19)
(100.019 -0.0319738 1.57483e-19)
(99.97 -0.0914048 -1.69534e-19)
(99.8703 -0.138191 3.45973e-19)
(99.7004 -0.160092 -1.24989e-18)
(99.5082 -0.104289 1.31458e-21)
(99.1624 -0.0286689 4.61924e-19)
(98.6532 0.133556 -2.34881e-18)
(98.0522 0.439298 -2.48602e-19)
(97.1033 0.908855 5.90265e-19)
(95.6904 1.70925 3.98942e-19)
(93.5123 3.25856 1.11574e-18)
(90.1885 7.31959 2.76343e-18)
(92.9547 17.3597 3.19981e-19)
(105.51 16.236 3.42383e-18)
(107.386 9.82278 0)
(106.358 5.87413 8.62426e-19)
(104.89 3.55456 -4.70715e-19)
(103.587 2.16553 -7.71814e-20)
(102.542 1.19275 0)
(101.774 0.698658 1.65938e-19)
(101.135 0.278547 1.14368e-19)
(100.783 0.141544 -1.37877e-19)
(100.572 0.0622482 -1.57588e-19)
(100.471 0.0175049 3.54878e-19)
(100.094 -0.0516635 -1.57397e-19)
(100.037 -0.151319 1.69379e-19)
(99.9243 -0.243429 -2.14842e-19)
(99.7311 -0.315709 -1.42141e-19)
(99.4951 -0.302885 2.67997e-19)
(99.096 -0.305523 1.55531e-19)
(98.508 -0.253217 1.21825e-18)
(97.7895 -0.0782864 2.25617e-19)
(96.6968 0.129213 0)
(94.9866 0.444913 1.63545e-19)
(92.2014 0.807466 -9.29368e-19)
(86.769 0.8755 9.85063e-19)
(117.303 20.7423 9.19623e-19)
(113.072 9.0769 -1.93721e-19)
(109.274 4.78704 1.43262e-19)
(106.505 2.63347 -2.29693e-19)
(104.523 1.45671 7.02806e-20)
(103.042 0.661031 -9.07798e-20)
(102.094 0.325885 3.75023e-19)
(101.272 0.0252 -1.40105e-19)
(100.853 -0.0277044 1.16844e-19)
(100.605 -0.0328585 -2.28376e-20)
(100.484 -0.0136116 -3.34583e-19)
(100.209 -0.0735641 -7.58691e-20)
(100.148 -0.218034 -6.08731e-20)
(100.028 -0.360886 -2.08395e-20)
(99.822 -0.490336 6.21604e-20)
(99.5537 -0.5319 -4.92495e-22)
(99.1262 -0.625602 0)
(98.5013 -0.700986 1.99178e-19)
(97.733 -0.687242 -1.30934e-21)
(96.6261 -0.758552 4.12537e-21)
(94.9604 -0.906638 -2.07746e-19)
(92.6863 -1.39025 -9.20328e-20)
(90.4331 -2.92227 -3.26743e-20)
(130.334 9.34643 0)
(117.716 4.10069 6.53796e-19)
(111.491 1.99729 7.18446e-19)
(107.658 0.904394 3.38433e-20)
(105.148 0.326538 -2.09539e-19)
(103.318 -0.089402 -9.57995e-20)
(102.256 -0.180888 2.12512e-19)
(101.297 -0.291913 4.83167e-20)
(100.836 -0.23639 0)
(100.564 -0.149118 1.80494e-19)
(100.431 -0.051503 1.67146e-19)
(100.367 -0.0961492 1.49391e-19)
(100.305 -0.286868 2.34443e-21)
(100.184 -0.481915 0)
(99.9775 -0.670538 8.19501e-21)
(99.6906 -0.772125 -3.66767e-20)
(99.2604 -0.958621 3.79805e-20)
(98.6386 -1.15996 0)
(97.8774 -1.30029 -4.00231e-21)
(96.8402 -1.59307 1.56182e-19)
(95.3347 -2.007 1.82027e-19)
(93.4998 -2.64207 0)
(91.9649 -3.45401 -1.98504e-20)
(129.946 -5.14097 -9.39792e-19)
(118.299 -2.56403 0)
(111.947 -1.64994 1.85428e-19)
(107.911 -1.26086 -6.31831e-20)
(105.261 -1.03837 -4.04259e-19)
(103.289 -0.949091 8.21736e-19)
(102.207 -0.75899 0)
(101.187 -0.637614 -4.74403e-20)
(100.716 -0.46279 -2.00152e-19)
(100.438 -0.275087 2.23883e-20)
(100.3 -0.0925443 0)
(100.568 -0.117926 -7.34978e-20)
(100.509 -0.353214 7.90775e-20)
(100.393 -0.598119 7.71549e-20)
(100.196 -0.843455 -7.08576e-20)
(99.9044 -1.00479 -3.61081e-20)
(99.4935 -1.27702 0)
(98.9062 -1.59134 -7.40266e-20)
(98.1882 -1.86446 5.66778e-20)
(97.2472 -2.32233 -2.7899e-19)
(95.8684 -2.89335 -1.61216e-19)
(94.1783 -3.55775 -4.10601e-19)
(92.72 -4.12716 6.18859e-20)
(123.017 -13.8841 1.05881e-18)
(115.501 -7.855 0)
(110.631 -4.90639 -1.36497e-18)
(107.198 -3.30712 0)
(104.812 -2.36475 -3.94005e-19)
(102.94 -1.78094 0)
(101.94 -1.3277 -5.0726e-19)
(100.94 -0.972866 -5.9553e-19)
(100.49 -0.682905 4.53955e-20)
(100.223 -0.398133 -1.45281e-19)
(100.089 -0.132729 1.99545e-20)
(100.81 -0.13753 2.70057e-19)
(100.755 -0.412713 0)
(100.651 -0.701843 -7.69241e-20)
(100.473 -0.996949 0)
(100.188 -1.2141 0)
(99.8133 -1.5593 -1.04544e-19)
(99.2836 -1.96756 -2.56593e-20)
(98.6313 -2.35152 9.01092e-22)
(97.7966 -2.94255 7.08496e-20)
(96.5175 -3.65855 1.57576e-19)
(94.8413 -4.45223 -3.40225e-19)
(93.2739 -5.07942 2.90475e-22)
(114.959 -17.514 -1.41673e-18)
(111.214 -10.7541 3.09229e-19)
(108.24 -7.04657 -1.09411e-18)
(105.789 -4.8231 -5.16883e-20)
(103.916 -3.4258 -4.54073e-20)
(102.325 -2.47081 4.2926e-20)
(101.485 -1.81822 -6.18292e-19)
(100.572 -1.26417 3.52562e-19)
(100.169 -0.875495 0)
(99.9265 -0.506992 1.67632e-19)
(99.803 -0.168437 0)
(101.087 -0.154422 -2.68709e-19)
(101.039 -0.464106 4.50518e-18)
(100.948 -0.790523 -9.02966e-18)
(100.794 -1.12785 -2.38835e-20)
(100.529 -1.38789 -3.16195e-20)
(100.205 -1.78916 0)
(99.7501 -2.26719 2.64118e-19)
(99.1793 -2.74106 -1.65622e-21)
(98.4728 -3.44118 -3.75737e-21)
(97.3319 -4.31803 -7.21942e-20)
(95.7396 -5.39414 1.85251e-19)
(94.1065 -6.3357 0)
(104.02 -26.6926 -3.84582e-19)
(107.186 -16.6744 0)
(106.888 -11.401 2.85463e-20)
(105.555 -7.94186 0)
(104.073 -5.65512 9.05905e-20)
(102.766 -4.10625 1.21288e-18)
(101.54 -2.95156 -1.29077e-18)
(100.896 -2.18485 0)
(100.111 -1.48793 0)
(99.7701 -1.02587 5.24762e-19)
(99.5619 -0.593541 9.71667e-20)
(99.4542 -0.197012 -2.95734e-19)
(101.391 -0.167101 0)
(101.351 -0.502607 0)
(101.277 -0.856082 0)
(101.151 -1.22455 0)
(100.907 -1.52577 0)
(100.635 -1.96769 0)
(100.26 -2.49639 0)
(99.7897 -3.03105 0)
(99.235 -3.80319 0)
(98.3139 -4.81105 0)
(97.0802 -6.22321 0)
(95.7167 -8.39904 0)
(97.0768 -17.0452 0)
(102.445 -13.7316 0)
(103.479 -10.4776 1.0744e-18)
(103.161 -7.84697 0)
(102.391 -5.8717 0)
(101.561 -4.40678 -9.8143e-19)
(100.688 -3.21228 -1.75389e-18)
(100.236 -2.41336 -6.47365e-19)
(99.594 -1.63569 -8.39721e-19)
(99.3193 -1.12754 8.45412e-19)
(99.148 -0.653638 0)
(99.0583 -0.217042 7.95045e-19)
(101.716 -0.175429 0)
(101.685 -0.527886 0)
(101.627 -0.897997 0)
(101.531 -1.28455 0)
(101.318 -1.60938 0)
(101.105 -2.06979 0)
(100.817 -2.61513 0)
(100.451 -3.17496 0)
(100.064 -3.95201 0)
(99.4311 -4.95741 0)
(98.7768 -6.35393 0)
(98.0747 -8.3409 0)
(98.5133 -10.7848 -5.51184e-29)
(100.472 -10.4729 0)
(101.303 -8.90622 0)
(101.323 -7.17906 0)
(100.944 -5.65669 0)
(100.441 -4.40465 -1.95831e-19)
(99.8569 -3.28606 0)
(99.5606 -2.51129 0)
(99.053 -1.70921 -1.56707e-18)
(98.8406 -1.18071 7.89377e-19)
(98.7046 -0.687043 3.31721e-20)
(98.6328 -0.228321 -5.49266e-19)
(102.052 -0.179447 0)
(102.03 -0.540045 0)
(101.989 -0.91678 0)
(101.921 -1.31011 0)
(101.739 -1.64577 0)
(101.58 -2.10572 0)
(101.37 -2.64261 0)
(101.101 -3.19269 0)
(100.845 -3.92118 0)
(100.451 -4.79953 0)
(100.111 -5.88453 0)
(96.8057 -6.74366 0)
(99.2866 -8.2073 4.51088e-33)
(99.7889 -8.16957 0)
(100.062 -7.40682 0)
(100.03 -6.32284 0)
(99.7918 -5.20842 0)
(99.4715 -4.19949 0)
(99.0957 -3.22131 -5.60996e-19)
(98.9082 -2.50375 8.60738e-19)
(98.515 -1.7182 4.89333e-19)
(98.3557 -1.19193 8.52026e-19)
(98.25 -0.696772 -9.71426e-19)
(98.1941 -0.23159 0)
(102.392 -0.179537 0)
(102.378 -0.540293 0)
(102.352 -0.914802 0)
(102.309 -1.3049 0)
(102.155 -1.64057 0)
(102.042 -2.08475 0)
(101.897 -2.59284 0)
(101.704 -3.10701 0)
(101.537 -3.74912 0)
(101.267 -4.46651 0)
(101.03 -5.24765 0)
(95.9932 -5.55074 0)
(99.7058 -6.60138 9.62762e-38)
(99.505 -6.59471 0)
(99.3466 -6.17373 0)
(99.1523 -5.47917 0)
(98.916 -4.68268 0)
(98.6794 -3.8963 0)
(98.42 -3.05861 0)
(98.304 -2.41778 0)
(97.9993 -1.67664 1.69552e-18)
(97.8812 -1.16927 -1.6194e-18)
(97.7994 -0.686539 -1.09983e-19)
(97.7564 -0.228338 1.03444e-19)
(102.729 -0.176278 0)
(102.721 -0.530419 0)
(102.708 -0.895406 0)
(102.684 -1.27412 0)
(102.556 -1.60074 0)
(102.479 -2.01873 0)
(102.379 -2.4858 0)
(102.238 -2.94961 0)
(102.117 -3.49461 0)
(101.886 -4.06196 0)
(101.674 -4.63196 0)
(95.6118 -4.68652 0)
(99.9323 -5.47495 0)
(99.3535 -5.46216 0)
(98.9034 -5.19861 0)
(98.5491 -4.73147 0)
(98.2604 -4.15404 0)
(98.0402 -3.54304 0)
(97.8361 -2.8389 0)
(97.7586 -2.27802 0)
(97.5172 -1.59731 0)
(97.4282 -1.1196 0)
(97.3645 -0.661299 0)
(97.3311 -0.220488 0)
(103.057 -0.170337 0)
(103.054 -0.512469 0)
(103.05 -0.862392 0)
(103.041 -1.22372 0)
(102.933 -1.53478 0)
(102.88 -1.92067 0)
(102.81 -2.34148 0)
(102.698 -2.75084 0)
(102.59 -3.20544 0)
(102.356 -3.65189 0)
(102.132 -4.07769 0)
(95.5206 -4.02841 0)
(100.055 -4.6285 0)
(99.2519 -4.60657 0)
(98.6063 -4.42261 0)
(98.1205 -4.091 0)
(97.7647 -3.66149 0)
(97.5273 -3.18287 0)
(97.3393 -2.5948 0)
(97.2765 -2.10963 0)
(97.0752 -1.49477 0)
(97.0043 -1.05263 0)
(96.9526 -0.625023 0)
(96.9264 -0.208475 0)
(103.371 -0.162411 0)
(103.373 -0.488568 0)
(103.375 -0.819604 0)
(103.375 -1.15962 0)
(103.282 -1.45101 0)
(103.245 -1.80252 0)
(103.189 -2.17686 0)
(103.09 -2.53392 0)
(102.974 -2.91118 0)
(102.718 -3.26515 0)
(102.462 -3.59083 0)
(95.6059 -3.50485 0)
(100.119 -3.96448 0)
(99.1721 -3.93538 0)
(98.3925 -3.79567 0)
(97.8038 -3.54821 0)
(97.3828 -3.2194 0)
(97.1135 -2.83912 0)
(96.9188 -2.34743 0)
(96.8545 -1.9297 0)
(96.6755 -1.38016 0)
(96.6138 -0.976111 0)
(96.5688 -0.582314 0)
(96.5471 -0.194148 0)
(103.669 -0.153166 0)
(103.673 -0.460726 0)
(103.679 -0.770577 0)
(103.684 -1.08711 0)
(103.602 -1.35673 0)
(103.571 -1.67408 0)
(103.52 -2.00469 0)
(103.422 -2.3145 0)
(103.286 -2.62812 0)
(103.002 -2.91248 0)
(102.699 -3.16654 0)
(95.7908 -3.07508 0)
(100.147 -3.42818 -5.1946e-34)
(99.1037 -3.39412 0)
(98.2291 -3.2813 0)
(97.5612 -3.0886 0)
(97.0823 -2.82984 0)
(96.7764 -2.5227 0)
(96.5624 -2.10943 0)
(96.4865 -1.74982 0)
(96.317 -1.26174 0)
(96.2579 -0.895816 0)
(96.2155 -0.53661 0)
(96.196 -0.178805 0)
(103.948 -0.143183 0)
(103.954 -0.430693 0)
(103.962 -0.718324 0)
(103.967 -1.01059 0)
(103.893 -1.25783 0)
(103.863 -1.54278 0)
(103.808 -1.83383 0)
(103.703 -2.1023 0)
(103.541 -2.36444 0)
(103.23 -2.5964 0)
(102.868 -2.79763 0)
(96.0262 -2.71473 0)
(100.153 -2.98616 0)
(99.042 -2.9489 0)
(98.0984 -2.85378 0)
(97.3691 -2.69839 0)
(96.8407 -2.48966 0)
(96.4984 -2.23754 0)
(96.2591 -1.88773 0)
(96.166 -1.57739 0)
(95.9971 -1.1453 0)
(95.9358 -0.815904 0)
(95.8932 -0.490467 0)
(95.8743 -0.163333 0)
(104.208 -0.132945 0)
(104.215 -0.399907 0)
(104.222 -0.665263 0)
(104.226 -0.933523 0)
(104.156 -1.15881 0)
(104.122 -1.41393 0)
(104.058 -1.67 0)
(103.942 -1.90291 0)
(103.753 -2.12368 0)
(103.417 -2.3159 0)
(102.987 -2.47711 0)
(96.282 -2.40837 0)
(100.144 -2.61668 -6.57639e-34)
(98.9852 -2.5775 0)
(97.99 -2.49488 0)
(97.2128 -2.366 0)
(96.6428 -2.19402 0)
(96.2662 -1.98393 0)
(95.9996 -1.68558 0)
(95.8863 -1.41669 0)
(95.7123 -1.0346 0)
(95.6459 -0.739198 0)
(95.6008 -0.445684 0)
(95.5813 -0.14834 0)
(104.449 -0.122827 0)
(104.455 -0.369488 0)
(104.461 -0.613235 0)
(104.462 -0.858467 0)
(104.392 -1.0629 0)
(104.351 -1.2911 0)
(104.277 -1.51666 0)
(104.147 -1.71924 0)
(103.931 -1.90674 0)
(103.572 -2.06848 0)
(103.069 -2.19875 0)
(96.5402 -2.14557 0)
(100.125 -2.30481 0)
(98.932 -2.26462 0)
(97.8976 -2.19134 0)
(97.0827 -2.08205 0)
(96.4778 -1.93777 0)
(96.07 -1.76034 0)
(95.7759 -1.50399 0)
(95.6416 -1.2699 0)
(95.459 -0.931909 0)
(95.3856 -0.667481 0)
(95.3367 -0.403447 0)
(95.3159 -0.134219 0)
(104.671 -0.113109 0)
(104.676 -0.34027 0)
(104.679 -0.563578 0)
(104.675 -0.78724 0)
(104.605 -0.9723 0)
(104.556 -1.17653 0)
(104.468 -1.37571 0)
(104.322 -1.55253 0)
(104.081 -1.71323 0)
(103.703 -1.85118 0)
(103.123 -1.95721 0)
(96.7905 -1.91904 0)
(100.1 -2.03996 2.14592e-34)
(98.882 -1.99936 0)
(97.8173 -1.93339 0)
(96.9725 -1.83905 0)
(96.3383 -1.71613 0)
(95.9024 -1.5645 0)
(95.582 -1.34267 0)
(95.4268 -1.13782 0)
(95.2335 -0.838411 0)
(95.1521 -0.601768 0)
(95.0988 -0.364474 0)
(95.076 -0.12121 0)
(104.875 -0.103992 0)
(104.879 -0.312847 0)
(104.879 -0.517216 0)
(104.869 -0.721052 0)
(104.797 -0.888406 0)
(104.738 -1.07152 0)
(104.635 -1.24802 0)
(104.474 -1.40299 0)
(104.21 -1.54203 0)
(103.815 -1.66112 0)
(103.157 -1.74795 0)
(97.0277 -1.72337 0)
(100.07 -1.81426 0)
(98.8347 -1.77367 0)
(97.7464 -1.71359 0)
(96.8775 -1.63097 0)
(96.2187 -1.52487 0)
(95.7579 -1.3939 0)
(95.4126 -1.20065 0)
(95.2373 -1.0204 0)
(95.0325 -0.754558 0)
(94.9427 -0.542534 0)
(94.8845 -0.329149 0)
(94.8595 -0.109435 0)
(105.063 -0.0956087 0)
(105.065 -0.287616 0)
(105.061 -0.474746 0)
(105.044 -0.660654 0)
(104.971 -0.812054 0)
(104.9 -0.976715 0)
(104.783 -1.1338 0)
(104.607 -1.27025 0)
(104.323 -1.39173 0)
(103.911 -1.49565 0)
(103.177 -1.5672 0)
(97.2492 -1.55445 0)
(100.037 -1.62177 0)
(98.7898 -1.58144 0)
(97.6831 -1.52623 0)
(96.7946 -1.453 0)
(96.1151 -1.36035 0)
(95.6321 -1.24612 0)
(95.2638 -1.07667 0)
(95.0695 -0.917125 0)
(94.8527 -0.680332 0)
(94.7546 -0.489896 0)
(94.6913 -0.297616 0)
(94.6639 -0.0989396 0)
(105.236 -0.0880421 0)
(105.236 -0.264822 0)
(105.228 -0.436521 0)
(105.204 -0.606454 0)
(105.127 -0.74364 0)
(105.046 -0.892308 0)
(104.914 -1.03287 0)
(104.723 -1.15363 0)
(104.421 -1.26083 0)
(103.995 -1.35244 0)
(103.185 -1.41173 0)
(97.4544 -1.40905 0)
(100.002 -1.45787 0)
(98.7471 -1.41794 0)
(97.6258 -1.36681 0)
(96.7215 -1.30121 0)
(96.0244 -1.21943 0)
(95.5217 -1.11887 0)
(95.132 -0.969325 0)
(94.92 -0.827207 0)
(94.6913 -0.615433 0)
(94.585 -0.443736 0)
(94.5167 -0.269865 0)
(94.4869 -0.0897172 0)
(105.395 -0.081339 0)
(105.393 -0.244606 0)
(105.381 -0.402721 0)
(105.35 -0.558634 0)
(105.269 -0.683293 0)
(105.178 -0.818224 0)
(105.032 -0.944781 0)
(104.827 -1.05231 0)
(104.509 -1.14788 0)
(104.068 -1.22942 0)
(103.187 -1.27887 0)
(97.6437 -1.28463 0)
(99.9652 -1.31892 0)
(98.7064 -1.27946 0)
(97.5735 -1.23177 0)
(96.6563 -1.17241 0)
(95.9441 -1.09949 0)
(95.4239 -1.01014 0)
(95.0146 -0.87726 0)
(94.786 -0.749766 0)
(94.5456 -0.559418 0)
(94.4315 -0.403813 0)
(94.3584 -0.245795 0)
(94.326 -0.0817304 0)
(105.542 -0.0755189 0)
(105.538 -0.227028 0)
(105.522 -0.373407 0)
(105.484 -0.517211 0)
(105.399 -0.630964 0)
(105.297 -0.754221 0)
(105.137 -0.869018 0)
(104.919 -0.965423 0)
(104.587 -1.05153 0)
(104.133 -1.12482 0)
(103.183 -1.16638 0)
(97.8179 -1.17909 0)
(99.9274 -1.20201 0)
(98.6673 -1.16304 0)
(97.5254 -1.11825 0)
(96.5975 -1.06402 0)
(95.8724 -0.99832 0)
(95.3365 -0.91815 0)
(94.909 -0.799212 0)
(94.665 -0.683919 0)
(94.4132 -0.511775 0)
(94.2917 -0.369818 0)
(94.2139 -0.22525 0)
(94.1791 -0.0749251 0)
(105.679 -0.0705919 0)
(105.673 -0.212115 0)
(105.652 -0.348588 0)
(105.608 -0.482171 0)
(105.519 -0.58651 0)
(105.406 -0.699986 0)
(105.233 -0.805019 0)
(105.003 -0.892119 0)
(104.659 -0.970578 0)
(104.191 -1.03711 0)
(103.176 -1.07238 0)
(97.9783 -1.09074 0)
(99.8888 -1.10481 -3.02841e-35)
(98.6297 -1.06631 0)
(97.4808 -1.02395 0)
(96.544 -0.973906 0)
(95.8077 -0.914074 0)
(95.2576 -0.841388 0)
(94.8133 -0.734058 0)
(94.5549 -0.628849 0)
(94.2921 -0.472043 0)
(94.1635 -0.341449 0)
(94.0812 -0.208073 0)
(94.0441 -0.0692479 0)
(105.808 -0.0665368 0)
(105.8 -0.199822 0)
(105.775 -0.328181 0)
(105.724 -0.453278 0)
(105.63 -0.549758 0)
(105.506 -0.65519 0)
(105.321 -0.752242 0)
(105.079 -0.831631 0)
(104.724 -0.903966 0)
(104.243 -0.965034 0)
(103.167 -0.995302 0)
(98.1261 -1.01824 0)
(99.8499 -1.02547 0)
(98.5934 -0.987387 0)
(97.439 -0.94702 0)
(96.4947 -0.90036 0)
(95.7486 -0.845239 0)
(95.1857 -0.778581 0)
(94.7256 -0.680831 0)
(94.4537 -0.583827 0)
(94.1798 -0.439654 0)
(94.0444 -0.318373 0)
(93.9578 -0.19407 0)
(93.9183 -0.0646266 0)
(105.928 -0.0633968 0)
(105.918 -0.190231 0)
(105.889 -0.312277 0)
(105.832 -0.430957 0)
(105.733 -0.520548 0)
(105.6 -0.619522 0)
(105.403 -0.710202 0)
(105.15 -0.78327 0)
(104.785 -0.850797 0)
(104.291 -0.907505 0)
(103.156 -0.933888 0)
(98.2626 -0.960477 0)
(99.8107 -0.962473 0)
(98.5581 -0.92475 0)
(97.3995 -0.885977 0)
(96.4489 -0.841992 0)
(95.6941 -0.790575 0)
(95.1193 -0.728673 0)
(94.6444 -0.638726 0)
(94.3597 -0.548265 0)
(94.076 -0.414671 0)
(93.9343 -0.300456 0)
(93.8435 -0.183186 0)
(93.802 -0.0610588 0)
(106.049 -0.0609997 0)
(106.037 -0.18299 0)
(106.003 -0.300386 0)
(105.939 -0.413518 0)
(105.831 -0.498794 0)
(105.688 -0.592726 0)
(105.479 -0.67849 0)
(105.217 -0.746459 0)
(104.842 -0.810317 0)
(104.335 -0.863648 0)
(103.145 -0.887116 0)
(98.3891 -0.916611 0)
(99.7715 -0.914683 0)
(98.5236 -0.877224 0)
(97.3617 -0.839659 0)
(96.4056 -0.797705 0)
(95.6429 -0.749098 0)
(95.0572 -0.690829 0)
(94.5682 -0.607095 0)
(94.2715 -0.521632 0)
(93.9734 -0.395381 0)
(93.8248 -0.287089 0)
(93.7298 -0.174987 0)
(93.6858 -0.058344 0)
(106.144 -0.0598054 0)
(106.13 -0.179023 0)
(106.093 -0.293803 0)
(106.025 -0.406331 0)
(105.925 -0.484411 0)
(105.772 -0.574562 0)
(105.552 -0.656841 0)
(105.28 -0.720723 0)
(104.896 -0.781879 0)
(104.375 -0.832733 0)
(103.135 -0.854189 0)
(98.5068 -0.886041 0)
(99.7324 -0.881244 0)
(98.4897 -0.843905 0)
(97.3253 -0.807162 0)
(96.3643 -0.76664 0)
(95.5944 -0.720038 0)
(94.9984 -0.664411 0)
(94.496 -0.585433 0)
(94.1874 -0.50372 0)
(93.8914 -0.386474 0)
(93.7386 -0.279364 0)
(93.6404 -0.17031 0)
(93.5948 -0.0569183 0)
(106.308 -0.0584893 0)
(106.291 -0.175443 0)
(106.248 -0.288193 0)
(106.169 -0.395282 0)
(106.011 -0.476376 0)
(105.849 -0.564915 0)
(105.619 -0.64569 0)
(105.341 -0.705682 0)
(104.948 -0.764875 0)
(104.414 -0.814119 0)
(103.125 -0.834552 0)
(98.6166 -0.868538 0)
(99.6934 -0.86159 0)
(98.4562 -0.82411 0)
(97.2897 -0.7878 0)
(96.3244 -0.748148 0)
(95.5477 -0.702802 0)
(94.9418 -0.649 0)
(94.4293 -0.573533 0)
(94.111 -0.493415 0)
(93.755 -0.374313 0)
(93.5921 -0.272748 0)
(93.4885 -0.166028 0)
(93.4398 -0.0553513 0)
(90.0553 -2.80979 -9.54457e-22)
(131.877 12.3935 2.16999e-20)
(117.83 23.2397 -2.81891e-18)
(91.851 -3.37664 -1.49853e-20)
(132.456 -4.1284 -1.86844e-19)
(132.74 10.1596 -6.37639e-19)
(92.6444 -4.03697 -6.12981e-20)
(125.053 -14.2147 -5.89038e-19)
(131.768 -5.80631 1.12776e-18)
(93.1974 -4.9371 1.27657e-19)
(116.414 -18.3754 3.51772e-18)
(123.978 -15.002 -5.45675e-19)
(94.0458 -6.23789 -6.45874e-20)
(103.922 -27.4268 1.82487e-19)
(104.712 -27.0049 0)
(108.335 -18.3737 -1.72894e-18)
(115.349 -18.5911 -7.41027e-19)
(95.4974 -8.11907 0)
(95.7806 -18.1005 0)
(103.569 -27.3287 0)
(97.2312 -18.3462 1.69563e-19)
(102.702 -15.6734 -6.47467e-19)
(107.429 -18.2033 -2.07706e-19)
(86.6964 1.94194 -2.84722e-18)
(91.6995 16.0353 -3.05718e-19)
(115.19 23.3374 3.30277e-20)
(103.757 17.3683 -8.0554e-19)
(136.344 30.2404 1.93623e-19)
(117.056 39.2092 5.02549e-18)
(129.504 11.2991 0)
(118.92 6.72403 2.76024e-19)
(114.214 10.7744 -2.20228e-19)
(93.3083 -2.37941 0)
(92.0181 -3.25133 1.98044e-20)
(90.6409 -2.57985 -6.27883e-20)
(143.584 1.68525 5.41418e-20)
(144.008 13.9268 0)
(130.509 -3.59185 3.76319e-19)
(120.774 -1.15283 -1.08402e-18)
(119.909 4.84799 -2.31442e-19)
(94.0182 -3.33881 -2.51768e-20)
(92.8156 -3.95241 -9.55537e-20)
(92.1351 -3.33485 -1.93397e-20)
(92.2852 -3.70211 8.04026e-20)
(91.6012 -4.08566 2.65486e-20)
(91.1821 -3.79316 -3.16065e-20)
(133.576 -15.3406 6.91063e-19)
(139.179 -9.03811 0)
(124.003 -13.1162 -1.67904e-18)
(118.084 -7.76506 -2.34034e-18)
(120.433 -3.03691 0)
(94.6644 -4.22269 3.45315e-19)
(93.4061 -4.8557 -1.58059e-19)
(92.8941 -4.04736 0)
(92.9243 -4.4315 4.19434e-20)
(91.9605 -4.6222 0)
(91.9416 -4.32608 5.70384e-20)
(122.657 -21.8099 -8.79488e-21)
(127.391 -19.6872 0)
(95.4785 -5.15826 -2.22698e-20)
(94.1945 -6.09817 -1.12752e-19)
(93.4866 -4.99395 0)
(93.6108 -5.5577 4.72179e-20)
(91.9781 -5.85858 5.87765e-20)
(91.9948 -5.24654 -5.54612e-20)
(108.729 -28.1854 0)
(112.238 -23.3494 0)
(116.739 -23.2345 3.56037e-19)
(96.6964 -6.0652 0)
(95.6339 -7.82449 0)
(94.3209 -6.27791 0)
(94.6082 -7.05858 0)
(90.8612 -7.32734 -1.1407e-18)
(91.7737 -6.59329 5.13331e-19)
(98.7816 -8.47438 0)
(97.4321 -11.1668 1.02461e-27)
(95.7846 -17.3802 -1.68899e-22)
(86.7671 -5.79166 -5.55728e-20)
(90.092 -4.70536 3.25874e-20)
(79.2283 -0.334943 4.57248e-18)
(85.9291 -5.7581 2.70061e-19)
(143.877 14.8481 2.605e-18)
(137.176 29.3663 -1.54099e-19)
(127.495 18.6048 -1.52633e-18)
(136.046 27.6478 9.10099e-19)
(142.93 14.6697 -8.67435e-19)
(91.14 -3.74274 0)
(90.9316 -3.64523 -3.63527e-20)
(91.4454 -3.19224 0)
(90.8319 -3.67936 0)
(91.0081 -3.78418 0)
(90.2678 -4.50861 -4.72318e-20)
(90.8048 -3.71823 0)
(139.507 -8.49545 2.66545e-20)
(143.431 0.9517 5.43625e-20)
(133.167 2.00625 1.84219e-19)
(142.782 1.15356 -2.61306e-20)
(139.101 -8.16088 0)
(143.092 13.7678 -1.07996e-19)
(142.926 1.86344 2.05542e-19)
(133.191 3.0127 1.20227e-20)
(91.9169 -4.29224 0)
(91.6564 -4.11102 -4.00465e-20)
(92.3838 -3.78452 -2.02861e-20)
(91.5107 -4.14962 7.75915e-20)
(91.7609 -4.31681 0)
(91.0272 -3.81472 5.5074e-21)
(91.4837 -4.13627 1.48436e-19)
(128.072 -19.2945 0)
(133.184 -15.6872 -1.68182e-19)
(128.176 -11.2812 -4.40613e-21)
(132.723 -15.1985 6.14602e-19)
(127.833 -18.5934 0)
(138.785 -8.70185 0)
(133.468 -14.5702 -3.72986e-19)
(129.162 -10.096 0)
(91.9861 -5.20624 -3.8437e-23)
(91.9584 -4.65318 -1.25674e-19)
(92.9894 -4.54728 -1.46254e-19)
(91.7898 -4.64746 1.11934e-19)
(91.7209 -5.21282 0)
(91.7707 -4.3351 2.64696e-20)
(91.7974 -4.61718 2.15468e-19)
(117.389 -23.1433 3.65875e-19)
(121.987 -22.0327 -9.56322e-19)
(91.7889 -6.54402 2.52358e-19)
(91.9746 -5.90908 -2.99705e-20)
(93.6593 -5.6403 6.30028e-20)
(106.876 -28.225 0)
(91.4967 -5.89758 -2.27188e-19)
(90.8577 -6.50554 -3.43874e-19)
(91.7263 -5.25246 -6.09735e-20)
(91.5171 -5.85131 0)
(106.646 -28.1228 1.78676e-19)
(107.531 -22.7581 7.78642e-19)
(111.596 -23.36 0)
(108.655 -28.1979 1.6542e-19)
(78.442 -7.62452 2.65236e-19)
(90.8135 -7.39782 -4.55508e-21)
(94.6979 -7.18352 3.98159e-22)
(98.0648 -23.3327 2.4373e-20)
(89.153 -7.23753 0)
(52.3781 -8.0174 1.18566e-19)
(90.8218 -6.54789 7.11068e-20)
(89.2045 -7.173 1.40779e-18)
(98.6153 -23.9937 0)
(92.4859 -0.954845 -7.43454e-20)
(90.3166 -2.41775 6.83031e-20)
(87.8621 1.04278 8.43528e-19)
(88.0393 -1.57706 -4.00476e-19)
(86.1253 -4.91544 -3.13467e-19)
(80.7656 0.0889426 2.03138e-18)
(135.465 51.2956 3.49787e-17)
(111.387 57.7857 4.12609e-19)
(91.2607 -3.13976 -9.51858e-20)
(90.8905 -3.67746 1.79887e-20)
(90.2274 -4.3238 -2.95424e-21)
(121.955 -23.1232 -4.96446e-18)
(115.951 -17.2788 -1.54158e-18)
(113.312 -11.5271 0)
(116.998 -8.98097 5.02175e-19)
(106.492 -27.2028 3.09496e-18)
(114.403 -26.1956 -7.74082e-19)
(116.653 -25.8479 2.04092e-19)
(99.5175 -23.4463 2.2504e-19)
(103.294 -20.431 -9.36096e-20)
(106.377 -22.3009 -1.83916e-18)
(90.0172 -4.46186 -1.28431e-20)
(86.8485 -5.0245 5.1742e-20)
(88.5897 -2.06155 6.15428e-21)
(89.5536 -6.7558 9.15816e-20)
(68.3869 -2.21434 9.53948e-18)
(78.7203 -11.4648 -1.59428e-18)
(117.273 36.0987 -9.28807e-19)
(134.431 29.3908 -2.09003e-19)
(125.411 20.299 1.30683e-18)
(116.99 -25.7569 0)
(119.225 -25.3171 0)
(119.653 -17.3386 0)
(121.823 -21.3373 4.549e-19)
(117.312 -22.4655 -7.17283e-19)
(127.158 -18.9785 0)
(122.481 -21.1082 -2.44662e-19)
(120.739 -16.8614 -9.84673e-19)
(106.024 -28.2214 1.24006e-19)
(90.2696 -26.7419 0)
(101.135 -26.204 0)
(83.8522 22.7313 4.43331e-20)
(82.8334 10.1754 -1.06714e-18)
(78.9132 1.31538 7.37758e-18)
(113.849 38.6261 3.1959e-21)
(100.516 28.9756 9.57539e-19)
(85.4671 25.3168 -4.18086e-20)
(137.651 48.8446 -1.56982e-16)
(129.647 36.5622 -5.16226e-19)
(136.251 48.564 2.25462e-17)
(112.407 54.1116 -4.85209e-19)
(133.772 50.166 -3.44004e-18)
(126.778 37.84 -1.00252e-18)
(144.089 7.06927 -2.38055e-19)
(144.137 7.87914 0)
(136.284 -12.8004 -1.88878e-19)
(136.664 -12.3657 7.69028e-19)
(121.627 -24.4857 2.89847e-19)
(122.345 -23.2393 -4.98763e-19)
(124.675 -21.0278 0)
(123.985 -23.1456 2.34575e-18)
(122.222 -24.1685 1.3925e-19)
(125.13 -21.7056 6.3453e-18)
(124.08 -23.0175 1.19123e-18)
(125.351 -20.7269 -4.19123e-19)
(92.0278 -5.54263 1.78577e-19)
(92.9229 -5.48936 1.38126e-19)
(93.0341 -5.74332 0)
(111.675 -26.1532 6.4639e-19)
(113.725 -26.2185 9.26213e-19)
(107.283 -27.3675 -1.02336e-17)
(91.6563 -6.96871 -1.42169e-19)
(93.6014 -6.98839 1.00707e-19)
(93.7389 -7.3707 -8.80389e-20)
(93.4288 -6.56264 4.97044e-20)
(93.5586 -6.87454 -1.00192e-19)
(91.6872 -6.90317 -4.24166e-19)
(87.4939 -9.69245 -4.13533e-18)
(89.3514 -7.08533 5.64869e-18)
(88.6865 -5.47025 1.96216e-20)
(89.4455 -7.00341 -2.37875e-18)
(87.3676 -9.17074 7.07269e-18)
(90.039 -5.07328 -1.22037e-18)
(89.6282 -6.7118 -1.28541e-18)
(89.153 -5.29301 0)
(81.7991 -4.07726 0)
(79.0299 -10.0049 1.29408e-20)
(70.5281 -1.76667 -4.43336e-18)
(86.8221 -9.44292 -1.28074e-19)
(80.3 -10.2966 1.40535e-18)
(82.9016 -4.82713 2.72951e-19)
(80.1853 -11.6877 -2.7315e-19)
(87.0236 -10.0177 3.53794e-19)
(141.826 21.4276 1.84275e-18)
(141.404 22.4319 -6.32847e-19)
(90.9233 -3.63891 2.07071e-20)
(89.8033 -3.62995 -4.31229e-22)
(90.9306 -3.64634 0)
(90.6071 -4.04521 -3.88917e-20)
(90.0768 -4.05381 2.84038e-18)
(90.0268 -4.92329 -1.26542e-18)
(89.8466 -3.63681 -2.35724e-20)
(90.0472 -3.95105 -5.60077e-21)
(90.6755 -3.93423 2.61316e-20)
(141.521 -4.34354 -7.20006e-19)
(141.77 -3.7094 1.1957e-18)
(141.285 -3.47376 0)
(137.402 -1.89379 2.10104e-19)
(138.094 1.58617 -4.35342e-21)
(135.88 -6.04581 6.97929e-19)
(137.082 -2.99078 0)
(141.048 -4.10964 0)
(143.452 7.90405 -1.1284e-19)
(138.182 8.00735 1.09943e-19)
(137.407 12.1379 -2.17757e-19)
(138.224 2.81524 -9.39763e-20)
(138.286 6.67394 -8.13121e-20)
(143.425 7.09898 4.39316e-19)
(91.6629 -4.21434 1.50029e-19)
(91.6797 -4.22662 9.12275e-20)
(91.2263 -4.00469 1.15242e-20)
(91.2596 -4.02966 1.15932e-20)
(130.26 -17.7538 7.51111e-20)
(125.397 -21.4292 0)
(130.614 -17.4806 7.6964e-20)
(91.7767 -4.90337 -1.18096e-19)
(91.7737 -4.93676 -2.93364e-20)
(91.8127 -4.44681 2.57349e-20)
(91.8144 -4.46696 -5.19541e-20)
(121.905 -24.2757 -2.68484e-19)
(119.717 -24.9001 0)
(120.001 -22.6039 -8.60434e-19)
(119.519 -25.235 4.82426e-19)
(121.359 -24.6071 -2.82848e-19)