/*--------------------------------*- C++ -*----------------------------------*\
| =========                 |                                                 |
| \\      /  F ield         | OpenFOAM: The Open Source CFD Toolbox           |
|  \\    /   O peration     | Version:  v1912                                 |
|   \\  /    A nd           | Website:  www.openfoam.com                      |
|    \\/     M anipulation  |                                                 |
\*---------------------------------------------------------------------------*/
FoamFile
{
    version     2.0;
    format      ascii;
    class       surfaceScalarField;
    location    "0.61";
    object      meshPhi;
}
// * * * * * * * * * * * * * * * * * * * * * * * * * * * * * * * * * * * * * //

dimensions      [0 3 -1 0 0 0 0];
oriented        oriented;


internalField   nonuniform List<scalar> 
25162
(
0
0
0
0
0
0
0
0
0
0
0
0
0
0
0
0
0
0
0
0
0
0
0
0
0
0
0
0
0
0
0
0
0
0
0
0
0
0
0
0
0
0
0
0
0
0
0
0
0
0
0
0
0
0
0
0
0
0
0
0
0
0
0
0
0
0
0
0
0
0
0
0
0
0
0
0
0
0
0
0
0
0
0
0
0
0
0
0
0
0
0
0
0
0
0
0
0
0
0
0
0
0
0
0
-8.907850169e-10
9.223341873e-08
-1.032864824e-06
0
3.061784645e-09
8.78100333e-07
0
0
0
0
0
0
0
0
0
0
0
0
0
0
0
0
0
0
0
0
0
0
0
0
0
0
0
0
0
0
0
0
0
0
0
0
0
0
0
0
0
0
0
0
0
0
0
0
0
0
0
0
0
0
0
0
0
0
0
0
0
0
0
0
0
0
4.411731634e-09
-1.47337087e-06
-3.226322157e-07
9.298923352e-06
1.150604724e-06
-8.195955534e-05
-2.450341525e-06
0.0001158711425
2.603445811e-06
-0.0002152559957
-5.73552218e-06
0.0002414333461
1.460672445e-06
-0.000280798092
-4.363965283e-06
0.0002783527006
-1.935284135e-06
-0.0002245279927
2.694272334e-06
0.0001937579977
-1.247940011e-06
-8.667425908e-05
3.709603096e-06
5.40155052e-05
0
-1.591439778e-06
6.498592449e-08
0
0
0
0
0
0
0
0
0
0
0
0
0
0
0
0
0
0
0
0
0
0
0
0
0
0
0
0
0
0
0
0
0
0
0
0
0
0
0
0
0
0
0
0
0
0
0
0
0
0
0
1.901902937e-07
-3.05453328e-06
-6.788794167e-07
2.173115713e-05
1.891780674e-06
-0.0001874199114
-1.526142157e-06
0.0002673169278
1.121039296e-05
-0.0005342847594
-1.712445377e-05
0.0006224528617
3.106768418e-05
-0.0008492755176
-4.640210447e-05
0.0009055475689
3.111191111e-05
-0.0009958696028
-4.740717838e-05
0.0009967617378
3.501819207e-06
-0.0009066964596
-1.046677589e-05
0.000846740944
-1.77940896e-05
-0.0005954586054
2.32532233e-05
0.0004964982962
-8.243798248e-06
-0.0002073524009
1.523929319e-05
0.0001285960279
0
-3.1178683e-06
1.384291315e-07
0
0
0
0
0
0
0
0
0
0
0
0
0
0
0
0
0
0
0
0
0
0
0
0
0
0
0
0
0
0
0
0
0
0
0
0
0
0
0
0
0
0
0
0
0
-6.656903617e-08
1.11987471e-06
-2.96129528e-07
-0.0001342087994
3.632764437e-06
0.0002289274766
-1.245811713e-06
-0.0006024695076
1.681330663e-06
0.0007423953615
4.849553374e-05
-0.001153071439
-6.331661994e-05
0.0012754449
0.000109465038
-0.001564160543
-0.0001327340447
0.001629976675
0.000112166996
-0.001733358854
-0.0001346765447
0.001737276169
4.897479074e-05
-0.00165333278
-6.642422311e-05
0.001590331036
-3.323873559e-05
-0.001287333868
3.265232291e-05
0.001151693772
-3.523804952e-05
-0.0007101369638
4.654857742e-05
0.0005598248205
-9.272553273e-06
-0.0001674424563
1.637561486e-05
8.280147996e-05
0
0
0
0
0
0
0
0
0
0
0
0
0
0
0
0
0
0
0
0
0
0
0
0
0
0
0
0
0
0
0
0
0
0
0
0
0
0
0
0
0
0
9.685888365e-07
-1.54748855e-05
-9.607516551e-07
6.639706978e-05
-1.394346419e-05
-0.000395681946
1.876805417e-05
0.0005478076
-7.063456356e-06
-0.001074139261
-4.34874981e-06
0.001254288228
0.0001159946612
-0.001696604262
-0.0001188135185
0.001794719457
0.0001896803364
-0.002004699424
-0.0001994323115
0.002035449306
0.0001818796107
-0.002065088897
-0.0001863982653
0.002066042434
0.0001270765917
-0.002050948359
-0.0001435827049
0.00202225152
2.847732085e-05
-0.001851601606
-3.896150599e-05
0.001727098426
-9.739586538e-05
-0.001213583376
0.0001066130614
0.001023962993
-4.739208701e-05
-0.0004654081946
5.911292954e-05
0.0003093326996
-2.077116288e-05
-5.879275888e-07
1.147474229e-06
3.143798729e-07
0
0
0
0
0
0
0
0
0
0
0
0
0
0
0
0
0
0
0
0
0
0
0
0
0
0
0
0
0
0
0
0
0
0
0
-5.934929688e-08
1.114434579e-08
4.194035104e-07
-6.007487268e-07
-7.503252925e-05
1.687744722e-06
0.0001681274275
-3.921096581e-05
-0.0006141456289
3.479961327e-05
0.0008154468964
2.934577184e-05
-0.001396043351
-3.377892254e-05
0.001569972612
0.0001624219133
-0.001966178873
-0.0001904043841
0.002051040677
0.0001810953935
-0.00212328073
-4.64528127e-05
-9.066217407e-05
0.001029752488
0.001049547836
-0.001024985656
9.44992194e-05
-9.491793127e-05
0.001025404368
-0.001054982982
0.000210763017
0.002115186838
-0.001070147036
-8.878626084e-05
-0.0001120335764
-0.002014224586
3.938743072e-05
-5.44941771e-05
0.001941463576
-0.000116150277
-0.001529323437
0.0001115116226
0.001344479059
-9.165510513e-05
-0.0007230824866
0.0001039053747
0.0005305863682
-0.0001052059522
-7.474858988e-06
1.037473596e-05
3.323668454e-05
0
0
0
0
0
0
0
0
0
0
0
0
0
0
0
0
0
0
0
0
0
0
0
0
0
0
0
0
0
0
0
0
0
2.485613897e-07
0
-5.353859197e-07
3.772604758e-06
5.702035156e-06
-4.547828748e-06
-0.0001226808288
4.947174138e-06
0.0002397772516
-4.218132415e-05
-0.0007582715602
4.315659842e-05
0.0009629070624
4.992228738e-05
-0.001556713792
-5.300612125e-05
0.001722488913
0.0002223879081
-0.002032070619
-0.0002283588632
0.002057236686
0.0001037356028
-0.001043332189
-0.0001021195518
0.001041716138
-0.001034327757
8.392109002e-05
-8.229103487e-05
0.001032697702
-0.00204233954
8.735356328e-05
-9.440849791e-05
0.002004161292
-0.0001177621623
-0.001657633069
0.0001165691553
0.001480320116
-0.0001276496827
-0.0008633072714
0.000130299139
0.0006595071225
-0.0001798166372
-1.793315423e-05
2.1435745e-05
7.858009112e-05
0
0
0
0
0
0
0
0
0
0
0
0
0
0
0
0
0
0
0
0
0
0
0
0
0
0
0
0
0
0
0
0
0
7.017372213e-07
0
-8.768088388e-07
9.996024708e-06
1.117704034e-05
-6.849759529e-06
-0.0001488304036
7.291734185e-06
0.0002739821561
-4.507087331e-05
-0.0008057074866
4.553119523e-05
0.001010441151
6.081716333e-05
-0.001590297846
-6.208769409e-05
0.00174526352
0.0002361918447
-0.002006270022
-0.0002372084684
0.00201551704
0.0001077056879
-0.001009197179
-0.0001076910328
0.001009182524
-0.001015097215
7.894756591e-05
-7.841803855e-05
0.001014567688
-0.002023501153
0.0001042250224
-0.0001058738534
0.002000394724
-0.0001081562326
-0.001699556228
0.0001059178164
0.001534301863
-0.0001426916531
-0.0009356803162
0.0001446356399
0.0007301254555
-0.0002170762356
-2.619722566e-05
2.776572189e-05
0.0001054196921
0
0
0
0
0
0
0
0
0
0
0
0
0
0
0
0
0
0
0
0
0
0
0
0
0
0
0
0
0
0
0
0
0
1.033896717e-06
0
-1.240722317e-06
1.469690639e-05
1.623993827e-05
-8.424039187e-06
-0.0001637302562
8.894301655e-06
0.0002921652603
-4.69470143e-05
-0.00082520102
4.743279785e-05
0.00102742034
6.463910636e-05
-0.001592265831
-6.583235167e-05
0.001740412454
0.0002392327914
-0.001979367068
-0.0002398422748
0.001984473702
0.0001076479303
-0.0009924193689
-0.0001073046354
0.0004960317303
0.0004960443438
-0.0009979540434
7.701120224e-05
-7.668436457e-05
0.0009976272057
-0.001989035479
0.0001034759203
-0.0001014933856
0.001961299324
-0.0001050676618
-0.001652742549
0.0001047827266
0.00148833659
-0.0001425978107
-0.0009019821601
0.0001412167149
0.0007030851612
-0.0002085484159
-2.672468747e-05
2.621878328e-05
0.0001009370647
0
0
0
0
0
0
0
0
0
0
0
0
0
0
0
0
0
0
0
0
0
0
0
0
0
0
0
0
0
0
0
0
0
1.45799026e-06
0
-1.691694535e-06
2.128351829e-05
2.314921428e-05
-1.040622562e-05
-0.0001819447173
1.095259217e-05
0.0003143210422
-4.884817357e-05
-0.0008500987723
4.93201529e-05
0.001050102389
6.963858166e-05
-0.001600358018
-7.101731393e-05
0.001741607345
0.0002416888567
-0.001957759298
-0.0002421824812
0.001959880856
0.0001072749163
-0.0009804851139
-0.0001071532097
0.0004903356143
0.000490027793
-0.0009833432793
7.591130869e-05
-7.563411256e-05
0.0009830660832
-0.001952866549
8.960300073e-05
-8.382411263e-05
0.00190409374
-0.0001090304926
-0.001540956686
0.0001020486376
0.001382369403
-0.0001299163664
-0.000804406654
0.0001257095968
0.0006151714034
-0.000161639598
-1.958504178e-05
1.805407888e-05
6.958202602e-05
0
0
0
0
0
0
0
0
0
0
0
0
0
0
0
0
0
0
0
0
0
0
0
0
0
0
0
0
0
0
0
0
0
1.943692915e-06
0
-2.029719006e-06
2.984740549e-05
3.071277766e-05
-1.278249268e-05
-0.0002025278667
1.351383988e-05
0.0003387625137
-5.068691605e-05
-0.0008760776722
5.11389701e-05
0.001073294862
7.570333513e-05
-0.001607233721
-7.765229099e-05
0.001741160591
0.0002433441349
-0.001933413747
-0.0002434342581
0.001933638575
0.0001067282625
-0.0009675695571
-0.0001067013208
0.000483790988
0.0004837516274
-0.0009669545664
7.492656138e-05
-7.492234018e-05
0.0009669503452
-0.001890202741
6.707941051e-05
-6.013849067e-05
0.00181387315
-0.0001045046961
-0.001414373947
0.0001154309858
0.001230609583
-0.0001086437363
-0.0006596716172
0.0001012006691
0.0004850590873
-0.0001026651016
-1.09200911e-05
8.958496833e-06
3.361416446e-05
0
0
0
0
0
0
0
0
0
0
0
0
0
0
0
0
0
0
0
0
0
0
0
0
0
0
0
0
0
0
0
0
0
2.492470005e-06
0
-2.419611362e-06
4.455331239e-05
5.054073297e-05
-1.521010294e-05
-0.0002303433845
1.74464327e-05
0.0003680814315
-5.238596959e-05
-0.0009097320382
5.083981278e-05
0.001104270511
8.47695327e-05
-0.001622714771
-8.03580141e-05
0.001744103616
0.0002438126865
-0.001907324356
-0.0002433050974
0.0009542752037
0.0009525415627
5.352513372e-05
-0.0004769225214
-5.339592451e-05
0.0004767933122
4.009977168e-05
-0.0002372740376
-3.968821111e-05
0.0004742286169
-0.0002373661399
-0.0009494805271
7.522737556e-05
-0.000149644113
0.001898285858
-0.0009475809273
7.31923338e-05
4.367867635e-05
-0.001789623036
-3.04845038e-05
0.001678374253
-0.0001155023152
-0.001231203076
0.000112544657
0.001050798893
-8.003437609e-05
-0.0005105293321
7.349763027e-05
0.0003541059899
-4.06804176e-05
-2.96088187e-06
2.195802986e-06
4.032727428e-06
0
0
0
0
0
0
0
0
0
0
0
0
0
0
0
0
0
0
0
0
0
0
0
0
0
0
0
0
0
0
0
0
0
3.074996115e-06
0
-2.846106632e-06
5.858104656e-05
5.337579686e-05
-2.084920885e-05
-0.0002646561601
1.966811462e-05
0.0004140814631
-5.24930318e-05
-0.0009691977597
5.220457835e-05
0.001162907181
9.893145985e-05
-0.0016542388
-9.350400121e-05
0.001764762271
0.0002441211688
-0.001881475514
-0.0002441211688
0.0009417637469
0.000939711767
5.439222103e-05
-0.0009417637469
-0.0001083268415
5.393462045e-05
0.0004708651245
0.0004708986224
9.368619304e-05
-0.0004708652036
-9.36860744e-05
0.0009417637469
-0.0004708986619
-0.001881475514
0.0001557043064
-0.0001536508241
0.001875319038
1.24461958e-05
-0.00164705549
-8.291747513e-06
0.001519456546
-9.892718369e-05
-0.001021255672
0.0001037343617
0.0008371848783
-5.07383369e-05
-0.0003398270628
4.045739659e-05
0.0002192287139
-5.40662056e-06
-3.181211369e-07
1.361610083e-07
0
0
0
0
0
0
0
0
0
0
0
0
0
0
0
0
0
0
0
0
0
0
0
0
0
0
0
0
0
0
0
0
0
0
2.128112744e-06
0
-9.22610848e-07
2.625535521e-05
1.63134467e-05
-1.184313877e-05
-0.0001865380812
8.547942048e-06
0.0003157876016
-4.635346548e-05
-0.0008326984702
4.234011559e-05
0.001022475529
6.202294876e-05
-0.001528986825
-4.950826989e-05
0.001654090661
0.0002237041906
-0.0018510437
-0.0002038476058
0.001860929055
0.0001083268415
-0.001856063832
-0.0002148278879
0.001856063832
0.0001065010465
0.0001855412037
-0.001856063832
-0.0001855412037
0.001856063832
0.0001389135718
-0.001819869809
-0.000129761376
0.001764804012
-1.370344333e-05
-0.00144182312
1.915100784e-05
0.001291309437
-8.965141774e-05
-0.0007816121761
8.251132059e-05
0.0006122232737
-2.189374703e-05
-0.0001890221683
1.821588725e-05
9.86935766e-05
0
0
0
0
0
0
0
0
0
0
0
0
0
0
0
0
0
0
0
0
0
0
0
0
0
0
0
0
0
0
0
0
0
0
0
0
0
2.454216953e-08
0
0
1.396045735e-07
0
-5.437500868e-07
-6.144603849e-05
-7.419522903e-07
0.0001393776298
-2.488604985e-05
-0.0005247615832
1.829027777e-05
0.0006853291367
1.844904368e-05
-0.001168688702
-1.197488862e-05
0.001309420699
0.000136553786
-0.001616017797
-0.0001141325532
0.00167725932
0.0001925892103
-0.001763911674
-0.0001740588444
0.001769586994
0.0001725428473
-0.001734588136
-0.0001570856254
0.001702134804
8.895312684e-05
-0.001514999131
-7.230141226e-05
0.00141930935
-3.222665378e-05
-0.001047474306
3.398451441e-05
0.0009051093304
-5.489948264e-05
-0.000477524371
4.45854549e-05
0.0003490024337
-5.935050777e-06
-6.510294089e-05
3.139896584e-06
1.800760711e-05
0
0
0
0
0
0
0
0
0
0
0
0
0
0
0
0
0
0
0
0
0
0
0
0
0
0
0
0
0
0
0
0
0
0
0
0
0
0
0
0
0
0
5.112493823e-07
-1.327974872e-07
-1.066675425e-07
1.008499223e-05
-2.484733435e-06
-0.0001793317613
-2.426827035e-07
0.0002750921374
3.954722324e-06
-0.0006199891845
-3.696816064e-06
0.0007376221571
5.668456862e-05
-0.0010394103
-4.224521706e-05
0.001113904528
0.0001033455708
-0.001243566355
-7.988344841e-05
0.001255531305
9.119311009e-05
-0.001202760886
-6.862189406e-05
0.001157071108
2.546815847e-05
-0.0009456866488
-1.396466502e-05
0.0008548530653
-2.862531244e-05
-0.000550038852
2.388454505e-05
0.0004463866872
-1.657858412e-05
-0.0001700413283
9.788074827e-06
9.98939539e-05
-2.85275414e-08
-4.404237127e-07
0
0
0
0
0
0
0
0
0
0
0
0
0
0
0
0
0
0
0
0
0
0
0
0
0
0
0
0
0
0
0
0
0
0
0
0
0
0
0
0
0
0
0
0
0
0
0
0
8.710308302e-07
-4.348563283e-06
-1.876373336e-07
2.035789044e-05
3.521524698e-06
-0.0001441051167
-2.765824916e-06
0.0002012080053
1.404215315e-05
-0.0003762303011
-8.893278796e-06
0.0004264643572
2.652578925e-05
-0.0005252171449
-1.594344849e-05
0.0005374098458
1.881897165e-05
-0.0005094915518
-9.878970639e-06
0.0004805112136
-2.716272285e-06
-0.0003500425139
3.371971565e-06
0.0002972390878
-7.920521342e-06
-0.0001373880518
3.988599317e-06
9.084207966e-05
-3.017668351e-07
-5.327646886e-06
7.286337247e-10
5.768005717e-08
0
0
0
0
0
0
0
0
0
0
0
0
0
0
0
0
0
0
0
0
0
0
0
0
0
0
0
0
0
0
0
0
0
0
0
0
0
0
0
0
0
0
0
0
0
0
0
0
0
0
0
0
0
0
3.142303661e-08
0
0
6.930453091e-07
1.115489187e-06
-1.912222311e-05
-1.911581364e-07
2.964684852e-05
1.69066426e-06
-5.759930635e-05
-4.764628209e-07
6.240523243e-05
2.888486295e-07
-5.752866504e-05
-6.241246682e-09
5.005930021e-05
-5.542185449e-07
-1.98440732e-05
4.356554354e-08
1.095258108e-05
0
0
0
0
0
0
0
0
0
0
0
0
0
0
0
0
0
0
0
0
0
0
0
0
0
0
0
0
0
0
0
0
0
0
0
0
0
0
0
0
0
0
0
0
0
0
0
0
0
0
0
0
0
0
0
0
0
0
0
0
0
0
0
0
0
0
0
0
0
0
0
0
0
0
0
0
0
0
0
0
0
0
0
0
0
0
0
0
0
0
0
0
0
0
0
0
0
0
0
0
0
0
0
0
0
0
0
0
0
0
0
0
0
0
0
0
0
0
0
0
0
0
0
0
0
0
0
0
0
0
0
0
0
0
0
0
0
0
0
0
0
0
0
0
0
0
0
0
0
0
0
0
0
0
0
0
0
0
0
0
0
0
0
0
0
0
0
0
0
0
0
0
0
0
0
0
0
0
0
0
0
0
0
0
0
0
0
0
0
0
0
0
0
0
0
0
0
0
0
0
0
0
0
0
0
0
0
0
0
0
0
0
0
0
0
0
0
0
0
0
0
0
0
0
0
0
0
0
0
0
0
0
0
0
0
0
0
0
0
0
0
0
0
0
0
0
0
0
0
0
0
0
0
0
0
0
0
0
0
0
0
0
0
0
0
0
0
0
0
0
0
0
0
0
0
0
0
0
0
0
0
0
0
0
0
0
0
0
0
0
0
0
0
0
0
0
0
0
0
0
0
0
0
0
0
0
0
0
0
0
0
0
0
0
0
0
0
0
0
0
0
0
0
0
0
0
0
0
0
0
0
0
0
0
0
0
0
0
0
0
0
0
0
0
0
0
0
0
0
0
0
0
0
0
0
0
0
0
0
0
0
0
0
0
0
0
0
0
0
0
0
0
0
0
0
0
0
0
0
0
0
0
0
0
0
0
0
0
0
0
0
0
0
0
0
0
0
0
0
0
0
0
0
0
0
0
0
0
0
0
0
0
0
0
0
0
0
0
0
0
0
0
0
0
0
0
0
0
0
0
0
0
0
0
0
0
0
0
0
0
0
0
0
0
0
0
0
0
0
0
0
0
0
0
0
0
0
0
0
0
0
0
0
0
0
0
0
0
0
0
0
0
0
0
0
0
0
0
0
0
0
0
0
0
0
0
0
0
0
0
0
0
0
0
0
0
0
0
0
0
0
0
0
0
0
0
0
0
0
0
0
0
0
0
0
0
0
0
0
0
0
0
0
0
0
0
0
0
0
0
0
0
0
0
0
0
0
0
0
0
0
0
0
0
0
0
0
0
0
0
0
0
0
0
0
0
0
0
0
0
0
0
0
0
0
0
0
0
0
0
0
0
0
0
0
0
0
0
0
0
0
0
0
0
0
0
0
0
0
0
0
0
0
0
0
0
0
0
0
0
0
0
0
0
0
0
0
0
0
0
0
0
0
0
0
0
0
0
0
0
0
0
0
0
0
0
0
0
0
0
0
0
0
0
0
0
0
0
0
0
0
0
0
0
0
0
0
0
0
0
0
0
0
0
0
0
0
0
0
0
0
0
0
0
0
0
0
0
0
0
0
0
0
0
0
0
0
0
0
0
0
0
0
0
0
0
0
0
0
0
0
0
0
0
0
0
0
0
0
0
0
0
0
0
0
0
0
0
0
0
0
0
0
0
0
0
0
0
0
0
0
0
0
0
0
0
0
0
0
0
0
0
0
0
0
0
0
0
0
0
0
0
0
0
0
0
0
0
0
0
0
0
0
0
0
0
0
0
0
0
0
0
0
0
0
0
0
0
0
0
0
0
0
0
0
0
0
0
0
0
0
0
0
0
0
0
0
0
0
0
0
0
0
0
0
0
0
0
0
0
0
0
0
0
0
0
0
0
0
0
0
0
0
0
0
0
0
0
0
0
0
0
0
0
0
0
0
0
0
0
0
0
0
0
0
0
0
0
0
0
0
0
0
0
0
0
0
0
0
0
0
0
0
0
0
0
0
0
0
0
0
0
0
0
0
0
0
0
0
0
0
0
0
0
0
0
0
0
0
0
0
0
0
0
0
0
0
0
0
0
0
0
0
0
0
0
0
0
0
0
0
0
0
0
0
0
0
0
0
0
0
0
0
0
0
0
0
0
0
0
0
0
0
0
0
0
0
0
0
0
0
0
0
0
0
0
0
0
0
0
0
0
0
0
0
0
0
0
0
0
0
0
0
0
0
0
0
0
0
0
0
0
0
0
0
0
0
0
0
0
0
0
0
0
0
0
0
0
0
0
0
0
0
0
0
0
0
0
0
0
0
0
0
0
0
0
0
0
0
0
0
0
0
0
0
0
0
0
0
0
0
0
0
0
0
0
0
0
0
0
0
0
0
0
0
0
0
0
0
0
0
0
0
0
0
0
0
0
0
0
0
0
0
0
0
0
0
0
0
0
0
0
0
0
0
0
0
0
0
0
0
0
0
0
0
0
0
0
0
0
0
0
0
0
0
0
0
0
0
0
0
0
0
0
0
0
0
0
0
0
0
0
0
0
0
0
0
0
0
0
0
0
0
0
0
0
0
0
0
0
0
0
0
0
0
0
0
0
0
0
0
0
0
0
0
0
0
0
0
0
0
0
0
0
0
0
0
0
0
0
0
0
0
0
0
0
0
0
0
0
0
0
0
0
0
0
0
0
0
0
0
0
0
0
0
0
0
0
0
0
0
0
0
0
0
0
0
0
0
0
0
0
0
0
0
0
0
0
0
0
0
0
0
0
0
0
0
0
0
0
0
0
0
0
0
0
0
0
0
0
0
0
0
0
0
0
0
0
0
0
0
0
0
0
0
0
0
0
0
0
0
0
0
0
0
0
0
0
0
0
0
0
0
0
0
0
0
0
0
0
0
0
0
0
0
0
0
0
0
0
0
0
0
0
0
0
0
0
0
0
0
0
0
0
0
0
0
0
0
0
0
0
0
0
0
0
0
0
0
0
0
0
0
0
0
0
0
0
0
0
0
0
0
0
0
0
0
0
0
0
0
0
0
0
0
0
0
0
0
0
0
0
0
0
0
0
0
0
0
0
0
0
0
0
0
0
0
0
0
0
0
0
0
0
0
0
0
0
0
0
0
0
0
0
0
0
0
0
0
0
0
0
0
0
0
0
0
0
0
0
0
0
0
0
0
0
0
0
0
0
0
0
0
0
0
0
0
0
0
0
0
0
0
0
0
0
0
0
0
0
0
0
0
0
0
0
0
0
0
0
0
0
0
0
0
0
0
0
0
-0.001012343916
0.001012376516
0.0001076730881
-8.203527229e-05
0.001015161427
8.261993091e-05
-0.0005085448323
-0.0005072012536
9.196439877e-05
-0.001038814635
-8.74775206e-05
-0.0009940774145
0.0001078997617
0.0004973915051
0.0004964340779
-7.829102583e-05
0.001000801692
7.876125935e-05
-0.0005003567479
-0.0005009151778
-8.031758859e-05
-0.0005082678987
-0.0005085470004
-0.0009819990078
0.0001074377097
0.0004912339097
0.0004906023046
-7.762186451e-05
0.0009841435759
7.693689385e-05
-0.0004913353104
-0.0004921232949
-7.796800706e-05
-0.0004982903005
-0.0004999867617
-0.0009689041349
0.0001069352744
0.0004845928488
0.0004841042741
-7.581059202e-05
0.0009681652204
7.637416934e-05
-0.0009687287977
-0.0009837506073
-7.721453654e-05
-0.0004777740739
0.0004777778575
5.352135015e-05
0.0002378983952
-2.036001186e-05
2.044781566e-05
-0.000237986199
-0.0002379818282
0.0004753489505
4.063104461e-05
-7.618685274e-05
0.0009522385855
7.603627377e-05
-0.0009520880066
-0.0009670920087
-7.567314969e-05
-0.0004717068406
0.0004717068406
5.439222103e-05
0.0004717070605
-4.752996097e-05
4.753057466e-05
-0.0004717076742
-0.0002375915548
-2.00424946e-05
0.000943379433
-0.0004279739417
2.165926265e-05
2.832849962e-05
-0.0001457346367
0.001864893655
-0.0009402646958
-0.0009362729701
8.01621739e-05
7.721647403e-05
-0.0009493032384
-7.636414145e-05
-0.001044710833
0.001044297649
0.0001041487874
9.508319738e-05
-0.001025144972
-9.492388158e-05
0.001041089081
9.039995763e-05
-0.00103952464
0.0001006095564
-0.001047150346
-0.0001084421917
-2.178662292e-05
0.0002584723121
2.190222506e-05
-0.0002585879143
0.000525475473
5.122363725e-05
-0.0005269870394
-4.971207086e-05
0.001014756968
7.935202487e-05
-0.0001338583874
0.002026695744
0.0001363194685
-0.002029694607
0.0001366786661
-0.002053065737
-0.0001337168646
-0.001985183123
0.001991097584
0.0002386678894
-0.0001094779807
0.0001095404733
-0.0009941399071
0.0001095525739
-0.001009114023
-0.0001096357297
-2.437004165e-05
0.0002519730432
2.419063796e-05
-0.0002517936395
2.150198306e-05
0.0002544015339
-0.0002543282053
-2.157531166e-05
0.001000569376
7.724351858e-05
-0.000131039963
0.00199993964
0.0001318353589
-0.002000846278
-0.002024595946
-0.0001329465157
-0.001963710405
0.001966453586
0.0002411597484
-0.0001092298302
0.0001092924368
-0.0009820616143
-0.0009924865832
-0.0001094107665
-0.0001073265151
-0.0009888347129
0.0001074023057
0.0004944919405
0.0004942669818
-5.082218812e-05
0.0002471701114
5.065444109e-05
-0.0004943063817
0.0002473040174
5.079030122e-05
0.0002476691133
-0.0004958050334
-5.056997877e-05
0.0002479155977
-2.0998557e-05
0.0002483693136
2.111996063e-05
-0.0002484907172
2.252468417e-05
0.0002497336186
-0.0002491546612
-2.310364157e-05
0.0009842642083
7.579067632e-05
-0.0001248457631
0.001961651347
0.0001275303526
-0.001968175552
-0.00199031226
-0.0001301189912
-0.001939107005
0.001939831937
0.0002430369303
-0.0001088933225
0.0001089565228
-0.0009689673353
-0.0009805070924
-0.0001092078516
-0.0001073417554
-0.0009757188108
0.0001071871587
0.0004882042685
0.0004876691389
-2.542111568e-05
0.0002435953403
2.554095177e-05
-0.0002437151764
5.015483375e-05
0.0002450887209
-0.0004902839
-5.016026419e-05
0.0002452006095
-4.09293169e-05
0.0004877485379
4.110574602e-05
-0.000487924967
4.177778249e-05
0.0004919651499
-4.073219615e-05
-0.0002467082538
-0.0002463024825
-0.001914046923
0.0002435146273
0.0009579695064
0.0009563754761
-0.0001086229161
0.0004785870845
0.000108701899
-0.0009564401413
-0.0009676278943
-0.0001088349852
-5.357283182e-05
-0.0004814489534
0.0004814879185
5.353386669e-05
-2.770674578e-05
0.0002415062597
2.725190809e-05
-0.0002410514221
2.664466448e-05
0.0002412082431
-0.0002414696052
-2.638330236e-05
-0.0002423910775
-2.179589509e-05
0.0002415403597
2.264661286e-05
-4.028522527e-05
0.0004804522129
4.013277841e-05
-0.000480299766
4.070321651e-05
0.0004836958601
-0.0004836718059
-4.072727067e-05
-0.001881330353
0.0002467973995
0.000935274689
0.000943379433
-0.0001101620907
0.0004716725924
0.0001101620907
-0.000943379433
0.0004774312239
-0.0009543376754
-0.000108638986
-5.355364514e-05
-0.0004744998691
0.0004744555333
5.359798098e-05
-2.567691793e-05
0.0002341336956
2.67939609e-05
-0.0002352507385
2.841973988e-05
0.0002364159751
-0.0002370748886
-2.776082636e-05
-0.0009304554451
0.0009304554451
0.0001083268415
0.0009304554451
-9.551657147e-05
9.551657147e-05
-0.0009304554451
-0.0004708655413
-4.752962325e-05
5.038750398e-05
-0.0005103291677
-5.000722931e-05
0.0002547343131
0.0002552145799
-5.095488499e-05
-0.0005055967216
5.078341688e-05
0.0002533525068
0.000252415683
-0.0005251671276
4.076629349e-05
-3.97193048e-05
0.0005241201389
-0.0005121505569
0.0005125455981
4.999246286e-05
0.0002546465023
2.140495304e-05
-0.0002545494722
0.0002576107809
-0.0002578402857
-2.155711819e-05
8.449403727e-05
0.001024604416
-8.335258243e-05
-0.0005135993014
-0.000512146569
4.543834016e-05
-0.0002568072169
-4.449864425e-05
0.0005134783019
-2.148254898e-05
0.0002546996566
2.142939468e-05
0.0002476546164
5.104818895e-05
-0.0004962070811
0.000248294577
0.0004998501913
5.076543285e-05
-0.0004999100348
-5.070558936e-05
0.0001077711007
-0.001000101311
-0.0001077091796
0.00100003939
5.031459157e-05
-4.993408724e-05
0.0002498200628
0.0002496496242
-2.542582605e-05
0.0002476409184
2.543952398e-05
-0.0005044908235
-5.071309681e-05
0.000252184008
0.0002520650273
-0.0005007429165
5.028562325e-05
0.0002505803822
0.0002501915026
0.0002494054168
2.189474057e-05
-0.0002487754732
0.000252655856
-0.0002523164661
-2.470943155e-05
3.959239845e-05
0.0005043847702
-0.0005044841034
-3.949306529e-05
2.37286227e-05
-2.381273471e-05
0.000252739968
-2.193381332e-05
0.0002497725742
2.156665591e-05
-2.150380402e-05
0.000254422789
0.0002521458469
2.355581903e-05
0.0005041082325
3.95954627e-05
-0.0005041112967
0.0002450661992
5.042195567e-05
-0.0004903866354
0.0002450533143
0.0002473503134
-0.0004942742633
-5.106802069e-05
0.0002471697824
-0.0009875901188
-0.0001075350638
0.0004941932459
0.0004936054216
2.588069686e-05
-2.59704375e-05
0.0002474400541
-2.474342467e-05
0.0002449477502
2.48618737e-05
-2.534313576e-05
0.000247586423
0.0002474530875
2.559772075e-05
0.0004917507435
4.167028814e-05
-0.0002457694086
-0.0002458738405
0.0002481410212
-0.0002480841768
-2.105540136e-05
7.68389432e-05
0.0009894247883
-7.701552327e-05
-0.0004940278936
-0.0004952203146
4.170186614e-05
-0.0002473128339
-4.131930685e-05
0.0004950712958
-4.124652199e-05
0.0004916959379
4.130132751e-05
-2.2293623e-05
0.0002500934283
-0.0002481049899
0.0004959705796
2.10289257e-05
2.117666437e-05
0.000991554214
7.767009094e-05
-0.0004958847973
-0.0004965005644
0.0002413602276
2.683210673e-05
-0.0002415476698
0.0002434495987
-0.0002435326811
-2.533803335e-05
-0.0009733949393
-0.0001069982457
0.0004869486586
0.0004861027711
2.567908616e-05
-2.539227515e-05
0.0002431627877
-2.755247021e-05
0.0002409793296
2.793336823e-05
-2.470629125e-05
0.0002450515875
0.0002433999206
2.587450581e-05
0.000484423347
4.073039927e-05
-0.0004844505297
0.0004876841088
-0.00048766532
-4.094810574e-05
0.0002380250065
2.883487578e-05
-0.0002384401424
0.0002404334832
-0.0002405867929
-2.755343616e-05
-0.0004809109462
-5.357182857e-05
0.000480909943
2.018691513e-05
0.0002402863637
-0.0002393185934
-2.115468537e-05
2.855756382e-05
-2.822425908e-05
0.0002401001785
-2.767692192e-05
0.0002371752043
2.852672413e-05
-2.709619434e-05
0.0002407519672
0.0002418710743
2.819274929e-05
2.178817227e-05
-0.0002439923346
-8.180473316e-05
0.0009512307754
8.14182181e-05
-0.0004749132756
-0.0004759309847
0.000479599832
-0.0004794150577
-4.046999954e-05
-2.17878175e-05
0.0002402782861
0.0004757465008
-4.977087082e-05
-0.0004733574422
2.339235799e-05
2.398945427e-05
0.0002339406629
-0.0002346884397
-2.492914115e-05
-0.0004739011438
-5.347024698e-05
0.0004738177456
3.716674179e-05
0.000466537684
-0.0004667986376
-3.690578817e-05
2.13421879e-05
-2.099478501e-05
0.00023359326
-5.061002095e-05
0.0004760590679
2.374739472e-05
2.655005919e-05
-2.684312736e-05
0.0002355821806
2.212425893e-05
0.0002333516245
0.0004672447209
3.775347885e-05
-0.000467831458
-0.002013010078
0.002024565355
0.0002343832407
0.0001094735925
-0.001012264935
0.0001059210767
-0.001041888685
-0.0001073645809
-0.0001065509475
-0.001025453438
0.001025373128
0.0001066312577
-5.062111067e-05
5.054882873e-05
-0.000512078275
4.784006306e-05
-0.000526635716
-4.637147467e-05
-4.957083199e-05
0.0002568403208
7.694897919e-06
-0.0002149643868
0.0002702892248
2.958926356e-05
-0.0002740191544
-2.585933394e-05
-0.001002271038
0.001002344002
0.0001076981365
5.079669987e-05
-0.0005007741835
5.092797683e-05
-0.0005044906751
-5.092812518e-05
-8.819561616e-05
0.0002476272995
4.229416198e-05
-0.0002017258453
0.0009679449299
7.514685189e-05
-0.0001102248296
0.001909971405
0.0001153404714
-0.001938918169
-0.00196172355
-0.0001229524627
-8.765249372e-05
0.0002421880004
4.133736924e-05
-0.000195872876
-4.172466724e-05
0.000482248711
4.205505605e-05
-0.0002412216622
-0.0002413574376
2.103361858e-05
0.0002419093669
-0.0002418614421
-2.108154345e-05
-3.885263024e-05
0.000467053688
3.904366314e-05
-8.738145737e-05
0.0009411867481
8.504169128e-05
-0.000938846982
0.000948615408
-8.227404013e-05
-0.0004736638139
-0.0004744822871
5.089209349e-05
-0.0005055608383
-0.0005103564142
-5.059386419e-05
-0.001017594943
-0.0001071927572
0.001018236753
2.107886046e-05
-0.0002523634795
-2.143548572e-05
0.0002527201048
-0.0002710307932
1.411523962e-05
-1.770527135e-05
0.0002746208249
-0.0002610893452
-2.108768419e-05
0.0002611923642
2.098466526e-05
5.392620017e-05
-4.951994259e-05
0.0005210692155
-0.0002577009209
0.0005150614191
4.655015406e-05
0.001025780927
8.262723483e-05
-0.0005120182787
-0.0005118958463
0.0002424551461
2.123022218e-05
-0.0002426517497
2.409793419e-05
0.0002434686007
-0.0002442761997
-2.329033518e-05
7.689340806e-05
0.00097368968
-0.0009739590918
-7.662399625e-05
4.08729291e-05
-4.070603153e-05
0.0004875172112
-4.048630153e-05
0.0004843209008
4.058874771e-05
-4.093221495e-05
0.0004916508429
0.0004877749599
4.084650708e-05
0.0009767747417
7.693735388e-05
-0.0009768186875
2.317570415e-05
0.0002396185624
-0.0002405841142
-2.221015232e-05
-0.0002345888109
-2.587109463e-05
0.0002347451524
2.571475307e-05
-3.848640617e-05
0.0004715297632
3.862869827e-05
-0.0002355309534
-0.0002361411019
0.0005099191506
4.673963781e-05
-0.0005099238267
-4.673496177e-05
-0.001088068444
7.70655114e-05
-2.278057104e-05
-3.659998512e-05
0.000531275527
0.0005391079613
-0.0005210871684
0.0005314612763
3.03921856e-05
0.00052483145
5.20430841e-05
-0.0005256508968
0.001071045658
0.0001257114803
-0.0005370242162
-0.0005165689804
-6.171002112e-05
-8.145392048e-05
5.691047662e-05
-5.775022995e-05
0.000510758904
0.000324176545
-0.000373747377
4.686879906e-05
0.0005199012492
-4.57901769e-05
-0.0002602208782
-0.0002607589932
2.808911224e-05
3.30993912e-05
0.0002629880416
2.636690067e-05
-2.451272036e-05
0.0002684350445
0.00026278678
2.214265304e-05
0.0005186083587
4.531673527e-05
-0.000258841334
-0.0002582149609
2.116264574e-05
0.0002530545265
-0.000253084502
-2.113267029e-05
0.0002535730823
2.124992454e-05
-0.0002536603611
2.065759028e-05
0.0002496326068
-0.0002495159086
-2.077428847e-05
0.0002505190394
2.102820548e-05
-0.0002508896546
0.0002433970653
-2.418224254e-05
2.219302693e-05
-0.0002414078497
0.0002517060457
-0.0003224802757
-1.742138615e-05
4.135104433e-05
0.0004889101912
-0.0004888838172
-4.137741831e-05
2.649052032e-05
-2.260571782e-05
0.0002478212432
-2.386435655e-05
0.0002439498081
2.331161377e-05
2.367385885e-05
-4.150451263e-05
0.0002430781971
-0.0002252475434
0.0002460530813
2.80647385e-05
0.0004897196516
4.139110372e-05
-0.0002447505432
-0.0002450091677
0.0002408438193
2.435704388e-05
-0.0002410895051
-2.411135805e-05
5.138449797e-05
-0.0004821304745
-5.132072033e-05
0.0004820666969
-5.130055416e-05
-0.0004813773327
0.0004814122159
5.126567093e-05
-4.093623674e-05
0.000480092537
4.107533498e-05
-0.0004802316352
0.0004816464422
-4.138150171e-05
-0.0002410202777
-0.0002409693301
-0.0003162702839
-1.81121678e-05
0.000246729958
2.229538397e-05
0.000236694443
-0.0002374281937
-2.156163325e-05
5.078375312e-05
-0.0004755490753
-5.076213949e-05
0.0004755274617
-5.077134881e-05
-0.0004744020342
5.10146615e-05
0.0002371352213
0.0002370235003
5.109733254e-05
-0.0004766835503
-5.092239308e-05
0.0004765086109
-0.0004759031992
0.0004758264424
5.086050993e-05
0.0002357236249
2.315210624e-05
-0.0002365803472
-0.0002647501607
1.906013538e-05
-9.284469763e-05
0.0003385347229
-0.0002512924075
2.141373709e-05
0.0002509575309
-5.009785018e-05
-0.000508532258
5.033320912e-05
0.0002538294613
0.0002544674378
-2.382474332e-05
2.464622731e-05
-0.0002521138915
2.408380659e-05
-0.0002609449657
-2.788900158e-05
-2.669040751e-05
4.348166104e-05
-0.0002538461439
0.0002370548904
-0.0002530365607
-2.31516621e-05
-0.0005085632595
-5.062627458e-05
0.0002548876838
0.0002542040002
-4.877883901e-05
-0.0005236706112
0.0005240427783
4.840667192e-05
-2.34250955e-05
2.369108223e-05
-0.000261355332
8.719381946e-06
-0.0002629895338
-1.676064139e-05
0.0002607025282
2.268313595e-05
-0.0002593018575
0.000260998961
-0.0002607947535
-2.362930301e-05
-0.0005191001735
-4.913750272e-05
0.0005194588372
-2.284814567e-05
0.0002627594225
0.0002600692335
1.969343001e-05
2.21974215e-05
0.0002562764429
-0.0002557183974