/*--------------------------------*- C++ -*----------------------------------*\
| =========                 |                                                 |
| \\      /  F ield         | OpenFOAM: The Open Source CFD Toolbox           |
|  \\    /   O peration     | Version:  v1912                                 |
|   \\  /    A nd           | Website:  www.openfoam.com                      |
|    \\/     M anipulation  |                                                 |
\*---------------------------------------------------------------------------*/
FoamFile
{
    version     2.0;
    format      ascii;
    class       volScalarField;
    location    "0.61";
    object      nut;
}
// * * * * * * * * * * * * * * * * * * * * * * * * * * * * * * * * * * * * * //

dimensions      [0 2 -1 0 0 0 0];


internalField   nonuniform List<scalar> 
12556
(
1.155890923
1.155862099
1.155831573
1.155807705
1.156030962
1.156028575
1.156048472
1.156096467
1.156190276
1.156350333
1.156568906
1.044155799
0.9610321731
0.9702390508
1.07380056
1.156514469
1.156338464
1.156207706
1.156105078
1.156061053
1.15582798
1.155831988
1.155856383
1.155882133
1.155149813
1.155061549
1.154975058
1.154910824
1.155127901
1.155160113
1.155282897
1.155583078
1.156027723
1.156789322
1.1579357
0.9709192519
0.8864466724
0.8829304237
0.9566648445
1.123333426
1.156976434
1.156181673
1.155611514
1.155326037
1.154982986
1.154990679
1.155054566
1.155133815
1.154369931
1.154223845
1.154086219
1.154009646
1.154251638
1.154377055
1.154683898
1.15531086
1.156412031
1.111097711
0.8780571169
0.7351424165
0.6842400294
0.6933476237
0.7573979487
0.8913074957
1.110561845
1.156748526
1.155454646
1.154771939
1.154220062
1.154178319
1.154254862
1.154378242
1.153577434
1.153375923
1.153205466
1.153139272
1.153431672
1.15373849
1.154468135
1.155651311
1.100620364
0.8025222758
0.6179262587
0.5202647771
0.4631225287
0.4768481806
0.5374603688
0.6490388042
0.8269237184
1.114652208
1.155933939
1.154552829
1.153576913
1.153423609
1.153477209
1.153636085
1.152747876
1.152504128
1.152317869
1.152312923
1.152721029
1.153327596
1.154709272
1.156858867
0.8297264786
0.5762806693
0.4149455008
0.3157643956
0.2772202406
0.2939286667
0.3570309259
0.4592468392
0.6129490037
0.8540416553
1.157389398
1.154797817
1.153162151
1.152733386
1.152714839
1.15287593
1.151933996
1.151654019
1.151476877
1.151551817
1.152171839
1.153231339
1.155603118
0.9874778413
0.6508124866
0.4278508861
0.2748344455
0.176905615
0.1392622247
0.163385452
0.2297737681
0.3276163617
0.4651032702
0.6729176196
1.005937504
1.155615051
1.152950757
1.152116382
1.151957368
1.152104976
1.15109431
1.150800465
1.150671733
1.150944211
1.15181247
1.153513789
1.157138679
0.8373790672
0.5432379457
0.338808755
0.1925035403
0.08923009935
0.05124380827
0.08191103521
0.1517170859
0.2444746288
0.3703641631
0.5499083755
0.8553804504
1.157034501
1.152969807
1.151582589
1.151206235
1.15129676
1.150341629
1.150039033
1.149984261
1.150501983
1.151611103
1.154211239
1.054308354
0.753886113
0.4934337884
0.3083433802
0.1731677702
0.07162018623
0.04774683985
0.1171780319
0.2016794089
0.3166711301
0.4800230448
0.75581288
1.125613269
1.153272136
1.151173055
1.150489582
1.150494656
1.149638408
1.149356437
1.149424612
1.150249062
1.151730658
1.155320876
0.9813782994
0.7101007203
0.4860843046
0.3287450593
0.2186649079
0.1519685108
0.06080713698
0.1165834302
0.1907850619
0.2949733395
0.4440217772
0.6999709199
1.03734634
1.153843897
1.150927576
1.149868143
1.149748205
1.149112718
1.14885644
1.149064848
1.150240816
1.15218288
1.156783063
0.9434562309
0.7046807836
0.5070421197
0.3712384043
0.2917811635
0.2805473996
0.08679753184
0.1344208276
0.2022890057
0.3009139547
0.442364907
0.6761143089
0.9798658362
1.154715769
1.150930577
1.149440071
1.149179531
1.148724779
1.148520105
1.148920916
1.150531577
1.15295262
1.158360104
0.929129791
0.7150242939
0.5398159984
0.4206039132
0.3593672629
0.3921363016
0.1183923762
0.1642860062
0.229712896
0.3222499868
0.454580108
0.6777923039
0.9493923461
1.155838361
1.151211375
1.149280798
1.148853179
1.148554673
1.148407702
1.148998325
1.151029548
1.153985231
1.160083431
0.9320000064
0.7400781029
0.5800210704
0.466718841
0.3985477887
0.408570332
0.1554149649
0.2062914154
0.2734361
0.3656040294
0.4919860686
0.7031059721
0.949108806
1.15722237
1.151811149
1.149445723
1.148863351
1.148538737
1.148465027
1.149320583
1.151842665
1.155201916
1.161790665
0.9483303182
0.7833655224
0.6306229813
0.5172483616
0.4339429514
0.3596886837
0.04134393274
0.2053941585
0.2686854142
0.3405906928
0.4299193822
0.5559272249
0.7475285157
0.9666904878
1.158729342
1.1526829
1.149924158
1.149187838
1.148728549
1.148729261
1.14982174
1.152756996
1.156702887
1.163814014
1.00570107
0.8369888361
0.7019101082
0.5899631372
0.503107244
0.2865750028
0.08542764573
0.3043604873
0.3775808358
0.442205047
0.5223977918
0.6384247364
0.810244216
1.004607041
1.160298569
1.153776363
1.150686829
1.149839379
1.148998274
1.149067
1.150384973
1.15374158
1.158150342
1.165523119
1.071625302
0.9257864919
0.8032698254
0.7009403203
0.6232596446
0.1226975921
0.1273083265
0.3755891985
0.5726714789
0.5951470158
0.6512206261
0.75294127
0.9057935776
1.070962309
1.161851704
1.154972885
1.151618323
1.150665878
1.149401686
1.149537609
1.15105743
1.154789497
1.159583451
1.167137636
1.168241634
1.052508503
0.9451536967
0.8732314725
0.8006166355
0.06561109081
0.1488425303
0.4090553149
0.7006828686
0.8098258884
0.8229661731
0.899904132
1.031058954
1.167570899
1.163311697
1.156190388
1.152678863
1.151675599
1.149784391
1.149972145
1.151668143
1.155766757
1.160919017
1.168553641
1.16956739
1.155717597
1.112261075
1.005366529
0.643853249
0.03104474311
0.2038176683
0.4676790206
0.7563046281
0.9781400605
1.048802241
1.080911123
1.173924337
1.174104902
1.16460359
1.157353117
1.153714944
1.152664967
1.150234071
1.150470454
1.152314213
1.156710545
1.162125496
1.169816907
1.17056234
1.155470872
1.100735068
0.9350638709
0.3161103417
0.03557699505
0.2752040379
0.541527093
0.8093335893
0.9993208556
1.105661738
1.156109724
1.176248589
1.175517317
1.165674511
1.158397061
1.154736211
1.153660054
1.150593103
1.150863374
1.152827859
1.157504705
1.163181812
1.170839845
1.171182583
1.154788043
1.092776465
0.8534278342
0.1556116876
0.06293743978
0.3319772102
0.5961502228
0.8376942636
1.01057801
1.111492318
1.159366167
1.177868977
1.176518204
1.166490255
1.159253441
1.155606269
1.154516443
1.150994792
1.151302773
1.153367368
1.158248271
1.164074705
1.171671799
1.171658291
1.153818582
1.083837114
0.7820536851
0.1254267731
0.08783049819
0.3564742428
0.6147567282
0.8526514703
1.019363515
1.115881082
1.161653203
1.178933792
1.177162584
1.167133664
1.160007248
1.15639481
1.155293738
1.151270708
1.151610182
1.153759635
1.158833788
1.164821968
1.17234267
1.171932406
1.152640328
1.073292853
0.7062406249
0.1071148904
0.1091962108
0.3735823458
0.6293068648
0.8639266395
1.026204875
1.119182361
1.163222607
1.179562211
1.177518365
1.167554959
1.160560243
1.156993715
1.155886095
1.151595433
1.151979487
1.154211095
1.159414648
1.165448864
1.172888885
1.172100881
1.151314957
1.06043111
0.6429120942
0.09549031232
0.1291104757
0.3880053049
0.6411748141
0.8720898923
1.031341722
1.121616342
1.164254093
1.179852587
1.177651006
1.167871641
1.161043211
1.157523569
1.156403714
1.151775681
1.152203979
1.154516661
1.159862869
1.165991117
1.173349251
1.172205357
1.149813233
1.043691461
0.5950522405
0.08803199994
0.1460165159
0.4000754552
0.6507629191
0.8778987112
1.03493032
1.123305211
1.16486347
1.179884712
1.177614919
1.168010976
1.161335215
1.157859515
1.156727316
1.152026305
1.152514703
1.154917015
1.160359928
1.166473155
1.17375477
1.172259226
1.147983063
1.022469712
0.5588592533
0.08320001455
0.1596708898
0.4101039922
0.6583974191
0.8819827949
1.037198914
1.124332994
1.165122047
1.179716843
1.17745056
1.16810882
1.161604495
1.158166209
1.157014118
1.152118526
1.152665485
1.155158849
1.160727391
1.166916494
1.174121841
1.17224929
1.145564137
0.9988418689
0.5313173375
0.08030486236
0.1704876847
0.4183642266
0.6643725394
0.8847630908
1.038426187
1.124790973
1.165083305
1.179391991
1.177187529
1.168051541
1.161688655
1.158282076
1.157111322
1.152310107
1.15292987
1.155525275
1.161179917
1.167326077
1.174458039
1.172146401
1.142286563
0.9754996031
0.5103240956
0.07893866912
0.1790465804
0.4251140253
0.6689640118
0.8865233561
1.038858372
1.12477718
1.164795604
1.178944138
1.176847192
1.168003747
1.161799365
1.158417699
1.157222352
1.152330372
1.153016887
1.15571013
1.16148236
1.167713166
1.174767142
1.171913167
1.138015036
0.9539780645
0.4943773684
0.07871764432
0.1858455084
0.4305811271
0.672420045
0.8874684912
1.038680368
1.124381536
1.16430351
1.178400556
1.176446055
1.167803688
1.16172252
1.158362682
1.157146463
1.15247968
1.153246195
1.156050329
1.161905516
1.168074237
1.17505009
1.171507091
1.132820358
0.9347458529
0.4823573584
0.07931053591
0.1913656719
0.4349948159
0.6749507684
0.8877552769
1.038025501
1.123677969
1.163645047
1.177782288
1.175996364
1.16765944
1.16171966
1.158375386
1.15713319
1.152447518
1.153282651
1.156184578
1.162147542
1.168419752
1.175304785
1.170887801
1.126919334
0.9178028894
0.4734497715
0.08054168345
0.1959691542
0.4385383092
0.6767253993
0.8875047325
1.036989401
1.122723704
1.16285059
1.177105109
1.175507375
1.16735389
1.161523036
1.158195446
1.156932923
1.152564861
1.153483741
1.156502592
1.162552187
1.16874254
1.175527463
1.170026378
1.120569713
0.9030038899
0.466998347
0.08230590716
0.1998907021
0.4413543142
0.6778770638
0.8868093933
1.035640912
1.121561699
1.161943419
1.176380555
1.174986534
1.167143878
1.161435555
1.158117376
1.156829079
1.152503424
1.15348805
1.156599145
1.162741085
1.169054952
1.175711878
1.168911957
1.114002031
0.8901402859
0.4625517575
0.08457075426
0.203281199
0.4435679335
0.6785101579
0.8857426739
1.034031994
1.12022464
1.160941491
1.175617042
1.174438142
1.166765693
1.161160209
1.157856538
1.156549821
1.152585844
1.153657039
1.156890397
1.16313162
1.16934498
1.175850525
1.167552122
1.107396132
0.8789636476
0.4596898496
0.08729578183
0.2062515686
0.445286764
0.6787138367
0.8843676054
1.032205345
1.118738812
1.159858337
1.174820744
1.173868631
1.166496402
1.160991489
1.157693728
1.15636174
1.152527645
1.153657619
1.156973557
1.163284189
1.169625795
1.175934903
1.165967888
1.100878896
0.8692287801
0.4580839925
0.09041933061
0.2088814761
0.4466089754
0.6785667762
0.8827401364
1.030197927
1.117126677
1.15870521
1.173996469
1.17327663
1.166095767
1.160693396
1.157407741
1.156060237
1.152554384
1.153774902
1.157219548
1.163647197
1.169882374
1.175960797
1.16419013
1.094533829
0.8607265254
0.4574479431
0.09390559351
0.2112360678
0.4476102815
0.6781338581
0.8809104287
1.028043666
1.115409406
1.157494011
1.17315011
1.172673723
1.165723981
1.160408005
1.157129065
1.155756425
1.152538054
1.153806852
1.157320593
1.163801026
1.170131957
1.17592935
1.162272594
1.088418283
0.853293762
0.4576137531
0.09773589029
0.2133686736
0.4483530258
0.6774743448
0.8789246951
1.025774961
1.113607
1.156234037
1.172297043
1.17205988
1.165412679
1.160172922
1.156901006
1.155516487
1.152552866
1.153933197
1.157607075
1.164233472
1.170377917
1.175862061
1.160337924
1.082591678
0.8468586489
0.4584556177
0.1018750042
0.2153226422
0.4488983911
0.6766514899
0.8768298994
1.023423519
1.111735741
1.154929992
1.171505986
1.171508594
1.164849623
1.159721686
1.15646145
1.15504898
0.1363013429
0.05455954783
0.04093978505
0.2663578479
0.08001709067
0.05768301555
0.3797443781
0.1122913157
0.08381396572
0.4122992302
0.1425812545
0.1170372659
0.3693222471
0.03162073027
0.03927316333
0.181315065
0.1466257814
0.3268983874
0.06035393725
0.03253226664
0.08053065285
0.2481159868
0.1846393491
0.06976760229
0.05171759301
0.04218702901
0.07800768913
0.02733905956
0.01776598725
0.05814375621
0.09884954528
0.09905135091
0.2729542978
0.2609695253
0.157110804
0.02201868807
0.0336003848
0.08333581797
0.1156503476
0.1016612404
0.3445432748
0.3648103693
0.2744103228
0.322696589
0.1941926432
0.2156340655
0.03991101955
0.02774407214
0.114328282
0.1438822753
0.121779144
0.3924115411
0.4049098299
0.3755113972
0.4150355795
0.1308680843
0.1668430598
0.07901351397
0.05603537918
0.4221559857
0.3709761771
0.4031175027
0.3944769791
0.0798354134
0.103701889
0.01488103687
0.1302982927
0.1103882865
0.4817147448
0.3967324218
0.3666294316
0.3433247292
0.03225993616
0.05242994828
0.2981459707
0.08395853776
0.06177547539
0.05830306716
0.129449774
0.02783979688
0.05286449178
0.03451517628
0.02901332397
0.04563249148
0.03044666283
0.04889482852
0.2184541706
0.2383719565
0.2203100171
0.1873481784
0.1770813749
0.1436223897
0.1894594216
0.02744527876
0.02188630887
0.06926477374
0.03335029596
0.03815269491
0.04766705817
0.03353503888
0.06765045731
0.1692571763
0.1909155524
0.337415188
0.1504252887
0.1288877405
0.175634572
0.1522023059
0.05307295383
0.04095016218
0.1000221249
0.05837279436
0.07673610659
0.03857821658
0.05590942711
0.09577853702
0.1050231063
0.1293608321
0.41701647
0.1047617969
0.08083209594
0.1276255786
0.1060114265
0.1067873566
0.08271022624
0.05340659688
0.07813063269
0.3835089534
0.01410469273
0.05540594177
0.03372682055
0.07982555047
0.05694895115
0.01402793277
0.142065838
0.1326933001
0.01575772574
0.004852542931
0.03198505984
0.3392266922
0.04885571431
0.01998129151
0.0119927324
0.03337368266
0.02029980453
0.04683242828
0.2029745065
0.1430397433
0.08360682687
0.0882454333
0.057273689
0.03277160505
0.01108015239
0.008074736485
0.2034715903
0.2409908054
0.1403247512
0.01198848974
0.1485120064
0.1810849004
0.1522989375
0.01407857251
0.04317179163
0.03738909878
0.0589991173
0.16069457
0.1466523272
0.12799117
0.06364679726
0.09804731919
0.04129314733
0.01190742943
0.02139344068
0.02030322755
0.02835824548
0.04381183421
0.03630624728
0.02697471887
0.1312358527
0.1037834148
0.1230650772
0.07976207343
0.1007079322
0.1281461934
0.02068741689
0.01588590494
0.03751911077
0.02041835048
0.0344292909
0.02712716539
0.0178628403
0.02723075501
0.01965758082
0.01158473408
0.02100226636
0.01488269911
0.009502803002
0.01375228722
0.02004043111
0.02862812599
0.02913894475
0.03379498236
0.03294430672
0.01442852156
0.01186906526
0.06856592774
0.01264497462
0.02139100545
0.01163823524
0.01182938441
0.06517491908
0.09352258505
0.2511408937
0.2401472063
0.05557377233
0.04627193529
0.01396409598
0.0475942301
0.1910082495
0.1797972023
0.2064389287
0.1955554578
0.04792141816
0.04880380586
0.04165989028
0.08355783964
0.06372615688
0.05211132276
0.04013877748
0.06330397322
0.09375286129
0.03376518179
0.02206487627
0.0137287406
0.04837142341
0.0244712196
0.03726679906
0.0238925964
0.0523026961
0.04123621335
0.0406882461
0.1862078213
0.03189006636
0.1857453863
0.1958440614
0.03532569386
0.03917847922
0.03227060542
0.03486474781
0.1979958355
0.02622800448
0.0260087745
0.03608493535
0.06822205621
0.06350770062
0.0747225295
0.06995274561
0.03632056109
0.04060281393
0.05524574668
0.04999745946
0.061799881
0.05674112571
0.03981754331
0.1399878595
0.1385928254
0.165124694
0.1636715649
0.04980137176
0.01155920544
0.04871251269
0.09605617901
0.09434033916
0.1163801383
0.1149223263
0.02267176595
0.03203799697
0.09339257936
0.0252981188
0.01528414575
0.0694599792
0.2216124935
0.2103835809
0.2363839738
0.225304127
0.07073338516
0.01874546549
0.05101164907
0.05000912265
0.07310086452
0.07228190984
0.009614793545
0.02602435326
0.06921016605
0.05897757556
0.175431745
0.1676753032
0.0258572195
0.01285341547
0.01766894782
0.01603095678
0.0319753545
0.01389308656
0.0160855248
0.01478754239
0.03203158911
0.03995741298
0.01602247374
0.01608394977
0.003952178058
0.01494386968
0.01312021124
0.5859727593
0.3933326887
0.3891527635
0.2673091796
0.009609901342
0.005458701432
0.1223595751
0.3077761564
0.2782418298
0.005729230537
0.01266842119
0.01286315803
0.08338235421
0.07304966041
0.02792191624
0.1787039888
0.1673687301
0.06158800478
0.008603953181
0.0144818461
0.01147265788
0.008121885867
0.01153858849
0.00825632102
0.02392692727
0.009906792352
0.009254760088
0.03136228657
0.03691822178
0.01103606685
0.01481754164
0.009006469449
0.009270160162
0.02909761899
0.1436826309
0.3053146676
0.2955399803
0.3180110009
0.308526178
0.1466504301
0.2652015906
0.2545795071
0.09474002585
0.03541801794
0.1000466621
0.09510196481
0.01330423054
0.02042173931
0.06633351295
0.0395936089
0.01140128249
0.01003278453
0.03958523754
0.04128860737
0.03640811159
0.04829211671
0.04298255751
0.04175549577
0.02682495796
0.008725723843
0.008954699616
0.02291031855
0.178627546
0.3301582572
0.3210859268
0.06080695507
0.06262258604
0.1330543045
0.01573475856
0.01705468213
0.04397280445
0.06559597332
0.1008225764
0.09355989497
0.04382163737
0.08216553691
0.07663001027
0.09090640418
0.08430605376
0.04481379504
0.1174597503
0.278908075
0.2686255029
0.2922546686
0.2822942864
0.1191216303
0.1011269191
0.03830963914
0.03902789353
0.02227801984
0.02313604826
0.08498234756
0.1230347439
0.05680817602
0.06041607018
0.03932178155
0.03998863154
0.1097479961
0.09703113272
0.0336395028
0.04606232673
0.01023057518
0.01510163143
0.05312336154
0.04105678584
0.07692300587
0.0216627521
0.02213399097
0.02122043244
0.06608666287
0.01429136798
0.00442863035
0.1308117905
0.1158694168
0.09343809282
0.08949729071
0.03171530677
0.0161094017
0.02119722423
0.05523494325
0.01976846704
0.01272136143
0.01883581187
0.01968214652
0.00281412926
0.03293631273
0.02138901818
0.01174455016
0.006556741983
0.01148465397
0.01184362483
0.01136246091
0.02070764172
0.0161705581
0.009398739945
0.03862991121
0.04011249519
0.01408963932
0.01069813002
0.006863935839
0.0112263332
0.01529961869
0.01249938894
0.01252110954
0.03099828521
0.01307053472
0.01264997179
0.01489489449
0.01537524726
0.02525913796
0.01490564136
0.01438845178
0.01571681579
0.01497656182
0.01413584778
0.01590469747
0.01561819656
0.01816009126
0.01609954526
0.01465100328
0.01083404453
0.01973043935
0.01712383384
0.02080667403
0.01964112465
0.01655493257
0.01468668772
0.01235510871
0.008588260058
0.007186386259
0.02545843339
0.03081101969
0.009073273509
0.008576145787
0.0104930062
0.01086197214
0.03593926157
0.01002923793
0.009660019413
0.01020766227
0.01008795135
0.009548251965
0.0300123713
0.009211119765
0.01040285616
0.01189766589
0.01155234443
0.01575677789
0.03795640498
0.03398982505
0.01126753505
0.02767688688
0.02400740597
0.03262490719
0.02913754254
0.01117316825
0.01368275316
0.02757471427
0.02276412844
0.1080157797
0.1017707747
0.03944956357
0.05006296196
0.1147943306
0.1096993111
0.04444363067
0.04368124714
0.06530479855
0.07048389014
0.08439994098
0.05289535725
0.06630644565
0.06601991226
0.05890447488
0.1244255608
0.1183910594
0.09089396867
0.1143157588
0.05884027929
0.03644164047
0.03905133212
0.04865307694
0.03151927531
0.03518690726
0.01615548829
0.01522558889
0.04161401391
0.01103710441
0.01110282566
0.008582541506
0.01601654474
0.01891962381
0.01145432739
0.01616064252
0.03569004969
0.02230081384
0.01689899037
0.03014540118
0.09211139406
0.08155295198
0.09758945331
0.09425813602
0.03123060359
0.07406184827
0.07211640033
0.07852636507
0.07475755025
0.03672066338
0.11079467
0.1073153411
0.1163043536
0.1120075325
0.03727164931
0.0333190485
0.1018214712
0.09871097802
0.1061820746
0.1028884703
0.03363551304
0.008477297694
0.00862381219
0.0266457851
0.02396827482
0.007299166221
0.008434796434
0.04441427729
0.04368617093
0.04649920016
0.04466444297
0.04232237378
0.04131137888
0.04344128942
0.04258875184
0.06913478446
0.06737339695
0.07151068091
0.06974061596
0.06232082857
0.04912681704
0.06664292546
0.06471841266
0.01810655795
0.01548152377
0.02293206933
0.01950624002
0.007487212106
0.01083823533
0.01041094807
0.01452928602
0.01103410992
0.03736816241
0.03796261298
0.09988205697
0.02232654019
0.02210204875
0.02299315093
0.02251149833
0.0214133553
0.08721632056
0.02385156266
0.03518565535
0.04209477
0.05499052874
0.1214222425
0.03855581921
0.02518556045
0.04117467799
0.03824564319
0.02377648184
0.02322706331
0.02473205371
0.02400011042
0.1110081667
0.04021015314
0.04107715475
0.008661312718
0.02111516875
0.01289223837
0.0127600205
0.01224684461
0.01968819375
0.01049241177
0.01590902919
0.01426615405
0.0146879349
0.05249150532
0.04604820576
0.02106300217
0.02154999832
0.07602351345
0.06822778007
0.02016284974
0.02100086478
0.01410420548
0.0306294224
0.08703799522
0.07896791149
0.01485808246
0.01394388534
0.01900894395
0.01316858533
0.01538550976
0.0166123832
0.03283127189
0.01042358392
0.01589549169
0.01307223296
0.0160630922
0.02224322208
0.04882606377
0.1032138363
0.1321984435
0.01367530064
0.01310792638
0.1874003837
0.2349814987
0.1924606716
0.009204466201
0.02716742343
0.01562936466
0.01582548527
0.1263650359
0.1407100149
0.158951363
0.004548357712
0.006792885718
0.005023424953
0.004886286592
0.005404698639
0.004265179207
0.05178833
0.03227311715
0.0205642959
0.02338084083
0.0217955044
0.02431998974
0.203766859
0.3178168176
0.3409745329
0.2970460964
0.3106786424
0.2067954472
0.0332806328
0.02919466996
0.01356280394
0.0492213654
0.05895820186
0.1188941452
0.1215395303
0.116412633
0.05054267627
0.02450107712
0.02312367024
0.03361627508
0.341926045
0.3330481775
0.1815996458
0.1457461865
0.06783453315
0.07133972978
0.07419115878
0.08413621605
0.1574908344
0.06109732257
0.1292189193
0.1233277829
0.01435555555
0.01431050921
0.01424835268
0.02100117168
0.02130325215
0.03459925557
0.01406134144
0.01426314865
0.01422159912
0.01934188391
0.03934875683
0.03436083557
0.01992301322
0.03317567956
0.02054078193
0.02072683365
0.02034660817
0.01169818899
0.01208579491
0.01327482624
0.01337820068
0.0140255428
0.01760661693
0.02201559388
0.0429760428
0.04033885419
0.03485670403
0.03153866677
0.02304869932
0.0323465284
0.01317187071
0.01613038576
0.01439320066
0.01062429368
0.01058066636
0.01481782175
0.01419931199
0.02104514597
0.01343675257
0.009508255668
0.01350566863
0.01587069284
0.01539747539
0.01036325374
0.01291121684
0.01351455038
0.01184312102
0.0119111196
0.0079920587
0.01176700058
0.01153459995
0.04356635018
0.03922323869
0.01705172077
0.01166313754
0.01166129606
0.01117054436
0.01387238309
0.01351796858
0.01324035847
0.04698751573
0.03681531267
0.04227067935
0.06426036112
0.08706389835
0.08716003981
0.04162149368
0.06548136983
0.06222776666
0.08628806169
0.08492482422
0.06222194366
0.02930943361
0.03563011652
0.03312276521
0.02559762777
0.02613648925
0.021538358
0.0456293462
0.04448790865
0.04550786547
0.02441907113
0.03472806696
0.03312897069
0.05230034368
0.05194613736
0.03163757862
0.02954239103
0.02914991014
0.03209378041
0.03140245661
0.03581705971
0.05768527984
0.05714749175
0.06080796507
0.06014931627
0.03846658201
0.03258622717
0.053398054
0.0529261319
0.05659285903
0.0560416512
0.03443907263
0.06544336138
0.0671916344
0.144268568
0.1343830251
0.06317022514
0.06488532829
0.09026927599
0.09302514407
0.1696735812
0.02760729778
0.02745917233
0.02892299307
0.02870939758
0.0211799518
0.02720428089
0.02709310544
0.1590706822
0.08615639279
0.08923846438
0.0110996481
0.0110304109
0.011103123
0.01089393038
0.01149477338
0.01081392307
0.007172924319
0.0449966582
0.0177100242
0.02142566664
0.1367867669
0.1311835292
0.06432055529
0.07357340909
0.1434193046
0.1384487998
0.0338708357
0.03392736636
0.05135999276
0.04969648216
0.03346839697
0.03339773391
0.01378791834
0.02446110791
0.03922494442
0.03829698399
0.009698299404
0.01556110136
0.01698882209
0.01576302505
0.01594441221
0.01960154944
0.01984675989
0.0324357661
0.01419002631
0.01023217327
0.01388721809
0.01515654878
0.03037973594
0.01908822493
0.01969320087
0.01572706413
0.02307914882
0.01963459663
0.0139154759
0.01385408151
0.01322816134
0.0131326051
0.01357681823
0.006130926702
0.004042928417
0.007072728464
0.01265126783
0.01356181456
0.01348146674
0.01290048169
0.01346709872
0.01268997807
0.009519375638
0.006221101548
0.005198758713
0.008704615179
0.008939316676
0.008509517521
0.008571379459
0.009603517093
0.01496154665
0.01518043339
0.014612581
0.01479779872
0.009486212059
0.009150365859
0.01131726925
0.01129737398
0.01173075879
0.01142193989
0.009198701221
0.01075965688
0.01698112469
0.01894536192
0.01543230899
0.01595383218
0.01042872969
0.00877363484
0.01126177447
0.01126371303
0.01125623642
0.01127030129
0.008829662905
0.008400655749
0.008475707999
0.008333386504
0.008556203855
0.03847333551
0.05761588783
0.05716596415
0.02251498962
0.03745407432
0.03720096897
0.0387821214
0.03782379
0.0227342466
0.01436269357
0.01407520453
0.01441341546
0.01440395483
0.0211213061
0.02092877455
0.02155948204
0.02132872204
0.01655017741
0.03678194234
0.02192245798
0.02288927263
0.02183456648
0.03669639486
0.03647743245
0.03703682481
0.03685360992
0.02196580121
0.02256098207
0.02189926851
0.0331102508
0.02361291068
0.01684972159
0.01004888201
0.01407750416
0.01412994615
0.009939327931
0.04567481993
0.03211355739
0.002964870967
0.03171204594
0.04837776443
0.04807194072
0.01972165933
0.01263121475
0.009339180654
0.003191389237
0.0150681166
0.01573669878
0.02029180901
0.02046347374
0.0331151996
0.02076344106
0.009365710909
0.009583668611
0.01330928991
0.005449063951
0.009318896484
0.00684240575
0.008017986558
0.007958431399
0.01201312686
0.007752737471
0.01351930643
0.01348494904
0.01373743512
0.04007468134
0.03144860988
0.008036542679
0.009858557125
0.01104039609
0.01792780612
0.02000836492
0.01191224178
0.01471073628
0.01395651936
0.01340855521
0.008876000758
0.01321896134
0.01457840893
0.01041424386
0.01429192222
0.01438839089
0.01554463497
0.0148816666
0.01499892596
0.0144802119
0.01424124343
0.01528322594
0.01555262277
0.01518433166
0.01428931618
0.01521569197
0.01597124213
0.01606822375
0.01380843276
0.01506648817
0.01329266648
0.02132279509
0.01719733208
0.01322576979
0.01226959907
0.01327750381
0.008236688477
0.0129918623
0.01384962935
0.009449725108
0.01304020943
0.008525086337
0.008893667451
0.01427086207
0.0144394898
0.01389064695
0.01413474431
0.008792273716
0.01064424071
0.01707638415
0.01678316088
0.009946792757
0.009770026622
0.009974227692
0.006839899846
0.01015867795
0.01004121615
0.009358263105
0.00664446468
0.009507330959
0.01413847241
0.01260566999
0.01633648271
0.01549635753
0.01000301889
0.01233078958
0.01217326503
0.01252591672
0.008229882828
0.01260397948
0.01197126151
0.01164520595
0.01224843321
0.0123819915
0.01376482917
0.01259532563
0.01131014495
0.04545882647
0.04281646719
0.07903537394
0.07156552941
0.0434611672
0.06197872532
0.0842549125
0.0813794288
0.03357444375
0.03103824439
0.0286386912
0.0218318697
0.02840258741
0.04012049584
0.04108501396
0.0364143838
0.01605445721
0.02331761491
0.02368039453
0.02114502173
0.02189330458
0.01516605771
0.01043702064
0.01121964479
0.01704935697
0.01200854407
0.01160603992
0.01264904226
0.01218137258
0.01730692382
0.01177250318
0.01243678126
0.009648117286
0.01251390928
0.04820896208
0.04837587361
0.03148280112
0.03122077524
0.05108114938
0.05106995949
0.03020169278
0.02982775954
0.03095166292
0.03054230728
0.05866241499
0.05815348112
0.03618980304
0.03785317057
0.05964884539
0.05916248519
0.05446950026
0.05397459533
0.03298826002
0.03399602866
0.0554821375
0.05496923109
0.008536939527
0.01129336211
0.01131496514
0.01127413566
0.01129719372
0.008575385971
0.008320841488
0.01058636592
0.009424845694
0.01127095447
0.01109679844
0.008388560231
0.04416094008
0.02635530184
0.02662311258
0.02593161117
0.02613586333
0.04392838439
0.04541987731
0.02756241607
0.02805751667
0.02688798337
0.02719785198
0.04496526015
0.04195928268
0.02472020045
0.02495178852
0.02435143429
0.0245779528
0.04173003573
0.04317686436
0.02553760348
0.02572589377
0.02512033694
0.02534690491
0.04291185978
0.02803117219
0.02784729391
0.06855690948
0.04688203274
0.0471811362
0.04623541317
0.04649987282
0.06791812896
0.02846087265
0.0282588469
0.02595557948
0.02720078954
0.06036077382
0.04267482219
0.04238976223
0.02896580972
0.03037645216
0.05423169786
0.0661934606
0.0455847835
0.04577521183
0.04491673582
0.04487175864
0.06507882557
0.0267797169
0.02681854564
0.01118546581
0.01118542569
0.01109241071
0.0108867051
0.01092270077
0.01065652489
0.01063725128
0.01071812937
0.01035129357
0.01045801613
0.01058490689
0.01312627451
0.01051199641
0.01062382808
0.01077273526
0.01075985588
0.01170599217
0.03728677253
0.05516311396
0.05487551663
0.05651201201
0.05616541624
0.03786635571
0.02227808286
0.02203444834
0.02286440565
0.02259130523
0.02248485888
0.01754065985
0.0251136903
0.04564549525
0.04109351854
0.05272881353
0.05099107068
0.03550302509
0.02731115426
0.01902787751
0.02443285916
0.02598820331
0.04052024771
0.02399314007
0.02428243555
0.02328224908
0.02404382143
0.04058422168
0.02360392338
0.02338071232
0.02445215055
0.02420199224
0.01307555887
0.01214205924
0.01221012961
0.01266234948
0.01221734446
0.01313819933
0.01270816104
0.01275022331
0.01219791907
0.01252483978
0.008468279361
0.01445725529
0.01459083688
0.01461280011
0.01483039588
0.01477435359
0.01433698204
0.02048293742
0.02044182902
0.02073038488
0.02066631562
0.03169391168
0.03165836782
0.04767759602
0.01967376819
0.02074438559
0.02020762358
0.02028308508
0.02127576745
0.03588414844
0.03552278478
0.03631185729
0.03603463035
0.02136021637
0.02072777556
0.03483644124
0.03287518979
0.03540201093
0.03480528415
0.02071317769
0.01418202373
0.04648065805
0.04596609304
0.03038765338
0.01521788822
0.01221803005
0.01199814752
0.009005233658
0.01232541333
0.01424780682
0.01955983711
0.01409505123
0.0159007346
0.01563580575
0.03254577884
0.01995936084
0.02016355326
0.01395473995
0.01339897005
0.0135491907
0.01483634701
0.01433768012
0.009610121381
0.009958111766
0.01583797406
0.01366638561
0.01457653146
0.01622752343
0.01999957524
0.03039632879
1.155330597
1.155958774
1.155895525
1.156229579
1.157299259
1.156572253
1.157736556
0.9928875312
1.157589963
0.9495226939
0.820501395
0.9900914748
0.7962829056
0.7627046102
0.8903652397
0.7450162633
0.7419294669
0.8783596913
0.7459251555
0.7925205736
0.9412613642
0.8115876001
0.9167316532
1.098637519
0.9524677868
1.124665717
1.157220941
1.158046274
1.156824406
1.156348503
1.155492163
1.156827744
1.156074975
1.157406602
0.939105875
1.157708158