/*--------------------------------*- C++ -*----------------------------------*\
| =========                 |                                                 |
| \\      /  F ield         | OpenFOAM: The Open Source CFD Toolbox           |
|  \\    /   O peration     | Version:  v1912                                 |
|   \\  /    A nd           | Website:  www.openfoam.com                      |
|    \\/     M anipulation  |                                                 |
\*---------------------------------------------------------------------------*/
FoamFile
{
    version     2.0;
    format      ascii;
    class       pointVectorField;
    location    "0.61";
    object      pointDisplacement;
}
// * * * * * * * * * * * * * * * * * * * * * * * * * * * * * * * * * * * * * //

dimensions      [0 1 0 0 0 0 0];


internalField   nonuniform List<vector> 
26316
(
(0 0 0)
(0 0 0)
(0 0 0)
(0 0 0)
(0 0 0)
(0 0 0)
(0 0 0)
(0 0 0)
(0 0 0)
(0 0 0)
(0 0 0)
(0 0 0)
(0 0 0)
(0 0 0)
(0 0 0)
(0 0 0)
(0 0 0)
(0 0 0)
(0 0 0)
(0 0 0)
(0 0 0)
(0 0 0)
(0 0 0)
(0 0 0)
(0 0 0)
(0 0 0)
(0 0 0)
(0 0 0)
(0 0 0)
(0 0 0)
(0 0 0)
(0 0 0)
(0 0 0)
(0 0 0)
(0 0 0)
(0 0 0)
(0 0 0)
(0 0 0)
(0 0 0)
(0 0 0)
(0 0 0)
(0 0 0)
(0 0 0)
(0 0 0)
(0 0 0)
(0 0 0)
(0 0 0)
(0 0 0)
(0 0 0)
(0 0 0)
(0 0 0)
(0 0 0)
(0 0 0)
(0 0 0)
(0 0 0)
(0 0 0)
(0 0 0)
(0 0 0)
(0 0 0)
(0 0 0)
(0 0 0)
(0 0 0)
(0 0 0)
(0 0 0)
(0 0 0)
(0 0 0)
(0 0 0)
(0 0 0)
(0 0 0)
(0 0 0)
(0 0 0)
(0 0 0)
(0 0 0)
(0 0 0)
(0 0 0)
(0 0 0)
(0 0 0)
(0 0 0)
(0 0 0)
(0 0 0)
(0 0 0)
(0 0 0)
(0 0 0)
(0 0 0)
(0 0 0)
(0 0 0)
(0 0 0)
(0 0 0)
(0 0 0)
(0 0 0)
(0 0 0)
(0 0 0)
(0 0 0)
(0 0 0)
(0 0 0)
(0 0 0)
(0 0 0)
(0 0 0)
(0 0 0)
(0 0 0)
(0 0 0)
(0 0 0)
(0 0 0)
(0 0 0)
(0 0 0)
(0 0 0)
(0 0 0)
(0 0 0)
(0 0 0)
(0 0 0)
(0 0 0)
(0 0 0)
(0 0 0)
(0 0 0)
(0 0 0)
(0 0 0)
(0 0 0)
(0 0 0)
(0 0 0)
(-1.076178317e-06 9.899991842e-06 2.775557562e-17)
(0 0 0)
(0 0 0)
(-5.919836825e-07 0.0001108944095 3.469446952e-16)
(2.74294132e-06 9.426838723e-05 2.775557562e-16)
(0 0 0)
(0 0 0)
(0 0 0)
(0 0 0)
(0 0 0)
(0 0 0)
(0 0 0)
(0 0 0)
(0 0 0)
(0 0 0)
(0 0 0)
(0 0 0)
(0 0 0)
(0 0 0)
(0 0 0)
(0 0 0)
(0 0 0)
(0 0 0)
(0 0 0)
(0 0 0)
(0 0 0)
(0 0 0)
(0 0 0)
(0 0 0)
(0 0 0)
(0 0 0)
(0 0 0)
(0 0 0)
(0 0 0)
(0 0 0)
(0 0 0)
(0 0 0)
(0 0 0)
(0 0 0)
(0 0 0)
(0 0 0)
(0 0 0)
(0 0 0)
(0 0 0)
(0 0 0)
(0 0 0)
(0 0 0)
(0 0 0)
(0 0 0)
(0 0 0)
(0 0 0)
(0 0 0)
(0 0 0)
(0 0 0)
(0 0 0)
(0 0 0)
(0 0 0)
(0 0 0)
(0 0 0)
(0 0 0)
(0 0 0)
(0 0 0)
(0 0 0)
(0 0 0)
(0 0 0)
(0 0 0)
(-6.704212844e-05 0.0001395034181 4.996003611e-16)
(-0.0003856734622 0.0008751876084 3.080868893e-15)
(-5.04550426e-06 1.186144386e-05 4.163336342e-17)
(-0.0007313468305 0.002359281057 8.021361353e-15)
(-0.001811600604 0.005661495181 1.995625887e-14)
(-0.002144821988 0.007669741745 2.703393065e-14)
(-0.001003710443 0.0036992753 1.257327575e-14)
(-0.001211722847 0.007795979252 2.650657471e-14)
(-0.002106551075 0.01325119377 4.669875597e-14)
(-0.001741519971 0.01464050625 5.159761507e-14)
(-0.001037329367 0.008871615372 3.015643291e-14)
(-2.129593029e-05 0.01037212316 3.527733661e-14)
(4.531678027e-06 0.01653919507 5.832834216e-14)
(0.0006482927738 0.01632205922 5.75928194e-14)
(0.0003672483942 0.01020090925 3.469446952e-14)
(0.001168767002 0.007817107209 2.660371923e-14)
(0.002085734782 0.01326687124 4.683753385e-14)
(0.002273278659 0.01159085293 4.092559625e-14)
(0.001224754629 0.006543616579 2.225997164e-14)
(0.0007162832358 0.002387952168 8.132383655e-15)
(0.001781613329 0.005702029902 2.012279232e-14)
(0.001338163084 0.003810220399 1.344757639e-14)
(0.0004180653046 0.001238290587 4.218847494e-15)
(0 0 0)
(7.033966679e-05 0.0001502274182 5.273559367e-16)
(0 0 0)
(0 0 0)
(0 0 0)
(0 0 0)
(0 0 0)
(0 0 0)
(0 0 0)
(0 0 0)
(0 0 0)
(0 0 0)
(0 0 0)
(0 0 0)
(0 0 0)
(0 0 0)
(0 0 0)
(0 0 0)
(0 0 0)
(0 0 0)
(0 0 0)
(0 0 0)
(0 0 0)
(0 0 0)
(0 0 0)
(0 0 0)
(0 0 0)
(0 0 0)
(0 0 0)
(0 0 0)
(0 0 0)
(0 0 0)
(0 0 0)
(0 0 0)
(0 0 0)
(0 0 0)
(0 0 0)
(0 0 0)
(0 0 0)
(0 0 0)
(0 0 0)
(0 0 0)
(0 0 0)
(0 0 0)
(0 0 0)
(0 0 0)
(0 0 0)
(0 0 0)
(-0.0001872342958 0.0002497928067 1.026956298e-15)
(-0.001022286087 0.001455691445 6.022959909e-15)
(-0.000242266825 0.0003595442972 1.429412144e-15)
(-0.003445500891 0.006417985349 2.542410726e-14)
(-0.005500572469 0.009858504431 4.070355164e-14)
(-0.006998424951 0.01373561187 5.664912983e-14)
(-0.004726649394 0.009632046512 3.81361609e-14)
(-0.007269356819 0.02063093291 8.154588116e-14)
(-0.009573057084 0.02625456012 1.08107967e-13)
(-0.00956482328 0.03020479912 1.243727343e-13)
(-0.007427257991 0.02423696607 9.578449145e-14)
(-0.005628624143 0.03314389572 1.310618281e-13)
(-0.006916267461 0.03971945671 1.637301406e-13)
(-0.0053177062 0.04185148875 1.726396803e-13)
(-0.004386994717 0.03518423444 1.392219673e-13)
(0.0003603129305 0.03784431574 1.500743974e-13)
(0.0005754906548 0.0445809694 1.844496778e-13)
(0.002617089863 0.0442271286 1.831729213e-13)
(0.002020598349 0.03751610923 1.488947854e-13)
(0.006132466347 0.03302350369 1.313393838e-13)
(0.007773311064 0.03950020382 1.640354519e-13)
(0.008913736291 0.03679650812 1.529054661e-13)
(0.006985323985 0.03047083847 1.212502321e-13)
(0.007387562211 0.02059016388 8.194833701e-14)
(0.009854907406 0.02611838705 1.086075674e-13)
(0.009288709613 0.02201418127 9.152401059e-14)
(0.006785062049 0.01689214967 6.722400414e-14)
(0.003434652554 0.006479099939 2.575717417e-14)
(0.005501836612 0.009909073513 4.113376306e-14)
(0.003881972923 0.006472905455 2.683964162e-14)
(0.002152771878 0.003756208783 1.493249968e-14)
(0 0 0)
(0.0001859118299 0.0002524704627 1.040834086e-15)
(0 0 0)
(0 0 0)
(0 0 0)
(0 0 0)
(0 0 0)
(0 0 0)
(0 0 0)
(0 0 0)
(0 0 0)
(0 0 0)
(0 0 0)
(0 0 0)
(0 0 0)
(0 0 0)
(0 0 0)
(0 0 0)
(0 0 0)
(0 0 0)
(0 0 0)
(0 0 0)
(0 0 0)
(0 0 0)
(0 0 0)
(0 0 0)
(0 0 0)
(0 0 0)
(0 0 0)
(0 0 0)
(0 0 0)
(0 0 0)
(0 0 0)
(0 0 0)
(0 0 0)
(0 0 0)
(0 0 0)
(0 0 0)
(0 0 0)
(0 0 0)
(0 0 0)
(-8.056066673e-05 7.441586656e-05 3.747002708e-16)
(0 0 0)
(-0.003423793952 0.003987971448 1.894318036e-14)
(-0.005085565369 0.005627767751 2.81163981e-14)
(-0.0079447155 0.009423748149 4.699018952e-14)
(-0.005838569571 0.007278298134 3.452793607e-14)
(-0.01323852672 0.02092505914 9.87959714e-14)
(-0.01603935402 0.0241991041 1.199873534e-13)
(-0.01785945711 0.02958832784 1.465216837e-13)
(-0.01505369048 0.02611550868 1.23151489e-13)
(-0.01683084897 0.04108263011 1.934424843e-13)
(-0.01913521382 0.04464804897 2.208233596e-13)
(-0.01812081141 0.04882962788 2.415984079e-13)
(-0.01610165652 0.045378787 2.1373181e-13)
(-0.0105563553 0.05493730249 2.594868764e-13)
(-0.01160215039 0.05781250172 2.87048163e-13)
(-0.008600067165 0.05958182032 2.963462808e-13)
(-0.007876439058 0.05690601363 2.691735723e-13)
(0.001299276797 0.05921920127 2.815803146e-13)
(0.00148401689 0.06155493634 3.080175004e-13)
(0.004904830253 0.06118384406 3.067962551e-13)
(0.004423094076 0.05883691754 2.802758026e-13)
(0.01271079363 0.05427946922 2.598754545e-13)
(0.01413135615 0.05698526008 2.874367411e-13)
(0.01654978087 0.05449478196 2.753214323e-13)
(0.01480443832 0.05161430385 2.474409566e-13)
(0.01790734524 0.04040524423 1.941363736e-13)
(0.02050970945 0.04369485411 2.214062267e-13)
(0.02049363972 0.03912602162 1.982858322e-13)
(0.01769984012 0.035783994 1.719319132e-13)
(0.01336683255 0.02060533867 9.880984919e-14)
(0.01668204007 0.02419857091 1.225824997e-13)
(0.01434096814 0.01927132753 9.758860386e-14)
(0.01135397884 0.01617861978 7.757683385e-14)
(0.003915968534 0.004577232517 2.188527137e-14)
(0.005856007349 0.006484071935 3.268219029e-14)
(0.003301016979 0.003451441667 1.737499034e-14)
(0.001885619717 0.002079557884 9.93649607e-15)
(0 0 0)
(0 0 0)
(0 0 0)
(0 0 0)
(0 0 0)
(0 0 0)
(0 0 0)
(0 0 0)
(0 0 0)
(0 0 0)
(0 0 0)
(0 0 0)
(0 0 0)
(0 0 0)
(0 0 0)
(0 0 0)
(0 0 0)
(0 0 0)
(0 0 0)
(0 0 0)
(0 0 0)
(0 0 0)
(0 0 0)
(0 0 0)
(0 0 0)
(0 0 0)
(0 0 0)
(0 0 0)
(0 0 0)
(0 0 0)
(0 0 0)
(0 0 0)
(0 0 0)
(0 0 0)
(0 0 0)
(-0.0003723244108 0.0002749527302 1.651456749e-15)
(-0.0008466471808 0.0005861572372 3.747002708e-15)
(-0.003005724959 0.002194484812 1.396105453e-14)
(-0.002021097565 0.001572931318 9.381384558e-15)
(-0.01183808424 0.0110528964 6.54476473e-14)
(-0.01399912271 0.01228274646 7.741030039e-14)
(-0.01801023383 0.0169451599 1.064703881e-13)
(-0.01562115631 0.01563425588 9.23150445e-14)
(-0.02445099564 0.03116377067 1.82534543e-13)
(-0.0269921937 0.03229274968 2.014083345e-13)
(-0.02834173146 0.03721547343 2.317313008e-13)
(-0.02591414469 0.03630002246 2.121913756e-13)
(-0.02518995209 0.0498725878 2.908506769e-13)
(-0.02676422038 0.04955120762 3.076705557e-13)
(-0.02452776533 0.05240775066 3.256700465e-13)
(-0.02316137116 0.05289475117 3.087946565e-13)
(-0.0139789865 0.05875959382 3.449740493e-13)
(-0.01451063671 0.05669354148 3.545219673e-13)
(-0.01058395744 0.05707874651 3.578942698e-13)
(-0.01023799508 0.05955997513 3.5055292e-13)
(0.001592074513 0.06000419467 3.561179129e-13)
(0.001464260563 0.05686871185 3.597955267e-13)
(0.005494059128 0.0566824173 3.597400156e-13)
(0.005567628434 0.05974816049 3.556321904e-13)
(0.01706791225 0.05757248515 3.456956943e-13)
(0.01747415475 0.05538344447 3.550076899e-13)
(0.02108830727 0.05429749987 3.491512635e-13)
(0.02043214889 0.0560610183 3.375494328e-13)
(0.02730289099 0.04809047743 2.914751773e-13)
(0.02900808776 0.04755291936 3.087252676e-13)
(0.03026793198 0.04429228436 2.883387973e-13)
(0.02818370093 0.04425969542 2.689237721e-13)
(0.02574191598 0.03088150539 1.877109579e-13)
(0.028373703 0.03177570619 2.067512828e-13)
(0.02591815502 0.02697975502 1.752487044e-13)
(0.02324131656 0.02591661279 1.572630914e-13)
(0.01257868981 0.01161578798 6.995792834e-14)
(0.01483119645 0.01279531136 8.2406304e-14)
(0.01067726233 0.00871890435 5.598299602e-14)
(0.008745607665 0.007640845812 4.587996649e-14)
(0.0005760833445 0.0004317428918 2.581268532e-15)
(0.0009897331969 0.0006941460203 4.427014311e-15)
(2.512115054e-05 1.679103446e-05 1.110223025e-16)
(0 0 0)
(0 0 0)
(0 0 0)
(0 0 0)
(0 0 0)
(0 0 0)
(0 0 0)
(0 0 0)
(0 0 0)
(0 0 0)
(0 0 0)
(0 0 0)
(0 0 0)
(0 0 0)
(0 0 0)
(0 0 0)
(0 0 0)
(0 0 0)
(0 0 0)
(0 0 0)
(0 0 0)
(0 0 0)
(0 0 0)
(0 0 0)
(0 0 0)
(0 0 0)
(0 0 0)
(0 0 0)
(0 0 0)
(-3.544072312e-05 1.480870776e-05 1.387778781e-16)
(-9.670829342e-07 4.451280935e-07 0)
(0 0 0)
(-0.00265738933 0.001472142469 1.171285291e-14)
(-0.003353883672 0.001703555244 1.47937218e-14)
(-0.006954148303 0.00373332625 3.227973444e-14)
(-0.005933365237 0.003471909936 2.75474088e-14)
(-0.01920256354 0.01355967076 1.061789545e-13)
(-0.02090259901 0.01356176795 1.155464613e-13)
(-0.02534758884 0.01765413702 1.496858193e-13)
(-0.02400927727 0.01820851227 1.418865025e-13)
(-0.03294386666 0.03175356355 2.452205106e-13)
(-0.03432872298 0.03038573521 2.550737399e-13)
(-0.03513343342 0.03404760475 2.855077286e-13)
(-0.03387334839 0.03576310547 2.758904216e-13)
(-0.0302010525 0.04419542915 3.41657258e-13)
(-0.03089895571 0.04133341848 3.478189958e-13)
(-0.02767642856 0.04229012808 3.568395579e-13)
(-0.02721266358 0.04562676963 3.533145998e-13)
(-0.01544430029 0.04617976598 0)
(-0.01577682962 0.04227843132 0)
(-0.01374505272 0.04222404166 0)
(-0.01160027403 0.04225314368 0)
(-0.01141769021 0.04418359521 0)
(-0.01131606489 0.04607060456 0)
(0.0009645730922 0.04560677253 0)
(0.0008818144681 0.04372958384 0)
(0.002938418385 0.04364056394 0)
(0.0030100313 0.04551806713 0)
(0.01749493944 0.04472386521 0)
(0.01747131924 0.04279319521 0)
(0.01746096826 0.04083201269 0)
(0.01950415422 0.04068284607 0)
(0.02151928086 0.040572149 0)
(0.02160094967 0.0444477302 0)
(0.03217922976 0.04190408405 3.440303598e-13)
(0.03260863721 0.03891802889 3.498867862e-13)
(0.03499875271 0.03724620651 3.358702205e-13)
(0.03430032151 0.0398847695 3.282235594e-13)
(0.03441845877 0.0304678161 2.510491814e-13)
(0.03562597726 0.0287570474 2.601252547e-13)
(0.03376309361 0.02528994285 2.284422651e-13)
(0.03225181849 0.02650854677 2.180755576e-13)
(0.02071604651 0.01410754334 1.149358386e-13)
(0.02265401162 0.0140726056 1.256911242e-13)
(0.01783098242 0.01050292712 9.332812301e-14)
(0.01605989801 0.01036410355 8.407163854e-14)
(0.003568382933 0.001990110429 1.594557819e-14)
(0.004460570476 0.002275251836 1.992850329e-14)
(0.001597536066 0.0007789198093 6.800116026e-15)
(0.00108690314 0.0005790443649 4.635181128e-15)
(0 0 0)
(0 0 0)
(0 0 0)
(0 0 0)
(0 0 0)
(0 0 0)
(0 0 0)
(0 0 0)
(0 0 0)
(0 0 0)
(0 0 0)
(0 0 0)
(0 0 0)
(0 0 0)
(0 0 0)
(0 0 0)
(0 0 0)
(0 0 0)
(0 0 0)
(0 0 0)
(0 0 0)
(0 0 0)
(0 0 0)
(0 0 0)
(0 0 0)
(0 0 0)
(0 0 0)
(0 0 0)
(-0.0003193362359 7.929600637e-05 1.276756478e-15)
(-0.0001819812841 5.289874533e-05 7.21644966e-16)
(-0.0001488765642 4.956928129e-05 6.106226635e-16)
(-0.004819107934 0.001776293251 2.123301535e-14)
(-0.004998155926 0.001610037511 2.202404925e-14)
(-0.009251003584 0.003158735546 4.29101199e-14)
(-0.009005680736 0.003515516952 4.17721413e-14)
(-0.02416837948 0.01146490544 1.332683963e-13)
(-0.02456515496 0.01022005878 1.353361867e-13)
(-0.02921895532 0.01307120324 1.717792575e-13)
(-0.02879024673 0.01467552 1.694616669e-13)
(-0.03720201193 0.02405996189 2.744748873e-13)
(-0.03763382664 0.02136835385 2.769728891e-13)
(-0.03807176893 0.02360870169 3.057692988e-13)
(-0.03766777942 0.02662215722 3.034239526e-13)
(-0.03212332829 0.03102069772 3.559652573e-13)
(-0.03236813596 0.02731559395 3.568395579e-13)
(-0.0286216593 0.02738353897 0)
(-0.02844807773 0.03120379452 3.598094045e-13)
(-0.01642119338 0.03071996689 0)
(-0.01651769018 0.02878348181 0)
(-0.01451426391 0.02870694288 0)
(-0.01441807711 0.0306403845 0)
(0.01708707675 0.02930289615 0)
(0.01701407344 0.0273842021 0)
(0.01901611302 0.02728815624 0)
(0.01909109987 0.02920391802 0)
(0.03295996023 0.0283747658 3.580469254e-13)
(0.03287743047 0.02464998643 3.589073483e-13)
(0.03611361848 0.02399853433 3.516076319e-13)
(0.03606096207 0.02756344672 3.496092305e-13)
(0.03894966229 0.02243283875 2.860073289e-13)
(0.03935609654 0.01964816318 2.897404539e-13)
(0.03796365622 0.01757464962 2.585570646e-13)
(0.03747360965 0.02001833876 2.546851618e-13)
(0.02656503982 0.01179639905 1.476319067e-13)
(0.02714920457 0.01046066505 1.510319647e-13)
(0.02203294753 0.008069519629 1.155187057e-13)
(0.02147487721 0.009057866459 1.125072258e-13)
(0.006471641771 0.00237940188 2.8907432e-14)
(0.007307730631 0.002336804491 3.265443471e-14)
(0.003484446442 0.001068576778 1.483535517e-14)
(0.002868457138 0.001010264585 1.221245327e-14)
(0 0 0)
(0 0 0)
(0 0 0)
(0 0 0)
(0 0 0)
(0 0 0)
(0 0 0)
(0 0 0)
(0 0 0)
(0 0 0)
(0 0 0)
(0 0 0)
(0 0 0)
(0 0 0)
(0 0 0)
(0 0 0)
(0 0 0)
(0 0 0)
(0 0 0)
(0 0 0)
(0 0 0)
(0 0 0)
(0 0 0)
(0 0 0)
(0 0 0)
(0 0 0)
(0 0 0)
(0 0 0)
(-0.000524217275 4.158054741e-05 2.109423747e-15)
(-0.0004734704156 5.753717613e-05 1.90125693e-15)
(-0.000415366283 6.801919355e-05 1.665334537e-15)
(-0.005939760348 0.001086364167 2.617350781e-14)
(-0.006142422161 0.0008387711033 2.704780844e-14)
(-0.01071090504 0.001566361951 4.96269692e-14)
(-0.01045635747 0.002038869299 4.846123502e-14)
(-0.02613633234 0.00631879282 1.436073482e-13)
(-0.02646593652 0.004866288155 1.452865606e-13)
(-0.03111053846 0.006199877433 1.820071871e-13)
(-0.03077909819 0.008035781177 1.803002192e-13)
(-0.03889513154 0.01294790456 2.84106072e-13)
(-0.03918568383 0.01000944588 2.855077286e-13)
(-0.03944551864 0.01098246154 3.129579929e-13)
(-0.03917902911 0.01422141245 3.117922587e-13)
(-0.03298100894 0.01607116733 3.582134589e-13)
(-0.03316148298 0.01230569512 3.584355035e-13)
(-0.0292804661 0.01218291703 0)
(-0.02911855273 0.01597371934 0)
(-0.0171125237 0.0154483846 0)
(-0.01719468049 0.01355171588 0)
(-0.01519673833 0.01346457364 0)
(-0.01511431797 0.01536123075 0)
(0.01645895234 0.01399740283 0)
(0.01637542592 0.01208961522 0)
(0.0183729316 0.01200055563 0)
(0.0184567669 0.01390736137 0)
(0.03245399906 0.01327810563 3.597677711e-13)
(0.03228577686 0.009473413331 3.597955267e-13)
(0.03587370597 0.009207410206 3.556599459e-13)
(0.03598708261 0.01295061392 3.5513259e-13)
(0.04034805319 0.0107594607 2.99538172e-13)
(0.0404739818 0.007630342632 3.013839178e-13)
(0.03953663463 0.006912546929 2.71810352e-13)
(0.03932407385 0.009719388433 2.696731727e-13)
(0.02924392663 0.006082063658 1.632305402e-13)
(0.02964778563 0.004413080814 1.656869086e-13)
(0.02460834904 0.003527435513 1.294520047e-13)
(0.02417965768 0.004813308867 1.27078903e-13)
(0.008377304685 0.001490854884 3.745614929e-14)
(0.008716843832 0.001137933625 3.899658374e-14)
(0.004495112629 0.0005687581624 1.913746939e-14)
(0.00423793162 0.0007274979921 1.805500194e-14)
(0 0 0)
(0 0 0)
(0 0 0)
(0 0 0)
(0 0 0)
(0 0 0)
(0 0 0)
(0 0 0)
(0 0 0)
(0 0 0)
(0 0 0)
(0 0 0)
(0 0 0)
(0 0 0)
(0 0 0)
(0 0 0)
(0 0 0)
(0 0 0)
(0 0 0)
(0 0 0)
(0 0 0)
(0 0 0)
(0 0 0)
(0 0 0)
(0 0 0)
(0 0 0)
(0 0 0)
(0 0 0)
(-0.0007733211868 -6.906990975e-05 3.094746681e-15)
(-0.00069719206 -3.288142405e-05 2.789435349e-15)
(-0.0006294122452 -3.157157964e-06 2.525757381e-15)
(-0.006647567735 -1.5047885e-05 2.926825449e-14)
(-0.006852206717 -0.000332118668 3.017031069e-14)
(-0.01159494355 -0.0005597404165 5.366540545e-14)
(-0.01134180849 3.146037707e-06 5.249967128e-14)
(-0.02728880882 0.0003000720972 1.493666302e-13)
(-0.02761198581 -0.001279495568 1.509764536e-13)
(-0.03227072344 -0.001484747501 1.878081024e-13)
(-0.03194578756 0.0004799308894 1.861566457e-13)
(-0.03995242044 0.00102695116 2.888661532e-13)
(-0.0402375874 -0.002012637978 2.901706653e-13)
(-0.04042454263 -0.002190592911 3.168160179e-13)
(-0.04016323868 0.001130529167 3.157474282e-13)
(-0.03368257499 0.001001505153 3.589073483e-13)
(-0.03385628239 -0.002770633655 3.590738817e-13)
(-0.02992091754 -0.00294865611 0)
(-0.02976146564 0.0008322196825 0)
(-0.01776324021 0.0003075804978 0)
(-0.01784393009 -0.001581758673 0)
(-0.0158486921 -0.001668341778 0)
(-0.01580816758 -0.0007235920718 0)
(-0.01576767786 0.0002203669411 0)
(0.01576951195 -0.001247238961 0)
(0.01568050418 -0.003147567271 0)
(0.01767586483 -0.00323336355 0)
(0.0177651091 -0.001333661824 0)
(0.03175262568 -0.001936775154 3.597816489e-13)
(0.03156723666 -0.005726840982 3.5971226e-13)
(0.03509713804 -0.005800053098 3.548411565e-13)
(0.03531845071 -0.002065959323 3.552991235e-13)
(0.03993508975 -0.001910333823 3.001487947e-13)
(0.03966591188 -0.005049770324 2.990524495e-13)
(0.03875645171 -0.004514338768 2.69256839e-13)
(0.03902346011 -0.001689360076 2.703948176e-13)
(0.02923437756 -0.0008261089606 1.640354519e-13)
(0.02901178738 -0.002534188309 1.630084956e-13)
(0.02403233182 -0.001895586309 1.269262473e-13)
(0.02423155328 -0.0005652647518 1.278560591e-13)
(0.008477840185 -9.44403137e-05 3.796962744e-14)
(0.00836599271 -0.0004874610486 3.747002708e-14)
(0.004239155192 -0.0002259821109 1.806887973e-14)
(0.004317684545 -3.640326444e-05 1.840194663e-14)
(0 0 0)
(0 0 0)
(0 0 0)
(0 0 0)
(0 0 0)
(0 0 0)
(0 0 0)
(0 0 0)
(0 0 0)
(0 0 0)
(0 0 0)
(0 0 0)
(0 0 0)
(0 0 0)
(0 0 0)
(0 0 0)
(0 0 0)
(0 0 0)
(0 0 0)
(0 0 0)
(0 0 0)
(0 0 0)
(0 0 0)
(0 0 0)
(0 0 0)
(0 0 0)
(0 0 0)
(0 0 0)
(-0.001107537355 -0.0002856731691 4.440892099e-15)
(-0.001016994441 -0.0002194591057 4.080069615e-15)
(-0.000929426295 -0.0001613842623 3.719247132e-15)
(-0.007492558102 -0.001401398278 3.295974604e-14)
(-0.007718338955 -0.001799806937 3.394506898e-14)
(-0.01265567679 -0.003065488201 5.849487561e-14)
(-0.01238082879 -0.002399318489 5.724587471e-14)
(-0.028604812 -0.006226585568 1.55916946e-13)
(-0.02894822704 -0.00794701963 1.576239139e-13)
(-0.03361043959 -0.009696919691 1.944971961e-13)
(-0.03326686669 -0.00759001993 1.927902282e-13)
(-0.04110536801 -0.01130038541 2.940980792e-13)
(-0.04140127465 -0.01445213257 2.954303469e-13)
(-0.04148441844 -0.01570662732 3.211181321e-13)
(-0.04121614823 -0.01229359893 3.200356646e-13)
(-0.03436921917 -0.01411003918 3.59448582e-13)
(-0.03453718255 -0.01789404807 3.595457265e-13)
(-0.03055507049 -0.01808112263 0)
(-0.03039719116 -0.014297977 0)
(-0.01840632235 -0.01482176425 0)
(-0.01848594745 -0.01671291079 0)
(-0.01649413966 -0.01679943095 0)
(-0.01645410747 -0.01585386735 0)
(-0.01641399516 -0.01490848332 0)
(0.01504356126 -0.01642742396 0)
(0.0149492225 -0.01832487689 0)
(0.01694273928 -0.01840856744 0)
(0.01703749412 -0.01651166097 0)
(0.03094441494 -0.0170541522 3.588795927e-13)
(0.03069855726 -0.0207893641 3.5814407e-13)
(0.03388233188 -0.02042024413 3.495259637e-13)
(0.0342512535 -0.01684381785 3.515521207e-13)
(0.03809159424 -0.01401199953 2.898237206e-13)
(0.03724401046 -0.01670762463 2.841754609e-13)
(0.03626353782 -0.01492502959 2.544353617e-13)
(0.03696183835 -0.01246907502 2.587097203e-13)
(0.02683401687 -0.007099879366 1.513095205e-13)
(0.0261439561 -0.00846737088 1.475902733e-13)
(0.02122888771 -0.006386807248 1.125211035e-13)
(0.0218682239 -0.005362897268 1.158101393e-13)
(0.006836445808 -0.001362267285 3.064215548e-14)
(0.006469042054 -0.001593360776 2.900457652e-14)
(0.002877370229 -0.0006689672633 1.228184221e-14)
(0.003123678967 -0.0005862616753 1.33226763e-14)
(0 0 0)
(0 0 0)
(0 0 0)
(0 0 0)
(0 0 0)
(0 0 0)
(0 0 0)
(0 0 0)
(0 0 0)
(0 0 0)
(0 0 0)
(0 0 0)
(0 0 0)
(0 0 0)
(0 0 0)
(0 0 0)
(0 0 0)
(0 0 0)
(0 0 0)
(0 0 0)
(0 0 0)
(0 0 0)
(0 0 0)
(0 0 0)
(0 0 0)
(0 0 0)
(0 0 0)
(0 0 0)
(-0.001399930377 -0.0005970601308 5.606626274e-15)
(-0.001447742164 -0.000556357356 5.800915304e-15)
(-0.001321534035 -0.0004522044827 5.301314943e-15)
(-0.008456963186 -0.003141019054 3.717859354e-14)
(-0.008745928127 -0.0036506557 3.844147223e-14)
(-0.01389259 -0.00604852217 6.410150188e-14)
(-0.01354703328 -0.005245119633 6.253331186e-14)
(-0.03004566101 -0.0133446062 1.630084956e-13)
(-0.03046261147 -0.01524210173 1.650624082e-13)
(-0.03511606021 -0.01853627043 2.019773238e-13)
(-0.03470375427 -0.01625325047 1.999234112e-13)
(-0.04232570093 -0.02408368594 2.995798054e-13)
(-0.04266240266 -0.02736647421 3.011202399e-13)
(-0.04261169745 -0.02960306239 3.256839243e-13)
(-0.04231456782 -0.02608597426 3.244626789e-13)
(-0.03503136614 -0.02924794577 3.597677711e-13)
(-0.03519300147 -0.03303302492 3.597955267e-13)
(-0.03118349138 -0.03320935216 0)
(-0.03102644142 -0.02942705028 0)
(-0.01903753139 -0.02994934292 0)
(-0.01911547952 -0.03184038721 0)
(-0.01712743015 -0.03192630183 0)
(-0.01708826492 -0.03098043599 0)
(-0.01704904275 -0.03003527687 0)
(0.01427588736 -0.03156959432 0)
(0.01417628827 -0.03346056595 0)
(0.01616917181 -0.03354264418 0)
(0.01626938588 -0.03165169962 0)
(0.02983659308 -0.03174124892 3.544525784e-13)
(0.02948288521 -0.03525022695 3.52384788e-13)
(0.03217236058 -0.03397051414 3.385347558e-13)
(0.03267100578 -0.030749561 3.42115225e-13)
(0.03486682709 -0.02415763983 2.681604938e-13)
(0.03423267147 -0.02654139807 2.639832797e-13)
(0.0325617076 -0.0231063959 2.303296442e-13)
(0.03362303164 -0.02134634232 2.37407316e-13)
(0.02307456392 -0.01157187339 1.306177388e-13)
(0.02162421868 -0.01211886435 1.224714774e-13)
(0.01679485848 -0.008774932967 8.922029782e-14)
(0.01824925874 -0.008528037349 9.692247005e-14)
(0.004589591333 -0.00177704071 2.059463711e-14)
(0.004008364894 -0.00174030317 1.7985613e-14)
(0.001302443439 -0.0005361498571 5.564992911e-15)
(0.001639300872 -0.0006013556241 6.994405055e-15)
(0 0 0)
(0 0 0)
(0 0 0)
(0 0 0)
(0 0 0)
(0 0 0)
(0 0 0)
(0 0 0)
(0 0 0)
(0 0 0)
(0 0 0)
(0 0 0)
(0 0 0)
(0 0 0)
(0 0 0)
(0 0 0)
(0 0 0)
(0 0 0)
(0 0 0)
(0 0 0)
(0 0 0)
(0 0 0)
(0 0 0)
(0 0 0)
(0 0 0)
(0 0 0)
(0 0 0)
(0 0 0)
(-0.002489603804 -0.001480355996 9.978129434e-15)
(-0.002269589902 -0.001253782554 9.089951014e-15)
(-0.001942234536 -0.0009914884881 7.771561172e-15)
(-0.009675509134 -0.005371164676 4.247990848e-14)
(-0.01039834084 -0.00624571632 4.563016631e-14)
(-0.0157918092 -0.009903692198 7.270573033e-14)
(-0.01490372272 -0.00863860846 6.866729407e-14)
(-0.03187122925 -0.02128426024 1.720151799e-13)
(-0.03248818866 -0.02349345962 1.75082171e-13)
(-0.03702248119 -0.02826358583 2.114836084e-13)
(-0.03649840834 -0.02572856244 2.088607065e-13)
(-0.04375531521 -0.03745812946 3.061995102e-13)
(-0.04397340509 -0.04076225656 3.06865644e-13)
(-0.04389256992 -0.04398616387 3.310962615e-13)
(-0.04356033988 -0.04034175935 3.296807272e-13)
(-0.03567265235 -0.04437871081 0)
(-0.03583487029 -0.04816043314 0)
(-0.031819291 -0.04833523236 0)
(-0.03173856245 -0.04644501464 0)
(-0.0316583533 -0.04455459801 0)
(-0.0196568607 -0.04507700431 0)
(-0.01969551707 -0.04602130809 0)
(-0.01870121335 -0.04606392558 0)
(-0.01866265644 -0.0451198815 0)
(-0.002416905668 -0.04606041813 0)
(-0.002448588513 -0.04653083792 0)
(-0.002477108935 -0.04700148492 0)
(-0.00150316792 -0.04703325936 0)
(-0.001441493269 -0.04609296153 0)
(0.01343598912 -0.04667275972 0)
(0.01332215413 -0.04855518253 0)
(0.01320755164 -0.05043704342 0)
(0.01720503328 -0.05060303584 0)
(0.01742924707 -0.04683671771 0)
(0.01543335713 -0.04675494729 0)
(0.02824851971 -0.04517443518 3.437111706e-13)
(0.02769297636 -0.04807100408 3.388261893e-13)
(0.02972968367 -0.04526781511 3.185507413e-13)
(0.03056719521 -0.04295987289 3.261835246e-13)
(0.0312388638 -0.03193596634 2.424310752e-13)
(0.03009580156 -0.03324683333 2.339656247e-13)
(0.02802193103 -0.02828386909 1.994238108e-13)
(0.02921511063 -0.02729796931 2.076394612e-13)
(0.017916461 -0.01321733218 1.016409179e-13)
(0.01683731357 -0.013418407 9.554856906e-14)
(0.01234010473 -0.009181146627 6.564193633e-14)
(0.01329145535 -0.009151283621 7.067957331e-14)
(0.001895877507 -0.001089782407 8.520961714e-15)
(0.001541246126 -0.0009585190377 6.911138328e-15)
(0.0001222349528 -7.225119795e-05 5.273559367e-16)
(0.0002335329968 -0.0001275358998 9.992007222e-16)
(0 0 0)
(0 0 0)
(0 0 0)
(0 0 0)
(0 0 0)
(0 0 0)
(0 0 0)
(0 0 0)
(0 0 0)
(0 0 0)
(0 0 0)
(0 0 0)
(0 0 0)
(0 0 0)
(0 0 0)
(0 0 0)
(0 0 0)
(0 0 0)
(0 0 0)
(0 0 0)
(0 0 0)
(0 0 0)
(0 0 0)
(0 0 0)
(0 0 0)
(0 0 0)
(0 0 0)
(0 0 0)
(-0.002361181347 -0.001810845662 9.506284648e-15)
(-0.002668449473 -0.00193289479 1.074140776e-14)
(-0.002851424101 -0.00194437812 1.147693052e-14)
(-0.01152467292 -0.008548841846 5.07649478e-14)
(-0.01115496691 -0.008793027361 4.912736884e-14)
(-0.01666831316 -0.01372578788 7.698008897e-14)
(-0.01711049737 -0.01325702007 7.904787935e-14)
(-0.03403777916 -0.03043735564 1.83714155e-13)
(-0.03350590192 -0.03184904241 1.806887973e-13)
(-0.03802340414 -0.03815652779 2.17131868e-13)
(-0.0385352613 -0.03638293948 2.203237592e-13)
(-0.04506379397 -0.05164147402 3.141376048e-13)
(-0.04476028631 -0.05446299907 3.113065361e-13)
(-0.04437269107 -0.0583376669 3.333305854e-13)
(-0.04456498102 -0.05521286467 3.357314426e-13)
(-0.03587887382 -0.05956222884 0)
(-0.03604533586 -0.06334438055 0)
(-0.03201859622 -0.06352160752 0)
(-0.03193538453 -0.06163097094 0)
(-0.03185213418 -0.05973945581 0)
(-0.01977209098 -0.06027112898 0)
(-0.01985534133 -0.06216264411 0)
(-0.01784205936 -0.06225125372 0)
(-0.01780041485 -0.06130505688 0)
(-0.01775880901 -0.06035973859 0)
(-0.01876544999 -0.06031543378 0)
(-0.003665398875 -0.06098002512 0)
(-0.003707003034 -0.06192534348 0)
(-0.003748646701 -0.06287154036 0)
(-0.001735302876 -0.0629601527 0)
(-0.001652052524 -0.06106863757 0)
(0.012441299 -0.06168892151 0)
(0.01227483697 -0.06547107322 0)
(0.01625166702 -0.06539469753 3.584355035e-13)
(0.01645746312 -0.06181668975 3.595318487e-13)
(0.02608272811 -0.05619566529 3.245320679e-13)
(0.02539262899 -0.05829031882 3.176070518e-13)
(0.02689298318 -0.05383328193 2.930433673e-13)
(0.02771013456 -0.05213844107 3.007871729e-13)
(0.02617829473 -0.03537017533 2.043087921e-13)
(0.0251136399 -0.03601261382 1.96273553e-13)
(0.02248981993 -0.02940098392 1.605104938e-13)
(0.02402482206 -0.02963196477 1.71418435e-13)
(0.01271401133 -0.01237439166 7.21644966e-14)
(0.01108435956 -0.01143327928 6.290801213e-14)
(0.00754455623 -0.007276618291 4.013456234e-14)
(0.008595305497 -0.007815837594 4.571343304e-14)
(0.0003173906749 -0.0002422100492 1.429412144e-15)
(0.0001433682959 -0.0001161887365 6.383782392e-16)
(0 0 0)
(0 0 0)
(0 0 0)
(0 0 0)
(0 0 0)
(0 0 0)
(0 0 0)
(0 0 0)
(0 0 0)
(0 0 0)
(0 0 0)
(0 0 0)
(0 0 0)
(0 0 0)
(0 0 0)
(0 0 0)
(0 0 0)
(0 0 0)
(0 0 0)
(0 0 0)
(0 0 0)
(0 0 0)
(0 0 0)
(0 0 0)
(0 0 0)
(0 0 0)
(0 0 0)
(0 0 0)
(0 0 0)
(0 0 0)
(-0.0005513056792 -0.00051709096 2.220446049e-15)
(-0.001000449774 -0.0008955469401 4.024558464e-15)
(-0.001486499968 -0.001267005028 5.995204333e-15)
(-0.008545248242 -0.00794128525 3.766431611e-14)
(-0.007299119135 -0.007130388669 3.218258993e-14)
(-0.01190879891 -0.01216869045 5.506706202e-14)
(-0.01347524188 -0.01309334505 6.226963389e-14)
(-0.02936851384 -0.03298514275 1.583178033e-13)
(-0.02721833603 -0.03217633482 1.46826995e-13)
(-0.03170065534 -0.03956011271 1.80966353e-13)
(-0.03389299843 -0.0401815272 1.933592175e-13)
(-0.04166631747 -0.05972280237 2.886441086e-13)
(-0.03983570316 -0.0600643282 2.759598106e-13)
(-0.040365203 -0.06559888876 3.014533068e-13)
(-0.04192846734 -0.06481228851 3.132633042e-13)
(-0.03611128346 -0.07390349955 3.559236239e-13)
(-0.0356150254 -0.07639031669 3.500533197e-13)
(-0.03237574281 -0.07799912607 3.56770169e-13)
(-0.03249655168 -0.07482616097 3.596012377e-13)
(-0.02043801645 -0.07540149291 0)
(-0.02060451716 -0.07918452317 0)
(-0.01657786537 -0.07936174627 0)
(-0.01641136467 -0.07557871601 0)
(-0.01842473449 -0.07549010253 0)
(-0.004331321464 -0.07611038918 0)
(-0.004497822167 -0.07989341944 0)
(-0.0004711440265 -0.0800706437 0)
(-0.0003046433237 -0.07628761344 0)
(0.01170353503 -0.0761302775 3.566036355e-13)
(0.0114194046 -0.07863024681 3.510525204e-13)
(0.01498906573 -0.07636587253 3.402972348e-13)
(0.01541788812 -0.07454385056 3.484434963e-13)
(0.02318819248 -0.06267837315 2.917527331e-13)
(0.02218851958 -0.06287267056 2.79137824e-13)
(0.0229183539 -0.05639349033 2.502997809e-13)
(0.02409562779 -0.05659522644 2.633171459e-13)
(0.02079514111 -0.03482954887 1.623978729e-13)
(0.01933055334 -0.03390005803 1.507821645e-13)
(0.0164814899 -0.02634648866 1.173783293e-13)
(0.01792660829 -0.02736508302 1.278005479e-13)
(0.007101689029 -0.008565310153 4.025946243e-14)
(0.006103746286 -0.007716470535 3.458344722e-14)
(0.00312780901 -0.003701481915 1.662558979e-14)
(0.004247047829 -0.004795456583 2.257916076e-14)
(0 0 0)
(0 0 0)
(0 0 0)
(0 0 0)
(0 0 0)
(0 0 0)