/*--------------------------------*- C++ -*----------------------------------*\
| =========                 |                                                 |
| \\      /  F ield         | OpenFOAM: The Open Source CFD Toolbox           |
|  \\    /   O peration     | Version:  v1912                                 |
|   \\  /    A nd           | Website:  www.openfoam.com                      |
|    \\/     M anipulation  |                                                 |
\*---------------------------------------------------------------------------*/
FoamFile
{
    version     2.0;
    format      ascii;
    class       volScalarField;
    location    "0.51";
    object      omega;
}
// * * * * * * * * * * * * * * * * * * * * * * * * * * * * * * * * * * * * * //

dimensions      [0 0 -1 0 0 0 0];


internalField   nonuniform List<scalar> 
12556
(
31.93121363
31.93209759
31.93300828
31.93379471
31.96678366
31.96749472
31.96824359
31.96973188
31.97261314
31.97723536
31.98341158
31.98953217
31.99238325
31.99103411
31.98578059
31.97973741
31.97465061
31.97071138
31.96902073
31.96762994
31.93385866
31.9327097
31.93166075
31.93068649
31.79534874
31.79798622
31.8005631
31.80272055
31.83636053
31.83895391
31.84307592
31.86497148
31.87801031
31.89930532
31.92805143
31.95642787
31.97193035
31.9671481
31.94525831
31.91699762
31.89198461
31.87438815
31.84772069
31.84064323
31.80374034
31.80018273
31.79700867
31.79418253
31.66135363
31.66589733
31.67024646
31.67366755
31.70802909
31.71358709
31.72318945
31.7533161
31.78398971
31.8326568
31.89500178
31.955221
31.99019425
31.97965665
31.93408368
31.87166913
31.81648822
31.77595728
31.73351156
31.71810809
31.67661036
31.67057169
31.66502287
31.66030436
31.52876566
31.53475476
31.54054253
31.54556031
31.58179041
31.59235726
31.61207696
31.65885927
31.72128611
31.81697916
31.94004638
32.06726092
32.14387726
32.11555359
32.01350439
31.88909169
31.77821817
31.70038603
31.63244618
31.60341991
31.55362129
31.54373061
31.53545973
31.52864901
31.39827536
31.40597957
31.41341492
31.42067812
31.45931872
31.47735398
31.51441695
31.5879933
31.70441722
31.89205181
32.16559093
32.507778
32.73096084
32.64689496
32.35076457
32.05061139
31.81034635
31.66110791
31.5516213
31.49883853
31.43500939
31.41999077
31.40834214
31.39918198
31.26897089
31.2779143
31.28701675
31.29729062
31.3412592
31.37116006
31.43544613
31.54631089
31.74911532
32.12255441
32.80424663
34.05452421
35.12539035
34.60295307
33.38240897
32.52641006
31.97414516
31.67336599
31.49384181
31.40676647
31.32182605
31.29840093
31.28253258
31.27079173
31.14182673
31.15246348
31.16403719
31.17842825
31.2282122
31.27406788
31.37381632
31.53859275
31.88061261
32.58738048
34.33189471
40.2741406
46.74446157
43.68583732
36.2756068
33.59731416
32.34198577
31.76075981
31.46065872
31.32908891
31.21425049
31.17976182
31.15833063
31.14359361
31.01650778
31.02864538
31.04279877
31.0623848
31.12162316
31.18698778
31.32793496
31.56309826
32.08638855
33.26769144
36.87514363
55.88680194
72.79854638
42.97837546
35.5518861
32.96219219
31.93487992
31.45696796
31.26393337
31.1127292
31.06387181
31.03556253
31.01742359
30.89499199
30.90932723
30.92732366
30.95416029
31.02162656
31.10989972
31.29535273
31.61220369
32.32420081
33.94535876
38.97018407
66.94006071
137.5135276
52.75428321
38.2430714
33.79957817
32.17961923
31.47441295
31.2094561
31.01760956
30.9522289
30.91561563
30.89367934
30.77724129
30.7934806
30.8151322
30.84971432
30.92815358
31.04135636
31.27237884
31.67245061
32.54848128
34.47139833
40.11289216
72.47288655
171.2886685
61.1741498
40.9359428
34.67276647
32.45169944
31.51014048
31.16353057
30.92913336
30.8455115
30.79978417
30.77360852
30.6656546
30.68454665
30.71101704
30.75509246
30.84131058
30.97966862
31.25583779
31.73290191
32.73860476
34.86256255
40.9215198
81.49057473
170.6734589
65.84864937
42.87101002
35.39604367
32.70410695
31.54960196
31.12383428
30.84727889
30.74553701
30.68999749
30.65923102
30.55864555
30.5795841
30.61009015
30.66301998
30.76030399
30.92272149
31.2426387
31.78626492
32.89897174
35.1824919
41.74329753
92.00325572
157.3180085
67.16908748
43.86438958
35.86925242
32.89895483
31.58039499
31.08665627
30.7715076
30.65152222
30.58661303
30.55123503
30.45852929
30.48215077
30.51816256
30.58057794
30.68347205
30.86807156
31.2260867
31.82993314
33.02712606
35.46385392
42.80307947
101.3703778
702.5884416
134.9289336
66.31238269
44.06653716
36.05750616
33.01391002
31.59306792
31.0478018
30.69949372
30.56398389
30.48949552
30.44930284
30.36149508
30.3874044
30.42821073
30.49816829
30.61499356
30.82799798
31.22770483
31.8873413
33.17593849
35.81818598
44.48029741
146.6001419
438.986855
125.4716142
64.57250317
43.62552684
36.02766961
33.05959768
31.5856974
31.00367096
30.62743114
30.47971896
30.39701064
30.3525953
30.26915969
30.2973496
30.34232221
30.41839919
30.54292937
30.77450544
31.2065656
31.935947
33.34821381
36.21241022
46.21332771
423.6625405
314.4630887
115.6685221
61.49349746
42.81337696
35.84561097
33.04363205
31.55194417
30.95174122
30.555316
30.39774273
30.30702891
30.25910278
30.17655577
30.20680649
30.25541603
30.33744865
30.46994435
30.71575507
31.17568082
31.98932702
33.61409295
36.9695595
50.87953297
739.1276905
263.3353523
103.4005124
57.64829114
41.7116791
35.58463614
32.9690062
31.49499614
30.88980327
30.47831777
30.31345304
30.21712131
30.16601706
30.08617577
30.11849319
30.16995897
30.25596996
30.3940468
30.65008519
31.13061193
32.01392478
33.95282627
38.48132314
66.98354666
948.6287951
198.6476381
88.99466957
53.48341998
40.58901075
35.34437236
32.86244735
31.41821485
30.81774485
30.39748101
30.22789964
30.1264337
30.07258911
29.99214356
30.02624022
30.08015854
30.17010613
30.31400128
30.57660554
31.07186864
31.98164038
34.21003386
41.00341666
124.8660404
752.6928451
153.7038865
77.04124732
50.24994836
39.82636841
35.12466799
32.73333747
31.32449654
30.73285977
30.30819584
30.13553445
30.03144759
29.97550937
29.89895576
29.93478395
29.99060711
30.08248761
30.22910518
30.49530531
31.00019245
31.92723312
34.25311652
43.48419468
199.4024447
532.0500379
130.7221896
70.6615713
48.76423399
39.39682984
34.89639007
32.58888129
31.21882286
30.6381204
30.21333352
30.03956051
29.93373425
29.87672596
29.79986109
29.83697965
29.89454259
29.98896357
30.13932562
30.40682379
30.91730266
31.85637399
34.27717679
45.21987628
211.6777434
436.2548265
123.3894322
68.95933575
47.98346274
39.00573038
34.67038255
32.43632534
31.10444792
30.53494599
30.11071623
29.93630859
29.82957803
29.7720969
29.70204381
29.74024194
29.79905281
29.89406744
30.04477125
30.31214557
30.82530714
31.77291634
34.3020168
47.31024621
214.9316428
379.2808352
118.6597155
67.69455467
47.34613519
38.65319357
34.45219548
32.28052963
30.98380699
30.4248086
30.00401087
29.83053125
29.72370669
29.66615592
29.59703722
29.63575175
29.69567505
29.79248094
29.94590992
30.21226028
30.72612631
31.68023222
34.33587074
49.61655861
213.9646639
337.0530094
114.7516627
66.64006826
46.84931275
38.34175527
34.24489404
32.12478209
30.85879869
30.30919156
29.8904801
29.71751972
29.61097282
29.55378762
29.49533835
29.53431865
29.59473591
29.69102832
29.8430302
30.10800511
30.62132895
31.5813811
34.39380384
51.67039325
210.0488284
304.8658237
111.4677571
65.73438041
46.46523107
38.0741865
34.05089906
31.97149505
30.73115649
30.18947542
29.77555896
29.60456551
29.49881371
29.44220328
29.38523618
29.4239999
29.48486418
29.58241363
29.73686113
30.00012875
30.51228274
31.47974245
34.50416634
53.24397157
204.1670204
279.7406888
108.6659248
64.94686331
46.15906962
37.84886988
33.87195419
31.82242509
30.60240033
30.06697386
29.6547376
29.48441794
29.37941799
29.32361981
29.28164157
29.32005045
29.3807179
29.47668173
29.6278431
29.88941552
30.40037556
31.37933724
34.6848494
54.37803661
197.1552053
259.7004546
106.2365305
64.25589033
45.90626627
37.65984921
33.70849656
31.67873572
30.47372851
29.94275938
29.53570991
29.36777785
29.26389762
29.20895853
29.16751721
29.20524652
29.26588306
29.36291264
29.51695207
29.77667198
30.2869743
31.28445646
34.92002613
55.16573815
189.5801951
243.2806983
104.0963204
63.6452318
45.69275511
37.50022378
33.55971278
31.54094654
30.34598536
29.8177844
29.41059737
29.24283041
29.13973454
29.0857506
29.06432024
29.10136421
29.16135986
29.25591974
29.40449816
29.66266644
30.17333092
31.19894598
35.17392139
55.67666129
181.7842819
229.6403416
102.1907813
63.10378568
45.51064935
37.36422981
33.4241842
31.40912512
30.21975667
29.69269331
29.29099227
29.12579592
29.02384654
28.97076443
28.9467286
28.98287152
29.04256668
29.13838911
29.29149225
29.54803188
30.06049323
31.12508782
35.41609413
55.95721253
173.9387198
218.1210315
100.4814664
62.62284431
45.35468113
37.24742673
33.30037252
31.28306589
30.09540346
29.56811366
29.16320866
28.99727942
28.89595439
28.84379962
28.84624215
28.88158485
28.94042763
29.03307848
29.17781574
29.43328157
29.94936173
31.06319002
35.62973621
56.04472873
166.1691579
208.2790331
98.93599394
62.19340228
45.22042712
37.14645591
33.18691867
31.16248611
29.97316355
29.44430753
29.04604431
28.88286869
28.78256946
28.7312255
28.72484888
28.75921046
28.81758827
28.91189947
29.06457318
29.31884047
29.84070588
31.01188587
35.80872988
55.9814496
158.6482904
199.7369672
97.52252021
61.8063866
45.10409069
37.05874703
33.0826679
31.04708521
29.85318854
29.32175269
28.915634
28.75064552
28.65075517
28.60022764
28.62958487
28.66316294
28.72066814
28.81135902
28.95112332
29.20508566
29.73515927
30.96893455
35.95237599
55.79535756
151.4563666
192.1949061
96.21420409
61.45397567
45.00251517
36.98224812
32.98663153
30.93658215
29.73559279
29.20043358
28.80415403
28.64209855
28.54300088
28.49312153
28.50300127
28.53558362
28.5924696
28.68504686
28.83896545
29.09239145
29.63320312
30.9319908
36.06291563
55.51635914
144.6528408
185.4492004
94.98935367
61.12934082
44.91298238
36.91525861
32.89794633
30.83070117
29.6204686
29.08088789
28.66926163
28.5044512
28.40559012
28.35639195
28.41607758
28.44797243
28.50413523
28.59332115
28.72681645
28.98114017
29.5351717
30.89901411
36.14429747
55.17269562
138.3124307
179.3369743
93.82958047
60.82666702
44.83321679
36.85633478
32.81582198
30.72915546
29.50794521
28.96287783
28.56807832
28.40593612
28.30752559
28.25878638
28.28159436
28.31249452
28.36785237
28.45813419
28.6171719
28.8718732
29.44131662
30.8682702
36.19994766
54.78312933
132.43298
173.7406153
92.72263833
60.54148198
44.76119501
36.80413006
32.73950822
30.63169195
29.3983314
28.84743145
28.42384499
28.25906383
28.16082194
28.11264406
28.20714608
28.23752111
28.29240725
28.38141485
28.508226
28.765467
29.35216904
30.83827935
36.23206443
54.35609931
126.9656106
168.5839434
91.6614285
60.2694781
44.69463623
36.75720241
32.66822808
30.53800144
29.29244476
28.73462297
28.34079774
28.17647326
28.07827358
28.03034697
28.03561934
28.06484889
28.11876728
28.20817843
28.40528863
28.66378618
29.26952599
30.80812989
36.24305437
53.90387091
121.9039355
163.8116087
90.64454495
60.00761247
44.63131205
36.71419047
32.60140386
30.44796916
29.19246524
28.62796876
28.1562357
27.98905226
27.89073254
27.84328583
66.36569732
161.8386196
82.10758118
71.63390362
205.7250349
167.9695199
80.28793472
202.1915963
207.2003311
90.74964818
182.0404015
199.703759
100.3391096
857.6989605
734.232724
163.2821711
179.1737074
127.4024533
539.8477336
840.7797888
457.9561909
158.5141993
161.4642037
53.39217617
46.42314637
74.75539986
43.44549873
481.0822687
168.2016791
130.180828
57.67006089
46.96656318
39.88831765
61.58834483
58.37095418
1613.822945
1146.527894
169.3550013
70.29227575
61.26072859
40.75389155
66.96426458
62.10805511
75.42945096
217.9969264
195.1495217
907.5875623
1252.73524
171.9225028
77.07762126
72.5949674
41.58703912
74.72260478
67.84163943
85.16469344
318.9577335
252.5987724
512.7444104
678.9143417
42.59708141
84.59520391
75.67088226
93.87427194
496.709015
393.7195477
1932.865353
331.5433414
387.3145253
44.26001587
104.5952635
86.09395522
109.4599323
1103.888502
719.8778035
146.0404864
413.5975216
531.7930823
161.4945513
190.3239067
101.8093117
155.9266754
1115.516521
506.9228901
127.1872166
408.4284596
781.7538618
192.3597815
173.9433238
69.24698017
228.5101516
242.5634301
196.1252418
225.4963978
1267.496297
1615.054111
189.4829179
1128.547306
976.7727096
808.2680948
1125.789182
187.0120536
249.3424724
221.781298
76.58122925
285.7166536
329.6197207
244.6728602
282.4718999
709.5763287
887.7464429
206.8121385
679.3450039
535.2987916
966.3561002
703.784507
207.7931283
389.3416401
322.3339829
86.43467303
396.7225672
499.5247534
332.5181794
392.6408066
398.9960038
494.0782323
708.7863808
506.5047764
94.2044403
2847.103407
694.7596246
1067.478645
504.8106827
678.1103659
3283.270427
303.7778396
325.8605471
1700.746927
8600.654519
1113.719117
110.7946101
617.7627551
1745.270517
7672.440647
1076.604232
1715.423857
634.517696
38.56641402
57.83439769
49.72624307
62.14890156
128.1713102
88.76995209
2868.702867
495.6424424
68.82055915
171.7727501
151.0974008
5399.205349
159.4450251
78.8446397
77.95679136
5608.49896
730.9149618
812.811723
557.1924998
268.6639878
293.1583071
148.3439453
131.3256106
63.51314193
1342.575086
227.7226041
535.002395
141.1760797
362.1704512
117.46369
830.5041384
1058.750088
189.5332589
408.9295386
346.825244
517.6626261
420.4518319
192.4041609
1186.640727
4305.787042
742.2215565
72.64873421
60.22509502
93.38029126
146.7609773
71.49100844
75.30397747
3940.396438
338.4122119
2797.843175
371.5634204
2054.620964
305.0948811
1316.011337
1299.326953
1047.711001
1071.741705
2007.492629
4538.305157
575.1474158
2412.695097
1326.713421
5092.202422
2865.682608
599.4018313
430.8653999
163.0716538
170.5996293
613.9282014
696.9016961
4997.767862
779.4655235
214.4038808
227.8174806
198.4108063
209.3757715
776.2362617
1183.320113
1343.27287
173.5964729
841.8838926
673.3478207
1307.762235
843.3711938
177.0681972
129.184168
385.8443325
185.167048
591.8719974
415.7494532
138.0833403
561.9322622
855.0046107
784.4044336
743.3973182
229.6426668
1461.443139
230.1193546
210.1744542
1398.854272
1329.162772
1453.981785
1407.305188
213.7848907
1347.169167
1361.306615
1038.663753
357.4181112
348.8457195
358.856975
358.7635197
1030.85781
957.0788712
318.93827
292.7931665
344.4531652
326.577008
974.8524383
305.7232538
308.5606443
260.6658966
262.9875294
753.9252089
5275.74199
767.9207147
427.6769246
434.5827194
361.7024209
365.8367074
1253.740791
921.0785951
447.3832607
1121.141783
1860.130058
560.6591607
184.8868264
194.685171
173.3324435
181.8631887
551.682037
1300.86576
742.2536568
755.4246556
543.187391
547.9945851
5838.672891
1003.705559
526.8856306
589.3022316
233.6013056
244.9220664
1375.36214
2790.201857
1510.832538
2540.720481
1114.887057
6483.944719
2817.913285
5537.524803
1110.952038
707.5564987
3906.924374
1929.392624
3557.531856
1867.917975
2551.436658
45.71609522
110.2088642
107.2844453
161.4874875
4230.024536
7905.900744
328.8452967
144.7487034
155.1480856
1130.256114
2945.007638
4184.381246
462.7127679
507.2967139
943.3493648
246.4763361
260.7901087
542.6215276
145.5017285
105.6832011
209.025328
393.4932365
131.0031594
154.1459778
1519.527063
3744.34707
3905.017616
1224.295329
968.9330844
2672.045894
1962.354423
4513.064461
4435.81916
1194.916914
292.4347819
133.4964733
138.1123223
127.8464076
132.0315869
286.6961077
154.3284103
160.852541
426.1050056
1016.123664
397.1483131
416.4770969
6492.941177
3280.715091
494.9512208
968.5277226
3387.628255
3736.005412
544.5392293
236.2461274
198.7554512
282.1671696
248.9491772
569.5174167
1304.200111
4472.191407
4523.032286
1534.906797
236.7592131
122.7156637
126.5319767
685.5781431
671.3913653
320.2632058
1856.041068
1706.093161
836.381244
613.3114473
320.7438035
333.2706927
863.1849138
351.3921389
357.6994533
337.6818356
348.1221044
847.2012805
351.64673
146.5994575
152.3294735
139.7200605
144.7984132
347.2033191
409.0143844
1006.453191
995.7937581
1612.567986
1563.646895
477.9927648
343.7534055
724.0256316
687.9736982
991.1873779
983.466644
380.9842382
433.2176078
887.7164319
718.4599437
5981.015373
1934.830559
719.0104292
898.3204874
520.7059898
1647.596813
1620.369973
1656.278877
592.5125448
4864.284894
8785.572048
312.1375492
358.1648888
423.7077477
441.1696975
1122.750933
1753.706348
1078.516198
572.6196673
1763.745548
8172.264725
1612.280188
1420.354568
16055.58733
1087.86025
1632.016859
1748.152779
2139.680869
1574.85985
5350.680897
5422.518468
1272.511666
1661.423654
5822.84688
1400.826143
1336.42312
354.5018288
1325.135456
540.2822492
1319.626138
385.8832034
4113.819893
2821.327477
936.3112997
4858.261997
5682.546854
4524.041352
3159.794449
1004.70415
4686.350756
5827.391487
3121.42582
4447.518081
6177.272125
1863.654442
2753.849444
1284.013025
1645.286351
5551.658978
3995.541191
1158.093296
711.6205705
1880.944863
1274.864057
641.1033062
404.6518452
1161.027756
4075.717848
5130.703522
1445.753055
1242.219929
3949.668975
4084.738023
2932.565996
2773.884229
992.3134854
4808.671118
4722.143106
3455.969044
4674.578207
4684.480069
1162.87069
4585.334048
3017.322468
2994.001608
3371.706251
1812.460151
858.4800859
927.3388673
3828.701689
1082.030837
1224.050302
955.5237197
1040.577358
3582.441666
3593.624405
992.5656914
1171.981552
369.499629
390.5312708
922.5108683
747.4746745
349.2452652
364.2516843
1292.790819
1306.678024
828.6144183
296.5302669
317.789911
271.2257116
290.3531263
820.6419319
894.8574034
360.8360292
393.9164383
325.7406472
351.441269
901.0648532
527.8533421
247.0219124
265.6440753
768.4760827
801.521166
2426.956419
2529.257085
917.9545165
3609.020233
3640.243974
4601.357285
2489.475178
2084.610771
3517.548633
2459.807145
626.3014451
1748.357201
2319.609998
1505.627567
500.8287407
565.192087
475.6051609
489.9207212
1467.974771
615.8752782
627.3382427
586.4648086
611.7459599
1374.570367
423.7860527
437.1101092
402.2489099
419.1042624
1364.504966
1434.379022
458.4799202
470.8522649
441.4623064
454.260513
1430.350785
4386.945745
4439.08369
1315.622058
1473.014687
4647.449857
4370.370059
945.0958948
950.8778036
917.738585
943.2482209
965.017935
978.7918647
952.9895983
962.1047457
645.5129588
656.7452482
630.9406822
641.6864884
699.0708719
873.7456518
662.1465328
675.6835381
1598.476682
1869.459186
1274.955938
1487.512008
5513.811552
2953.573533
3232.296646
1997.054798
2838.391415
1021.179458
1012.80208
413.4608683
1639.691679
1645.19883
1604.766939
1629.424235
1692.457875
466.7937763
1526.292122
1076.457829
951.5285904
745.2937255
347.9033841
1029.853611
1503.052614
979.7337567
1039.988186
1566.605554
1592.034179
1523.644085
1555.933753
377.1963071
981.0623724
970.4434477
5760.030965
1331.23188
5621.410561
4824.105906
5599.231462
1425.790541
6184.986534
1714.456034
5914.403699
5083.525414
726.1537763
810.7858489
1683.304194
1653.135646
525.6890344
576.0532473
1751.122623
1686.294084
5772.931899
1165.024594
453.5067976
497.9976904
6037.059101
6858.253818
1840.497486
7443.973295
5340.697108
2019.225391
1089.675659
6447.069246
3675.207684
7209.62948
4130.882809
1572.015687
67.22500737
43.87257694
37.37711383
5726.376014
5702.113445
148.1212744
77.72845633
78.77781403
5971.497187
962.7708808
2814.109289
1912.121838
337.8589935
282.0726562
172.1795563
333.3246845
239.0651077
518.9263753
1895.66763
327.8500523
359.8870779
55.69776868
65.719667
128.559482
420.3526028
825.0434208
1214.737412
207.4142248
113.5349332
116.8824697
108.9941728
112.4179174
204.1991679
851.8122928
947.5055394
3089.953181
685.8993269
603.0451493
361.3998056
331.2422243
344.7688347
742.1335298
1319.958498
1682.32011
590.1558545
117.9891488
121.50528
233.0072021
294.4453542
635.715129
609.376767
587.3327064
521.2987087
273.1818001
628.0145263
312.8717157
326.7787815
4517.455343
4212.363106
2520.952074
1667.553812
1644.99214
1044.169429
3789.4488
5754.103234
5129.759048
1284.471202
752.3994629
830.6277285
1748.296688
1082.096847
1702.267027
1688.774707
1715.410483
3073.925231
5221.717361
3551.540214
3983.481985
5537.763724
1531.020224
1234.33466
741.0413773
1365.460322
185.4942882
147.0466724
260.3337209
904.8088544
2391.841242
1692.538799
5969.243441
6303.240243
6429.908797
5320.824253
6134.196579
98.82796316
125.4336073
313.2427895
3205.622077
2102.323332
1623.641548
4114.258952
3230.82718
2202.486873
4027.14395
3671.934475
5731.172884
5429.039608
3929.859915
778.8245194
838.6298087
1667.298697
5250.758895
2793.609594
3129.704289
4330.111179
2588.639512
3018.949853
1231.186469
1632.800447
1330.930584
836.4340177
571.0193563
579.0264895
1271.11719
786.5313202
827.7266152
584.0146071
594.3856704
856.6487046
218.9225892
241.5388597
501.0791818
634.9724753
1136.14644
822.1723452
1298.928387
1348.66128
859.5668059
1807.896962
1313.273193
1364.983329
909.4837438
911.6171837
1465.735135
1468.993944
1482.409972
1396.79757
1418.279548
1389.042222
865.1302791
869.0139405
844.8007945
850.2741842
1342.768663
1447.962556
899.1950956
902.9845335
873.2316409
877.5313723
1415.226359
651.6852964
640.0404264
297.2815695
317.396774
667.4949188
655.4456842
490.7408588
478.8478299
253.608487
1519.302861
1521.685066
1487.669487
1492.588272
1877.228405
1529.218918
1530.289538
270.5148297
510.1009847
495.5438528
5183.366303
5125.897966
3269.576779
3474.892161
5239.902017
5171.585278
5374.022916
819.8446325
1644.464794
1374.055447
296.7051145
308.5069719
599.7118486
533.7016769
283.8874553
293.3898537
1072.434251
1072.315185
738.9753272
757.967312
1080.451728
1084.786018
5783.193732
1453.686393
947.017808
934.0215898
12639.99232
2286.879563
1828.050593
4778.783237
3915.642301
1771.324409
1749.736201
1100.111408
6247.123625
6823.805853
6517.677801
5090.457952
1169.805703
1816.961801
1760.482908
2850.910073
1023.820887
1194.945197
5623.120719
5528.683818
4282.489105
3966.972493
2285.612114
1365.605804
1669.804606
1499.633559
3416.958743
5648.851144
4804.564892
5709.243595
5460.116858
3887.885053
208.7026921
297.43783
995.8438518
3911.874867
3827.54514
3996.609176
3983.974757
3829.564856
2476.237553
2456.257725
2494.452941
2478.869488
3832.336954
4544.360417
2582.814947
2603.918234
2476.547581
2550.402732
4620.234977
3537.821201
2250.987298
2029.870555
2439.400869
2374.990981
3627.955692
4448.562767
2654.203918
2674.138903
2626.351778
2638.146486
4492.541241
4090.378845
4019.01306
4184.755585
3991.141623
1004.572836
696.4010017
700.0713316
1597.965387
1014.396128
1018.454261
987.2959018
1007.906362
1586.324578
5665.098893
5893.285233
5141.197121
5743.43779
1665.626261
1679.311747
1636.821711
1651.664164
2116.631322
989.7985576
1599.927407
1537.197367
1637.24342
1024.588152
1028.251368
1020.261294
1022.878756
1630.40787
1573.45455
1615.254682
1102.644409
1511.926083
2089.510564
6113.90853
5697.145803
4304.967701
5942.280528
834.2952745
1173.808818
13051.26809
1124.640209
770.6457762
773.8890726
1767.692792
7795.117713
8058.619184
9421.959861
6043.535623
5643.55046
1718.135086
1706.333266
1082.988065
1679.438755
2643.736559
3730.935474
2623.381306
3513.087949
2622.331145
1052.638785
3593.781988
2669.257822
5406.62951
5609.590629
5771.28479
4329.781312
4953.574503
1364.061698
1686.637026
1176.514351
590.298769
785.8291972
1205.84823
1304.324202
814.8782225
1179.689136
1540.162355
5518.498995
5786.911726
5426.660258
5307.141548
6086.109676
6036.036701
5887.509284
3576.072856
5196.521903
4721.561637
5843.91693
6045.985135
4005.282314
4329.127018
4781.31484
6091.37333
4949.647078
3514.795542
3856.366977
3010.589922
2173.011283
3045.599259
1600.040205
2323.746295
3099.408394
3404.008911
3157.282053
4227.816242
2658.728975
2520.935887
3614.790931
2622.026792
3949.831343
3992.12853
2512.649944
2498.074455
2537.180816
2509.623909
4016.620686
2879.844028
1735.493613
1765.704659
4753.663787
4747.022491
4040.840801
5167.849893
4984.235927
4814.0873
4769.672973
4989.326712
3792.1917
2073.464972
2312.056721
1812.571944
1902.597356
3238.189011
5458.440909
4609.642427
2522.961664
5803.588192
5553.781854
5533.127186
3573.898934
5451.434766
5275.955081
2112.411569
2380.900342
4486.032773
1269.640325
1324.72759
641.5268932
715.1031429
1225.27462
855.2828357
598.6091494
621.8414384
1247.585296
1212.978036
724.773207
1256.69688
1594.524997
804.8784478
1296.417916
1282.464982
2426.235219
1664.052182
1638.257592
1826.863019
1768.583621
2562.158956
3821.112458
3575.836222
2333.5023
3438.555793
3604.840483
3233.823786
3405.81253
2294.194085
3439.818482
3372.750385
4356.003802
3218.720876
968.3153404
960.6387206
1430.236498
1475.052577
922.6746283
919.3498975
1450.475533
1461.81657
1430.278628
1441.780093
859.2005831
862.4748562
1384.878468
1353.997916
853.3289043
856.1592342
889.9567604
893.8646275
1439.871209
1424.000772
882.1028997
886.1072701
4416.806573
2723.489198
2740.608245
2686.405966
2702.407712
4397.562672
4416.21624
3014.391878
3489.81865
2774.963017
2843.586813
4392.265129
947.1477245
1509.599801
1499.669257
1523.779019
1517.109982
948.8866322
935.0166219
1465.881838
1448.369217
1490.270263
1479.140695
940.5666084
970.0209511
1567.371601
1557.688018
1581.563113
1572.09242
972.4990226
955.5369389
1536.696373
1530.825927
1551.982144
1543.18416
958.172886
1508.967799
1512.733096
649.1167959
935.3250551
932.8266675
941.46578
939.4123759
653.390877
1498.948473
1503.307586
1572.818525
1491.347022
719.6575867
995.8032054
1005.215045
1413.909699
1361.752273
796.1007978
664.4821839
948.1354356
947.1213206
955.2621894
958.9141895
674.1355654
1540.74586
1533.808376
5133.284762
4994.675036
5320.551462
3711.354749
4362.670824
3048.19335
4981.311483
5045.044256
4970.024553
4980.756505
3114.709963
2226.153092
4241.550703
3589.759239
4884.708492
5017.809578
2571.568503
1025.323133
719.772275
721.528385
706.3941063
708.9129502
1013.417416
1640.17786
1653.90157
1610.389732
1626.66976
1598.804916
2028.493208
1463.112563
851.5440081
938.1393636
747.3339797
769.5679809
1065.713643
1410.520378
1948.66431
1543.236517
1467.384499
991.30793
1595.129602
1582.168328
1630.623942
1587.701905
987.5083386
1573.967962
1585.373131
1535.828224
1547.272136
5400.592462
3505.912734
3751.617131
2621.584869
3141.458238
5491.425103
5537.905271
5362.492065
4087.263793
4689.50327
5887.02506
5717.238485
4262.064665
4523.839711
3365.941677
3834.720097
5896.52961
1710.721772
1711.819221
1693.952478
1697.354237
1125.878127
1137.604177
786.9198503
1772.138096
1676.027907
1729.347622
1720.125192
1668.938948
1037.403593
1045.110946
1030.227642
1035.589225
1665.228213
1704.487835
1058.319526
1114.458395
1046.698131
1061.169795
1707.806893
5562.317013
801.1303809
806.1189721
1167.855359
5869.776301
8842.605352
9206.007123
8681.984049
8688.538667
6503.605317
1789.344158
6449.914332
4581.985592
4975.90458
1097.884828
1741.390244
1725.709149
6409.446772
7080.0174
6821.148384
5553.165958
6060.547905
7514.436613
7126.633358
4526.028769
6738.575064
5785.52267
2152.793196
1731.032606
1158.656071
31.7799926
31.79785521
31.87361831
31.80506521
31.834702
31.89245912
31.84554822
31.88519033
31.91948503
31.89712507
31.93900807
31.94887184
31.94951371
31.97451708
31.96905291
31.97817627
31.97566836
31.97083358
31.97072275
31.94261727
31.95277893
31.93170512
31.89148184
31.92500469
31.8796197
31.84261056
31.89828831
31.83259003
31.80539353
31.87845254
31.68061036
31.71754519
31.77504608
31.73334665
31.79045636
31.81959207
31.81439654
31.89062718
31.87843285
31.91715537
31.9993898
31.94293955
32.01823187
32.06828729
31.98523432
32.07443278
32.07726775
31.98565361
32.0633742
32.00402729
31.94689509
31.98092705
31.90039083
31.88617048
31.87560173
31.80370051
31.82874093
31.78374552
31.73095524
31.78384585
31.60366858
31.67354693
31.7028215
31.70300073
31.81485926
31.79025133
31.86039554
32.02233705
31.90773543
32.08324693
32.28415689
32.03248325
32.31982249
32.45667701
32.13085809
32.47258721
32.49020118
32.12480076
32.4387239
32.29602011
32.04402442
32.23600634
32.04354564
31.92029179
31.98404268
31.83341535
31.80441887
31.79211222
31.69329282
31.71727535
31.55403188
31.67493248
31.66777488
31.72937912
31.94897167
31.83681799
32.04555066
32.42512802
32.0901815
32.58746483
33.2331598
32.39533626
33.37388666
33.96890296
32.68850451
34.0331847
34.02331987
32.65901577
33.75109659
33.2319073
32.42735707
33.02842591
32.49736817
32.12350162
32.34948849
32.00487785
31.86138494
31.91625871
31.7151095
31.69348004
31.53748738
31.74368493
31.68587333
31.83894247
32.24973283
32.00739045
32.44674303
33.35601764
32.59442218
33.82895566
36.4567789
33.59260661
37.52982169
43.95785499
34.91672008
44.16419566
41.44487257
34.70917259
39.19929746
36.085529
33.64098499
35.2877415
33.61421872
32.71318443
33.22818267
32.4146754
32.08492193
32.22563368
31.82237418
31.7323476
31.55329744
31.87425131
31.77156594
32.02663281
32.72169625
32.3558481
33.08118341
35.00689601
33.7118051
36.20831784
47.9408582
37.6739177
44.34926239
51.29760762
42.29935198
64.46764829
61.98834641
46.73535048
49.81948939
43.759796
40.94748648
40.88470517
35.88101682
34.08497299
34.92976851
33.15608015
32.57347886
32.78323326
32.03960493
31.86656781
31.59763339
32.04901905
31.91736351
32.26476292
33.26438688
32.86285796
33.78979064
36.69743403
35.478822
37.51456785
39.91382968
39.04578841
58.2707789
66.40858912
63.0169235
97.43228716
68.94716254
57.47681454
50.28023033
39.32859909
36.69630096
37.46472225
34.20978452
33.40226146
33.57242313
32.35911688
32.11235109
31.65746049
32.22733511
32.09439376
32.49606965
33.7217978
33.38657847
34.35615626
37.76803309
37.0160418
39.32384391
42.34568236
41.88974005
67.63051923
80.23521135
79.14645759
155.2974676
95.78270258
86.18275858
59.41523659
43.00003966
40.33436041
40.20683599
35.38065292
34.52124232
34.45615707
32.72832925
32.45005213
31.71922945
32.38728725
32.26870396
32.69641501
34.07596882
33.81783936
34.7760291
38.46621162
37.95883904
40.34501761
43.65725576
43.35307704
73.38025003
97.7962531
94.84794673
173.8123218
110.0390929
106.3520428
65.07123579
45.81542726
43.88782123
42.40605886
36.38282623
35.67940479
35.23142944
33.07526635
32.81767966
31.77683398
32.52371316
32.42144364
32.86412402
34.35982828
34.14914256
35.11114986
39.06558666
38.60783733
41.15762909
44.8405681
44.4717577
82.69579646
112.847138
109.7608263
166.5293841
112.0982412