/*--------------------------------*- C++ -*----------------------------------*\
| =========                 |                                                 |
| \\      /  F ield         | OpenFOAM: The Open Source CFD Toolbox           |
|  \\    /   O peration     | Version:  v1912                                 |
|   \\  /    A nd           | Website:  www.openfoam.com                      |
|    \\/     M anipulation  |                                                 |
\*---------------------------------------------------------------------------*/
FoamFile
{
    version     2.0;
    format      ascii;
    class       surfaceScalarField;
    location    "1.07";
    object      meshPhi;
}
// * * * * * * * * * * * * * * * * * * * * * * * * * * * * * * * * * * * * * //

dimensions      [0 3 -1 0 0 0 0];
oriented        oriented;


internalField   nonuniform List<scalar> 
25162
(
0
0
0
0
0
0
0
0
0
0
0
0
0
0
0
0
0
0
0
0
0
0
0
0
0
0
0
0
0
0
0
0
0
0
0
0
0
0
0
0
0
0
0
0
0
0
0
0
0
0
0
0
0
0
0
0
0
0
0
0
0
0
0
0
0
0
0
0
0
0
0
0
0
0
0
0
0
0
0
0
0
0
0
0
0
0
0
0
0
0
0
0
0
0
0
0
0
0
0
0
0
0
0
0
7.147062806e-10
1.126080178e-07
-1.261017896e-06
0
1.381672372e-10
1.072065515e-06
0
0
0
0
0
0
0
0
0
0
0
0
0
0
0
0
0
0
0
0
0
0
0
0
0
0
0
0
0
0
0
0
0
0
0
0
0
0
0
0
0
0
0
0
0
0
0
0
0
0
0
0
0
0
0
0
0
0
0
0
0
0
0
0
0
0
-3.066291534e-09
-1.830940413e-06
3.701491427e-07
1.155093024e-05
-1.541671453e-06
-0.0001016050861
3.779104886e-06
0.0001436137109
-6.366089845e-07
-0.0002667988275
-4.509842759e-07
0.0002992915044
2.354467589e-06
-0.0003483380864
-6.414635117e-06
0.0003453970066
1.59249613e-06
-0.0002788138615
-3.886550274e-06
0.0002406499612
3.546849618e-07
-0.0001076884225
-5.944491291e-07
6.711705164e-05
0
-1.977821075e-06
-3.832376321e-08
0
0
0
0
0
0
0
0
0
0
0
0
0
0
0
0
0
0
0
0
0
0
0
0
0
0
0
0
0
0
0
0
0
0
0
0
0
0
0
0
0
0
0
0
0
0
0
0
0
0
0
-1.754218623e-07
-3.86401551e-06
1.227697517e-06
2.745517196e-05
-1.19005489e-05
-0.0002363598921
2.006830304e-05
0.000337027998
-1.1959003e-05
-0.000673411675
1.262537796e-05
0.0007845689891
2.087394342e-05
-0.001070906512
-3.592809501e-05
0.001142094874
4.222916651e-05
-0.001256901865
-6.376444042e-05
0.001258342545
2.585040212e-05
-0.001145483622
-4.033690745e-05
0.00106997572
1.079898096e-06
-0.0007528336567
-2.286948195e-06
0.0006277807518
-9.95655173e-07
-0.0002621898343
3.520983362e-06
0.0001625977647
0
-3.951567259e-06
-1.513573007e-07
0
0
0
0
0
0
0
0
0
0
0
0
0
0
0
0
0
0
0
0
0
0
0
0
0
0
0
0
0
0
0
0
0
0
0
0
0
0
0
0
0
0
0
0
0
5.404199588e-08
1.445173603e-06
-1.66580087e-05
-0.0001728757519
2.78593036e-05
0.0002945421296
-5.221304612e-05
-0.0007737459765
6.307374691e-05
0.0009533484584
1.435822904e-06
-0.001480606273
-1.21898276e-05
0.001637785868
0.0001035336405
-0.002008884408
-0.000129664763
0.002093571013
0.0001488265631
-0.002226867834
-0.0001782925305
0.002232069723
0.0001064178693
-0.002124760038
-0.0001337726281
0.002044027226
1.641399263e-05
-0.001655469805
-2.604112512e-05
0.00148127518
-1.983968064e-06
-0.0009155078971
6.487104479e-06
0.0007211723195
-1.948425837e-06
-0.0002154993066
5.357429541e-06
0.0001065714917
0
0
0
0
0
0
0
0
0
0
0
0
0
0
0
0
0
0
0
0
0
0
0
0
0
0
0
0
0
0
0
0
0
0
0
0
0
0
0
0
0
0
-2.91165405e-06
-2.028286517e-05
5.466802579e-06
8.69929793e-05
-6.644257138e-05
-0.0005183571179
8.077494506e-05
0.0007176373356
-0.0001011265428
-0.001407691807
9.478264556e-05
0.001644184892
5.850593642e-05
-0.002223041037
-5.565054481e-05
0.002350356924
0.0001951949204
-0.002624038736
-0.0002061203812
0.002663774756
0.0002399628319
-0.002702433302
-0.0002458486709
0.002703644774
0.0002234505151
-0.002684219167
-0.0002466334986
0.002646529484
0.000132145894
-0.002425712386
-0.0001508640468
0.002261511335
-4.29116592e-05
-0.001588188904
4.588877928e-05
0.001340082315
-2.460926555e-05
-0.0006092404158
3.258990023e-05
0.0004049929028
-2.722265135e-05
2.417699435e-07
-2.804746598e-07
4.127539354e-07
0
0
0
0
0
0
0
0
0
0
0
0
0
0
0
0
0
0
0
0
0
0
0
0
0
0
0
0
0
0
0
0
0
0
0
4.664206076e-08
1.489532292e-08
5.631680535e-07
-1.576378094e-05
-0.0001001204098
2.017480699e-05
0.000224363315
-0.0001272575914
-0.0008198177829
0.0001268115403
0.001088285332
-8.249216114e-05
-0.001863069124
8.134132661e-05
0.002094998514
0.0001028728783
-0.002623172651
-0.0001385377488
0.002736335205
0.0001792283305
-0.002833272735
-3.106222906e-05
-8.796419551e-05
0.001371202761
0.001401868068
-0.001364476457
0.000122843514
-0.0001233923402
0.001365025283
-0.001405467886
0.0003383137861
0.002821444124
-0.001429200697
-0.0001486302083
-0.0001764591186
-0.00268509413
0.0001617283211
-0.0001836904048
0.002587760658
-3.672127823e-05
-0.002038492535
2.596520936e-05
0.001791838602
-5.541743903e-05
-0.0009633196816
6.495970826e-05
0.000706938056
-0.0001402623161
-1.603705232e-06
2.93018013e-06
4.43295905e-05
0
0
0
0
0
0
0
0
0
0
0
0
0
0
0
0
0
0
0
0
0
0
0
0
0
0
0
0
0
0
0
0
0
-1.958287065e-07
0
4.161949524e-07
5.124726196e-06
7.786064016e-06
-3.002503365e-05
-0.0001666705647
3.128081349e-05
0.0003257690639
-0.0001479896921
-0.001030278434
0.0001506821887
0.001308268178
-6.9077705e-05
-0.002115077206
6.602264494e-05
0.002340345399
0.0001787811279
-0.002760845122
-0.0001865857232
0.002794883415
0.0001055308239
-0.001415852971
-0.0001032975603
0.001413619708
-0.001403443583
0.0001386620051
-0.0001364588997
0.001401240477
-0.002774225518
0.0002299090197
-0.0002395480759
0.002721977557
-2.2005213e-05
-0.002250348483
1.870031412e-05
0.002009401826
-8.259075275e-05
-0.001171657382
8.393115143e-05
0.0008950931543
-0.0002440301014
-7.034793471e-06
9.062208854e-06
0.0001066719556
0
0
0
0
0
0
0
0
0
0
0
0
0
0
0
0
0
0
0
0
0
0
0
0
0
0
0
0
0
0
0
0
0
-5.330851646e-07
0
6.83815517e-07
1.383227417e-05
1.553805914e-05
-3.751987102e-05
-0.0002059418983
3.888848992e-05
0.0003791433261
-0.0001583022609
-0.00111509978
0.0001599201529
0.001398488343
-5.866723538e-05
-0.002201131971
5.752752564e-05
0.002415627421
0.0001967657713
-0.002776782957
-0.0001980852127
0.002789534485
0.0001109421264
-0.001395174484
-0.0001109276611
0.001395160019
-0.001403325832
0.0001319441571
-0.000131211385
0.00140259306
-0.002800579471
0.0002525862593
-0.0002547007653
0.002768344203
-2.987035518e-06
-0.00235100609
-7.629217422e-07
0.002122061664
-9.26727503e-05
-0.001293659747
9.371544473e-05
0.001009382618
-0.0003001296464
-1.20722095e-05
1.307079181e-05
0.0001457717579
0
0
0
0
0
0
0
0
0
0
0
0
0
0
0
0
0
0
0
0
0
0
0
0
0
0
0
0
0
0
0
0
0
-8.458003056e-07
0
1.078469608e-06
2.0720151e-05
2.300174726e-05
-4.232923275e-05
-0.0002308411692
4.373293835e-05
0.0004119544572
-0.0001642360437
-0.001163717275
0.0001658500286
0.001448929568
-5.540394693e-05
-0.002245574905
5.433460333e-05
0.002454483503
0.0002007283317
-0.002791227616
-0.0002015099427
0.002798381741
0.0001109296492
-0.001397861347
-0.0001104558383
0.000698275735
0.0006991118014
-0.001405806499
0.000129188283
-0.0001287120784
0.001405330294
-0.002804985955
0.0002512048451
-0.000248437649
0.002765976619
7.868376268e-07
-0.002330730259
-4.943527852e-07
0.002098772493
-9.224527213e-05
-0.00127165542
9.111442095e-05
0.0009911671447
-0.0002939308464
-1.243755989e-05
1.210860189e-05
0.0001422515424
0
0
0
0
0
0
0
0
0
0
0
0
0
0
0
0
0
0
0
0
0
0
0
0
0
0
0
0
0
0
0
0
0
-1.341235095e-06
0
1.660804858e-06
3.05734423e-05
3.341100405e-05
-4.816488178e-05
-0.0002614230918
4.973937039e-05
0.0004516721927
-0.0001706746246
-0.001221794608
0.000172312457
0.001509284964
-5.08347809e-05
-0.002300119904
4.953596844e-05
0.002503049972
0.0002039129906
-0.002813209244
-0.0002045534713
0.002816209573
0.0001104960456
-0.001407280258
-0.0001103371856
0.0007033670288
0.000703754369
-0.001411615679
0.0001274662502
-0.000127037128
0.001411186557
-0.002806659485
0.0002318679706
-0.000223765063
0.002737154991
-1.010819051e-05
-0.002217118565
3.482308545e-06
0.001988198539
-8.378254808e-05
-0.001156799657
8.059642681e-05
0.0008845265018
-0.0002322558623
-8.089772504e-06
7.162556073e-06
9.995202286e-05
0
0
0
0
0
0
0
0
0
0
0
0
0
0
0
0
0
0
0
0
0
0
0
0
0
0
0
0
0
0
0
0
0
-2.082414933e-06
0
2.248040929e-06
4.370122011e-05
4.515436185e-05
-5.492608429e-05
-0.0002966427635
5.696871855e-05
0.0004962584768
-0.0001773416318
-0.001283672747
0.0001791693932
0.00157266157
-4.500623161e-05
-0.00235474933
4.306499421e-05
0.002550750484
0.0002060581159
-0.002831413731
-0.0002061449944
0.002831705227
0.0001098343255
-0.001415295291
-0.0001098117857
0.0007072450904
0.0007080276612
-0.001414681001
0.0001257825692
-0.0001257301274
0.001414628559
-0.002769216268
0.000199811503
-0.000189736518
0.002658286991
-1.480520841e-05
-0.00207324258
3.179745169e-05
0.001805866241
-6.892251106e-05
-0.0009689804079
6.436263584e-05
0.0007124393098
-0.0001504195009
-3.333207073e-06
2.388087967e-06
4.920994997e-05
0
0
0
0
0
0
0
0
0
0
0
0
0
0
0
0
0
0
0
0
0
0
0
0
0
0
0
0
0
0
0
0
0
-3.553018226e-06
0
5.646840051e-06
6.654225734e-05
7.582014411e-05
-6.249910402e-05
-0.0003444255899
6.817465707e-05
0.0005506744815
-0.0001849560387
-0.001359848177
0.0001846697197
0.001650184608
-3.576268611e-05
-0.002422729257
4.187120854e-05
0.002605019633
0.00020662445
-0.002847273355
-0.0002058320771
0.001422817385
0.001423663596
5.471907076e-05
-0.0007106372108
-5.452619237e-05
0.0007104443325
5.124258928e-05
-0.0003536818903
-5.061450651e-05
0.0007070555916
-0.0003540017841
-0.00141583104
0.0001258474138
-0.0002540461335
0.002833804337
-0.001416382046
0.0001266074688
0.0001648458229
-0.002673842219
-0.0001451784558
0.002509486182
-4.290745886e-05
-0.001842582945
4.310325087e-05
0.001572765725
-4.940100038e-05
-0.0007638046065
4.443253338e-05
0.0005295486924
-6.07095794e-05
-1.386620693e-07
-4.487433149e-08
6.010601886e-06
0
0
0
0
0
0
0
0
0
0
0
0
0
0
0
0
0
0
0
0
0
0
0
0
0
0
0
0
0
0
0
0
0
-5.972237395e-06
0
4.555283514e-06
8.902031884e-05
8.145866837e-05
-7.677091622e-05
-0.000401925659
7.381960894e-05
0.0006286998704
-0.0001912873657
-0.001471132361
0.0001889874906
0.001765324804
-1.915947591e-05
-0.002513255094
2.492952009e-05
0.002682324631
0.0002083932475
-0.002863669326
-0.0002083932474
0.00143166379
0.001432005536
5.623333783e-05
-0.00143166379
-0.0001127519981
5.651866023e-05
0.0007153734877
0.0007162903025
0.0001218864784
-0.0007153735891
-0.0001218863262
0.00143166379
-0.0007162903532
-0.002863669326
0.0002624158912
-0.0002595619148
0.002854608023
0.000115661921
-0.002509361665
-0.0001080304659
0.002315879035
-3.889754338e-05
-0.001557915261
4.936821164e-05
0.001279474134
-2.85684758e-05
-0.0005194521004
1.985740268e-05
0.0003344055471
-8.214175945e-06
1.404188543e-07
-7.345524254e-08
0
0
0
0
0
0
0
0
0
0
0
0
0
0
0
0
0
0
0
0
0
0
0
0
0
0
0
0
0
0
0
0
0
0
-2.429361252e-06
0
7.269673104e-07
4.060961619e-05
2.53518892e-05
-5.361618623e-05
-0.0002877523426
4.447450269e-05
0.0004865557636
-0.0001672915845
-0.001280215425
0.000154815046
0.001571726823
-5.580464147e-05
-0.002353492004
6.642182505e-05
0.002548682645
0.0001828247059
-0.002864480502
-0.0001586397834
0.002884378638
0.000112751998
-0.00288045168
-0.0002266502806
0.00288045168
0.0001138982826
0.0002449134287
-0.00288045168
-0.0002449134287
0.00288045168
0.0002386627801
-0.002825071626
-0.000225387905
0.002740945014
7.029853591e-05
-0.002244249904
-5.913732198e-05
0.002011445096
-4.756096992e-05
-0.001219026679
4.349294314e-05
0.0009547776869
-8.582281065e-06
-0.0002942201296
7.525422524e-06
0.0001536722819
0
0
0
0
0
0
0
0
0
0
0
0
0
0
0
0
0
0
0
0
0
0
0
0
0
0
0
0
0
0
0
0
0
0
0
0
0
-1.539402221e-08
0
0
2.201654728e-07
0
-1.770683834e-05
-9.658042396e-05
1.085174374e-05
0.0002185880019
-0.0001044357306
-0.0008189057049
8.534955824e-05
0.001068489107
-8.261993368e-05
-0.001821413827
8.080616625e-05
0.00204203401
8.293497494e-05
-0.00252908904
-6.010097566e-05
0.002628791587
0.0002000191125
-0.002775747597
-0.000178357331
0.00278747371
0.0002274380736
-0.002738284344
-0.0002071308253
0.002688931694
0.0001650084935
-0.002400350685
-0.0001398400142
0.002251635656
2.532138694e-05
-0.001668430058
-1.610652861e-05
0.001443209471
-2.711410276e-05
-0.000762179473
2.094898436e-05
0.0005566993588
-1.1544227e-06
-0.0001033499731
2.039957176e-07
2.851229242e-05
0
0
0
0
0
0
0
0
0
0
0
0
0
0
0
0
0
0
0
0
0
0
0
0
0
0
0
0
0
0
0
0
0
0
0
0
0
0
0
0
0
0
-6.206628408e-07
-2.135917562e-07
7.516196639e-08
1.618517356e-05
-3.350298358e-05
-0.0002856929688
2.078712805e-05
0.0004374088732
-5.667645311e-05
-0.0009826974246
4.519493637e-05
0.00116890332
1.002138535e-05
-0.001649621982
-6.233895274e-07
0.001769728338
9.78608843e-05
-0.001984016178
-7.210983899e-05
0.002006314387
0.0001208941564
-0.001931993789
-9.133753993e-05
0.001862059929
6.580403745e-05
-0.001530737725
-4.591583368e-05
0.001386290243
1.51282426e-07
-0.0008957454235
1.368427791e-06
0.000727380758
-5.344342715e-06
-0.0002765962878
2.261820905e-06
0.0001621921633
1.711529906e-08
-7.085309032e-07
0
0
0
0
0
0
0
0
0
0
0
0
0
0
0
0
0
0
0
0
0
0
0
0
0
0
0
0
0
0
0
0
0
0
0
0
0
0
0
0
0
0
0
0
0
0
0
0
-1.394870967e-06
-7.12261038e-06
1.550432863e-07
3.326767179e-05
-1.417541441e-05
-0.0002342062634
7.405371757e-06
0.0003266687853
-8.406641474e-06
-0.0006104312222
7.119756383e-06
0.000692310014
1.749434952e-05
-0.0008555318493
-8.224481787e-06
0.0008767949392
2.577134141e-05
-0.000835912183
-1.383638944e-05
0.000789912393
9.736229171e-06
-0.0005784531479
-4.727482959e-06
0.0004918064142
-3.391210246e-07
-0.0002275467036
-1.566121904e-07
0.0001503316271
1.120357575e-07
-8.755177451e-06
-4.537384575e-10
9.463955038e-08
0
0
0
0
0
0
0
0
0
0
0
0
0
0
0
0
0
0
0
0
0
0
0
0
0
0
0
0
0
0
0
0
0
0
0
0
0
0
0
0
0
0
0
0
0
0
0
0
0
0
0
0
0
0
-2.082908644e-08
0
0
1.159857892e-06
-1.049029343e-06
-3.191889901e-05
1.47607398e-07
4.947739248e-05
-3.841663726e-07
-9.621369533e-05
2.397803992e-07
0.0001043129952
5.798642818e-07
-9.639541022e-05
-6.903791305e-08
8.393747966e-05
2.387135857e-07
-3.328987967e-05
-2.31604826e-08
1.836166953e-05
0
0
0
0
0
0
0
0
0
0
0
0
0
0
0
0
0
0
0
0
0
0
0
0
0
0
0
0
0
0
0
0
0
0
0
0
0
0
0
0
0
0
0
0
0
0
0
0
0
0
0
0
0
0
0
0
0
0
0
0
0
0
0
0
0
0
0
0
0
0
0
0
0
0
0
0
0
0
0
0
0
0
0
0
0
0
0
0
0
0
0
0
0
0
0
0
0
0
0
0
0
0
0
0
0
0
0
0
0
0
0
0
0
0
0
0
0
0
0
0
0
0
0
0
0
0
0
0
0
0
0
0
0
0
0
0
0
0
0
0
0
0
0
0
0
0
0
0
0
0
0
0
0
0
0
0
0
0
0
0
0
0
0
0
0
0
0
0
0
0
0
0
0
0
0
0
0
0
0
0
0
0
0
0
0
0
0
0
0
0
0
0
0
0
0
0
0
0
0
0
0
0
0
0
0
0
0
0
0
0
0
0
0
0
0
0
0
0
0
0
0
0
0
0
0
0
0
0
0
0
0
0
0
0
0
0
0
0
0
0
0
0
0
0
0
0
0
0
0
0
0
0
0
0
0
0
0
0
0
0
0
0
0
0
0
0
0
0
0
0
0
0
0
0
0
0
0
0
0
0
0
0
0
0
0
0
0
0
0
0
0
0
0
0
0
0
0
0
0
0
0
0
0
0
0
0
0
0
0
0
0
0
0
0
0
0
0
0
0
0
0
0
0
0
0
0
0
0
0
0
0
0
0
0
0
0
0
0
0
0
0
0
0
0
0
0
0
0
0
0
0
0
0
0
0
0
0
0
0
0
0
0
0
0
0
0
0
0
0
0
0
0
0
0
0
0
0
0
0
0
0
0
0
0
0
0
0
0
0
0
0
0
0
0
0
0
0
0
0
0
0
0
0
0
0
0
0
0
0
0
0
0
0
0
0
0
0
0
0
0
0
0
0
0
0
0
0
0
0
0
0
0
0
0
0
0
0
0
0
0
0
0
0
0
0
0
0
0
0
0
0
0
0
0
0
0
0
0
0
0
0
0
0
0
0
0
0
0
0
0
0
0
0
0
0
0
0
0
0
0
0
0
0
0
0
0
0
0
0
0
0
0
0
0
0
0
0
0
0
0
0
0
0
0
0
0
0
0
0
0
0
0
0
0
0
0
0
0
0
0
0
0
0
0
0
0
0
0
0
0
0
0
0
0
0
0
0
0
0
0
0
0
0
0
0
0
0
0
0
0
0
0
0
0
0
0
0
0
0
0
0
0
0
0
0
0
0
0
0
0
0
0
0
0
0
0
0
0
0
0
0
0
0
0
0
0
0
0
0
0
0
0
0
0
0
0
0
0
0
0
0
0
0
0
0
0
0
0
0
0
0
0
0
0
0
0
0
0
0
0
0
0
0
0
0
0
0
0
0
0
0
0
0
0
0
0
0
0
0
0
0
0
0
0
0
0
0
0
0
0
0
0
0
0
0
0
0
0
0
0
0
0
0
0
0
0
0
0
0
0
0
0
0
0
0
0
0
0
0
0
0
0
0
0
0
0
0
0
0
0
0
0
0
0
0
0
0
0
0
0
0
0
0
0
0
0
0
0
0
0
0
0
0
0
0
0
0
0
0
0
0
0
0
0
0
0
0
0
0
0
0
0
0
0
0
0
0
0
0
0
0
0
0
0
0
0
0
0
0
0
0
0
0
0
0
0
0
0
0
0
0
0
0
0
0
0
0
0
0
0
0
0
0
0
0
0
0
0
0
0
0
0
0
0
0
0
0
0
0
0
0
0
0
0
0
0
0
0
0
0
0
0
0
0
0
0
0
0
0
0
0
0
0
0
0
0
0
0
0
0
0
0
0
0
0
0
0
0
0
0
0
0
0
0
0
0
0
0
0
0
0
0
0
0
0
0
0
0
0
0
0
0
0
0
0
0
0
0
0
0
0
0
0
0
0
0
0
0
0
0
0
0
0
0
0
0
0
0
0
0
0
0
0
0
0
0
0
0
0
0
0
0
0
0
0
0
0
0
0
0
0
0
0
0
0
0
0
0
0
0
0
0
0
0
0
0
0
0
0
0
0
0
0
0
0
0
0
0
0
0
0
0
0
0
0
0
0
0
0
0
0
0
0
0
0
0
0
0
0
0
0
0
0
0
0
0
0
0
0
0
0
0
0
0
0
0
0
0
0
0
0
0
0
0
0
0
0
0
0
0
0
0
0
0
0
0
0
0
0
0
0
0
0
0
0
0
0
0
0
0
0
0
0
0
0
0
0
0
0
0
0
0
0
0
0
0
0
0
0
0
0
0
0
0
0
0
0
0
0
0
0
0
0
0
0
0
0
0
0
0
0
0
0
0
0
0
0
0
0
0
0
0
0
0
0
0
0
0
0
0
0
0
0
0
0
0
0
0
0
0
0
0
0
0
0
0
0
0
0
0
0
0
0
0
0
0
0
0
0
0
0
0
0
0
0
0
0
0
0
0
0
0
0
0
0
0
0
0
0
0
0
0
0
0
0
0
0
0
0
0
0
0
0
0
0
0
0
0
0
0
0
0
0
0
0
0
0
0
0
0
0
0
0
0
0
0
0
0
0
0
0
0
0
0
0
0
0
0
0
0
0
0
0
0
0
0
0
0
0
0
0
0
0
0
0
0
0
0
0
0
0
0
0
0
0
0
0
0
0
0
0
0
0
0
0
0
0
0
0
0
0
0
0
0
0
0
0
0
0
0
0
0
0
0
0
0
0
0
0
0
0
0
0
0
0
0
0
0
0
0
0
0
0
0
0
0
0
0
0
0
0
0
0
0
0
0
0
0
0
0
0
0
0
0
0
0
0
0
0
0
0
0
0
0
0
0
0
0
0
0
0
0
0
0
0
0
0
0
0
0
0
0
0
0
0
0
0
0
0
0
0
0
0
0
0
0
0
0
0
0
0
0
0
0
0
0
0
0
0
0
0
0
0
0
0
0
0
0
0
0
0
0
0
0
0
0
0
0
0
0
0
0
0
0
0
0
0
0
0
0
0
0
0
0
0
0
0
0
0
0
0
0
0
0
0
0
0
0
0
0
0
0
0
0
0
0
0
0
0
0
0
0
0
0
0
0
0
0
0
0
0
0
0
0
0
0
0
0
0
0
0
0
0
0
0
0
0
0
0
0
0
0
0
0
0
0
0
0
0
0
0
0
0
0
0
0
0
0
0
-0.001396267511
0.001396317352
0.0001108922859
-0.000132589405
0.001400129081
0.0001333894395
-0.0007018040353
-0.0006991250805
0.0001460133794
-0.001409526405
-0.0001399305574
-0.001396921296
0.000111272949
0.0006985531318
0.0006980248638
-0.0001273267052
0.001406500431
0.000128002678
-0.0007036098409
-0.000703566563
-0.0001302138787
-0.0007030704792
-0.0007026308792
-0.001406133042
0.0001107151897
0.0007029944654
0.0007029194321
-0.0001262193725
0.001409437969
0.0001252635155
-0.0007040919678
-0.0007043901444
-0.0001268559871
-0.0007023586479
-0.0007039185689
-0.001413884801
0.0001101196686
0.0007067372478
0.0007068622105
-0.0001233323542
0.001413082205
0.0001241914553
-0.001413941306
-0.001412229237
-0.0001256058148
-0.0007110518211
0.0007110573297
5.47135622e-05
0.0003543754644
-2.573068779e-05
2.585806469e-05
-0.0003545028413
-0.0003542907128
0.0007078602227
5.204854385e-05
-0.0001234485841
0.001416575535
0.0001232841235
-0.001416411074
-0.001414940839
-0.0001230725161
-0.0007157863635
0.0007157863635
5.623333783e-05
0.0007157866455
-6.051575874e-05
6.051653052e-05
-0.0007157874172
-0.0003541420595
-2.527051861e-05
0.00143065638
-0.0006501615078
2.307110382e-05
3.410714774e-05
-0.0002314829523
0.002824307706
-0.0014259681
-0.00141648543
0.0001251343169
0.0001244944585
-0.00141563667
-0.0001236429547
-0.001414454473
0.001413861285
0.0001061240118
0.0001200406793
-0.001364714979
-0.0001198021574
0.00140936973
0.0001438297217
-0.001407186072
0.0001571815783
-0.001394781343
-0.0001678681213
-3.164798141e-05
0.000353464634
3.180011498e-05
-0.0003536167676
0.0007125103718
7.335444788e-05
-0.0007145390528
-7.132576695e-05
0.001399568166
0.0001325050719
-0.0002779064092
0.002791905386
0.0002813416634
-0.00279609192
0.0002820856333
-0.002789085893
-0.000277888671
-0.002786334756
0.002794603106
0.0001999957948
-0.0001098206918
0.0001098990997
-0.001396999703
0.0001098613681
-0.001395054529
-0.0001099813238
-3.534480568e-05
0.0003511095949
3.509653527e-05
-0.0003508613245
3.130353871e-05
0.0003514095471
-0.0003513250811
-3.138800473e-05
0.001406160699
0.0001295280155
-0.0002738076869
0.002807130605
0.0002749717962
-0.0028084474
-0.002802137923
-0.000276606586
-0.002808475229
0.002812353327
0.0002032240352
-0.0001095597152
0.000109638052
-0.001406211378
-0.001397944679
-0.0001097373603
-0.0001105195886
-0.001402651843
0.000110613308
0.0007010253224
0.0007015328012
-5.714833722e-05
0.0003509045335
5.695710578e-05
-0.0007015790437
0.0003508657417
5.713703801e-05
0.0003485567066
-0.000697971195
-5.683639116e-05
0.0003491138416
-3.052133984e-05
0.0003526956832
3.069662147e-05
-0.0003528709648
3.27010006e-05
0.000351483182
-0.0003506600051
-3.352417757e-05
0.001409581122
0.0001273230978
-0.0002649663953
0.002805839425
0.0002687638296
-0.002815076061
-0.002806817573
-0.0002724701091
-0.002826308585
0.002827288799
0.000205702559
-0.0001091820261
0.0001092599926
-0.001413962768
-0.001407298025
-0.0001095419485
-0.0001106563617
-0.00141040098
0.0001104170135
0.0007052900537
0.0007053502742
-2.870385453e-05
0.0003524886719
2.885429492e-05
-0.0003526391123
5.633336075e-05
0.0003514935039
-0.0007033127292
-5.635293577e-05
0.0003518388003
-5.917547489e-05
0.000705655763
5.94396171e-05
-0.0007059199052
6.045674963e-05
0.0007058685525
-5.894961876e-05
-0.000354084083
-0.0003532916004
-0.002843582673
0.0002062155618
0.001421483092
0.00142250847
-0.0001088352147
0.0007114045606
0.0001089728656
-0.001422594033
-0.001415368423
-0.0001091088949
-5.477523255e-05
-0.0007096981673
0.0007097597743
5.471362559e-05
-3.16182823e-05
0.0003559619638
3.102312516e-05
-0.0003553668067
3.024605355e-05
0.0003526332527
-0.0003529599478
-2.991935844e-05
-0.0003574737446
-2.810624628e-05
0.0003562606454
2.931934539e-05
-5.804528513e-05
0.0007084761741
5.783449364e-05
-0.0007082653826
5.876735167e-05
0.0007073255209
-0.0007073019675
-5.879090509e-05
-0.002837439434
0.0002115344632
0.001403641838
0.00143065638
-0.000111615554
0.0007148700166
0.000111615554
-0.00143065638
0.0007122577274
-0.001422873487
-0.0001088566656
-5.475636712e-05
-0.0007130376324
0.0007129715065
5.482249304e-05
-2.904567312e-05
0.0003525191892
3.05327656e-05
-0.0003540062816
3.256730995e-05
0.000352498456
-0.0003533441615
-3.172160444e-05
-0.001438714725
0.001438714725
0.0001127519981
0.001438714725
-0.000120744945
0.0001207449451
-0.001438714725
-0.0007153740146
-6.051533327e-05
5.746534068e-05
-0.0006985555659
-5.6937002e-05
0.0003485797987
0.0003494474285
-5.819104769e-05
-0.0006977425863
5.798232248e-05
0.0003495048835
0.000348446428
-0.0007122254622
4.440087765e-05
-4.29535454e-05
0.0007107781299
-0.0007002379937
0.0007007762003
5.69271341e-05
0.0003515306817
3.118064018e-05
-0.0003514077832
0.0003524907509
-0.0003528058716
-3.133286072e-05
0.0001359327832
0.001403281382
-0.0001343791502
-0.0007038268571
-0.000701008158
6.649510499e-05
-0.0003516041663
-6.521205902e-05
0.0007028118713
-3.148719008e-05
0.0003515978927
3.141997904e-05
0.000348338867
5.749229698e-05
-0.0006977205109
0.0003490263849
0.0006971132238
5.712043113e-05
-0.0006971932834
-5.704037147e-05
0.0001110646355
-0.00139556397
-0.0001109858713
0.001395485206
5.741835056e-05
-5.690086511e-05
0.0003483236272
0.0003482721111
-2.891899702e-05
0.0003483230181
2.893484592e-05
-0.0006970406755
-5.785879461e-05
0.0003483165074
0.000348391915
-0.0006975487261
5.736295396e-05
0.0003489755824
0.0003486285403
0.0003508132068
3.180640313e-05
-0.0003499186093
0.0003522827245
-0.0003518094811
-3.581804909e-05
6.476830216e-05
0.0007034510576
-0.0007035923972
-6.46269626e-05
3.470020361e-05
-3.481498722e-05
0.0003523975081
-3.20954637e-05
0.0003513370066
3.157166391e-05
-3.150520001e-05
0.0003514275571
0.0003513516078
3.445819067e-05
0.0007022405351
6.477425923e-05
-0.0007022464922
0.0003512498392
5.669137176e-05
-0.0007026388449
0.0003510309946
0.0003513522899
-0.0007023721922
-5.748028413e-05
0.0003513518492
-0.001404185899
-0.0001108269345
0.0007022509031
0.0007022423419
2.947922626e-05
-2.959571826e-05
0.0003514687819
-2.80715592e-05
0.0003511008943
2.822050415e-05
-2.881227082e-05
0.0003484499804
0.0003512539432
2.912981654e-05
0.0007047256484
6.030855248e-05
-0.0003523181361
-0.0003522593151
0.0003525752472
-0.0003524963198
-3.060026716e-05
0.0001251999907
0.001406997477
-0.0001254256319
-0.0007029527523
-0.0007038190833
6.130602788e-05
-0.0003516048349
-6.075663475e-05
0.0007036306889
-6.061161957e-05
0.0007046408739
6.069639403e-05
-3.260889634e-05
0.0003519966147
-0.0003521104775
0.0007040784793
3.07991607e-05
3.123454856e-05
0.001406709722
0.0001263925781
-0.0007039280485
-0.0007039742606
0.0003526289659
3.047392901e-05
-0.0003528568414
0.0003524865611
-0.0003525810966
-2.860931903e-05
-0.001410373237
-0.000110174817
0.0007051431161
0.0007047485766
2.923894236e-05
-2.886896277e-05
0.0003521165815
-3.160954636e-05
0.0003521492829
3.208922935e-05
-2.802862406e-05
0.0003514505687
0.0003522508219
2.947679235e-05
0.0007075457639
5.881806477e-05
-0.000707596477
0.0007064017483
-0.0007063827795
-5.919444366e-05
0.0003544951789
3.310131944e-05
-0.0003550291884
0.0003547853728
-0.0003549890428
-3.141461235e-05
-0.0007097523143
-5.47758581e-05
0.0007097529398
2.558032082e-05
0.0003546687936
-0.0003532906281
-2.695848633e-05
3.293155027e-05
-3.250637619e-05
0.0003543601987
-3.185417075e-05
0.0003533984256
3.295092411e-05
-3.102880574e-05
0.0003520525121
0.0003564288589
3.246465522e-05
2.786522182e-05
-0.0003597586456
-0.0001166858886
0.001415335683
0.0001161999773
-0.0007070925349
-0.0007077572365
0.0007080661589
-0.0007078094357
-5.83020084e-05
-2.809428861e-05
0.000354656836
0.0007218728804
-5.611684056e-05
-0.0007183270314
2.568028361e-05
2.689070789e-05
0.0003524759008
-0.0003534480866
-2.807348733e-05
-0.0007130043974
-5.462869484e-05
0.0007128767252
4.578571299e-05
0.0007024735792
-0.0007029002533
-4.535903887e-05
2.400720104e-05
-2.353481217e-05
0.0003520035119
-5.837367456e-05
0.0007222373813
2.681111342e-05
3.119806032e-05
-3.077103938e-05
0.0003514153246
2.505506566e-05
0.0003514713245
0.0007027058651
4.668784552e-05
-0.0007036079976
-0.002773192412
0.002789041541
0.0001944022867
0.0001097466772
-0.00139615282
0.0001049049683
-0.001413907947
-0.0001068499926
-0.0001093391016
-0.001401253864
0.001401138171
0.0001094547943
-5.689201704e-05
5.67956442e-05
-0.0007001416209
5.314016454e-05
-0.0007142417278
-5.112389888e-05
-6.760475642e-05
0.0003495802902
1.060236501e-05
-0.0002925778988
0.0003663179981
4.035436083e-05
-0.0003713671416
-3.530521734e-05
-0.001395328479
0.001395439054
0.0001109540605
5.715600933e-05
-0.0006975843044
5.729509285e-05
-0.000697040768
-5.729500035e-05
-0.0001249447733
0.0003566033476
5.914582264e-05
-0.000290804397
0.001412727749
0.0001261370256
-0.0002449488041
0.002784660414
0.0002520014252
-0.0028262516
-0.00281912919
-0.0002624189043
-0.0001237745252
0.0003555246686
5.66216888e-05
-0.0002883718322
-5.653272172e-05
0.0007077874628
5.701743746e-05
-0.0003541389353
-0.0003541332432
2.865390977e-05
0.0003536709451
-0.0003536039099
-2.872094494e-05
-4.911699091e-05
0.0007023706035
4.945225248e-05
-0.0001245819496
0.001413895025
0.0001212049339
-0.001410518009
0.001414831377
-0.0001172919826
-0.0007069261731
-0.0007072991095
5.725452532e-05
-0.0006977020187
-0.00069859333
-5.685425298e-05
-0.001393729013
-0.0001102232512
0.001394613163
2.518961323e-05
-0.0003472441413
-2.570225535e-05
0.0003477567834
-0.0003674742066
1.536574471e-05
-2.024157301e-05
0.0003723500349
-0.0003553626205
-2.481696764e-05
0.0003555557257
2.462386237e-05
7.793400337e-05
-7.196478258e-05
0.000706541151
-0.0003521976972
0.0007041520981
6.800533811e-05
0.001401612255
0.0001333550198
-0.0007000079626
-0.0006990265293
0.0003542540365
2.894180888e-05
-0.0003545419356
3.304935412e-05
0.0003542393892
-0.0003553930778
-3.18956655e-05
0.0001250558833
0.001411069684
-0.001411495792
-0.0001246297751
6.001415025e-05
-5.976373415e-05
0.0007061513322
-5.937366838e-05
0.0007073843359
5.953509642e-05
-6.015435199e-05
0.0007054112849
0.0007056857077
5.998420555e-05
0.001412186073
0.0001251537232
-0.001412283913
2.982703081e-05
0.000355403824
-0.0003567965778
-2.8434277e-05
-0.0003513406163
-3.197350835e-05
0.0003515128512
3.180127346e-05
-4.787972832e-05
0.0007056497088
4.811363491e-05
-0.0003525887215
-0.0003532948939
0.0006846507824
5.910169716e-05
-0.0006846600768
-5.90924027e-05
-0.001463709134
8.390622189e-05
-2.090913927e-05
-3.884537651e-05
0.0007140663357
0.0007254910925
-0.0007058377485
0.0007199569327
3.028169338e-05
0.0007107948594
7.444292701e-05
-0.0007118833385
0.0014396836
0.0001766541624
-0.0007221762475
-0.0006937114389
-8.735422573e-05
-0.0001130958504
7.373721434e-05
-7.48564262e-05
0.0006857699942
0.0004414485293
-0.0005090532857
6.75070421e-05
0.0007082653194
-6.605621893e-05
-0.0003545968513
-0.0003551192912
3.859444329e-05
4.471560279e-05
0.0003581384832
3.622479861e-05
-3.371999727e-05
0.0003638131967
0.0003576691553
3.050557822e-05
0.0007056699009
6.537953361e-05
-0.0003523011599
-0.0003512412325
3.072362513e-05
0.0003511581837
-0.0003512002193
-3.068158951e-05
0.0003516905057
3.085159067e-05
-0.0003518184713
3.004272231e-05
0.0003530196552
-0.0003528524544
-3.020992311e-05
0.0003540714761
3.056937616e-05
-0.00035459813
0.0003522669088
-3.314991665e-05
3.032695089e-05
-0.0003494439431
0.0003626140275
-0.0004639937333
-2.356506743e-05
5.981688763e-05
0.0007048208691
-0.0007047901077
-5.984764906e-05
3.665406374e-05
-3.114315323e-05
0.000357103117
-3.294908827e-05
0.0003530524336
3.216356356e-05
3.276874256e-05
-5.819523244e-05
0.0003487289778
-0.0003233024879
0.000354376135
3.888127631e-05
0.0007051514323
5.988174615e-05
-0.0003525264103
-0.0003526898805
0.0003537704974
2.736054849e-05
-0.0003540802168
-2.705082904e-05
5.538632782e-05
-0.0007081866811
-5.53008535e-05
0.0007081012068
-5.528195675e-05
-0.0007096097156
0.000709666
5.522567232e-05
-5.533389219e-05
0.0007080110035
5.554878351e-05
-0.0007082258948
0.0007077493563
-5.602435707e-05
-0.0003542709412
-0.0003539867798
-0.0004631652104
-2.283725028e-05
0.0003622279355
2.465550677e-05
0.0003545099259
-0.0003554562394
-2.370919326e-05
5.462458386e-05
-0.0007120168622
-5.458362864e-05
0.000711975907
-5.459362182e-05
-0.0007128953586
5.495010092e-05
0.0003562349307
0.0003563039488
5.501721125e-05
-0.00071029376
-5.477416972e-05
0.0007100507185
-0.0007116944216
0.000711593437
5.472556847e-05
0.000352992738
2.577562694e-05
-0.0003541128581
-0.0003616992455
2.239295855e-05
-0.0001221048807
0.0004614111677
-0.0003455925452
2.56311161e-05
0.0003451510424
-5.707776913e-05
-0.0006985443723
5.739185673e-05
0.000348573711
0.0003496565738
-2.836370564e-05
2.942540246e-05
-0.0003466542421
2.870368353e-05
-0.0003567448981
-3.365803097e-05
-3.244960354e-05
5.523079367e-05
-0.0003502451299
0.0003274639397
-0.000348102111
-2.750573593e-05
-0.0006994004442
-5.781137363e-05
0.0003504378156
0.0003496962332
-5.528057384e-05
-0.0007126876193
0.0007131831036
5.478508952e-05
-2.772273242e-05
2.809092509e-05
-0.0003557308131
7.784569383e-06
-0.0003565306989
-1.872807707e-05
0.0003562404266
2.687555105e-05
-0.0003544122942
0.0003553594849
-0.0003551326707
-2.794954671e-05
-0.000707272642
-5.576106733e-05
0.0007077531355
-2.719536471e-05
0.000357737882
0.0003554344631
2.31989221e-05
3.222342428e-05
0.0003523268448
-0.0003515680031
-3.298226591e-05
0.0003514055121
3.231374406e-05
-0.0003514958319
-2.905818146e-05
-0.0003489364142