/*--------------------------------*- C++ -*----------------------------------*\
| =========                 |                                                 |
| \\      /  F ield         | OpenFOAM: The Open Source CFD Toolbox           |
|  \\    /   O peration     | Version:  v1912                                 |
|   \\  /    A nd           | Website:  www.openfoam.com                      |
|    \\/     M anipulation  |                                                 |
\*---------------------------------------------------------------------------*/
FoamFile
{
    version     2.0;
    format      ascii;
    class       pointVectorField;
    location    "1.07";
    object      pointDisplacement;
}
// * * * * * * * * * * * * * * * * * * * * * * * * * * * * * * * * * * * * * //

dimensions      [0 1 0 0 0 0 0];


internalField   nonuniform List<vector> 
26316
(
(0 0 0)
(0 0 0)
(0 0 0)
(0 0 0)
(0 0 0)
(0 0 0)
(0 0 0)
(0 0 0)
(0 0 0)
(0 0 0)
(0 0 0)
(0 0 0)
(0 0 0)
(0 0 0)
(0 0 0)
(0 0 0)
(0 0 0)
(0 0 0)
(0 0 0)
(0 0 0)
(0 0 0)
(0 0 0)
(0 0 0)
(0 0 0)
(0 0 0)
(0 0 0)
(0 0 0)
(0 0 0)
(0 0 0)
(0 0 0)
(0 0 0)
(0 0 0)
(0 0 0)
(0 0 0)
(0 0 0)
(0 0 0)
(0 0 0)
(0 0 0)
(0 0 0)
(0 0 0)
(0 0 0)
(0 0 0)
(0 0 0)
(0 0 0)
(0 0 0)
(0 0 0)
(0 0 0)
(0 0 0)
(0 0 0)
(0 0 0)
(0 0 0)
(0 0 0)
(0 0 0)
(0 0 0)
(0 0 0)
(0 0 0)
(0 0 0)
(0 0 0)
(0 0 0)
(0 0 0)
(0 0 0)
(0 0 0)
(0 0 0)
(0 0 0)
(0 0 0)
(0 0 0)
(0 0 0)
(0 0 0)
(0 0 0)
(0 0 0)
(0 0 0)
(0 0 0)
(0 0 0)
(0 0 0)
(0 0 0)
(0 0 0)
(0 0 0)
(0 0 0)
(0 0 0)
(0 0 0)
(0 0 0)
(0 0 0)
(0 0 0)
(0 0 0)
(0 0 0)
(0 0 0)
(0 0 0)
(0 0 0)
(0 0 0)
(0 0 0)
(0 0 0)
(0 0 0)
(0 0 0)
(0 0 0)
(0 0 0)
(0 0 0)
(0 0 0)
(0 0 0)
(0 0 0)
(0 0 0)
(0 0 0)
(0 0 0)
(0 0 0)
(0 0 0)
(0 0 0)
(0 0 0)
(0 0 0)
(0 0 0)
(0 0 0)
(0 0 0)
(0 0 0)
(0 0 0)
(0 0 0)
(0 0 0)
(0 0 0)
(0 0 0)
(0 0 0)
(0 0 0)
(0 0 0)
(-1.000696188e-06 8.08442533e-06 2.775557562e-17)
(0 0 0)
(0 0 0)
(-5.507412835e-07 9.055724384e-05 3.330669074e-16)
(2.550345989e-06 7.698052273e-05 2.91433544e-16)
(0 0 0)
(0 0 0)
(0 0 0)
(0 0 0)
(0 0 0)
(0 0 0)
(0 0 0)
(0 0 0)
(0 0 0)
(0 0 0)
(0 0 0)
(0 0 0)
(0 0 0)
(0 0 0)
(0 0 0)
(0 0 0)
(0 0 0)
(0 0 0)
(0 0 0)
(0 0 0)
(0 0 0)
(0 0 0)
(0 0 0)
(0 0 0)
(0 0 0)
(0 0 0)
(0 0 0)
(0 0 0)
(0 0 0)
(0 0 0)
(0 0 0)
(0 0 0)
(0 0 0)
(0 0 0)
(0 0 0)
(0 0 0)
(0 0 0)
(0 0 0)
(0 0 0)
(0 0 0)
(0 0 0)
(0 0 0)
(0 0 0)
(0 0 0)
(0 0 0)
(0 0 0)
(0 0 0)
(0 0 0)
(0 0 0)
(0 0 0)
(0 0 0)
(0 0 0)
(0 0 0)
(0 0 0)
(0 0 0)
(0 0 0)
(0 0 0)
(0 0 0)
(0 0 0)
(0 0 0)
(0 0 0)
(-6.234022079e-05 0.0001115854519 4.996003611e-16)
(-0.000358641679 0.0007000552448 3.080868893e-15)
(-4.691610418e-06 9.542611279e-06 4.163336342e-17)
(-0.0006801884392 0.001898124032 8.021361353e-15)
(-0.001685360586 0.00452888389 1.994238108e-14)
(-0.001995900596 0.006135487554 2.702005286e-14)
(-0.0009336510049 0.002976240174 1.257327575e-14)
(-0.001128249757 0.006272324688 2.649269693e-14)
(-0.001963328733 0.0106005445 4.668487819e-14)
(-0.00162490215 0.01171186426 5.156985949e-14)
(-0.0009665364045 0.00713773072 3.014255512e-14)
(-2.249082714e-05 0.008344724801 3.526345882e-14)
(-2.852175497e-06 0.01322997629 5.830058658e-14)
(0.0005959380126 0.01305600952 5.755118604e-14)
(0.0003388883619 0.00820689182 3.469446952e-14)
(0.001085260695 0.006288858292 2.658984144e-14)
(0.001934889806 0.01061153394 4.680977828e-14)
(0.002110355741 0.009270885773 4.089784067e-14)
(0.00113777847 0.00526432139 2.225997164e-14)
(0.0006658997688 0.001921104766 8.118505868e-15)
(0.001655808595 0.004560738117 2.012279232e-14)
(0.00124392761 0.003047618944 1.344757639e-14)
(0.0003887034022 0.0009962099542 4.218847494e-15)
(0 0 0)
(6.54053801e-05 0.0001201627639 5.273559367e-16)
(0 0 0)
(0 0 0)
(0 0 0)
(0 0 0)
(0 0 0)
(0 0 0)
(0 0 0)
(0 0 0)
(0 0 0)
(0 0 0)
(0 0 0)
(0 0 0)
(0 0 0)
(0 0 0)
(0 0 0)
(0 0 0)
(0 0 0)
(0 0 0)
(0 0 0)
(0 0 0)
(0 0 0)
(0 0 0)
(0 0 0)
(0 0 0)
(0 0 0)
(0 0 0)
(0 0 0)
(0 0 0)
(0 0 0)
(0 0 0)
(0 0 0)
(0 0 0)
(0 0 0)
(0 0 0)
(0 0 0)
(0 0 0)
(0 0 0)
(0 0 0)
(0 0 0)
(0 0 0)
(0 0 0)
(0 0 0)
(0 0 0)
(0 0 0)
(0 0 0)
(0 0 0)
(-0.0001741033341 0.0001941681474 1.026956298e-15)
(-0.0009506450347 0.001131605141 6.022959909e-15)
(-0.0002252776718 0.0002817635476 1.429412144e-15)
(-0.003205012063 0.005030559974 2.541022948e-14)
(-0.005117652547 0.007665956733 4.067579606e-14)
(-0.006513167227 0.01068188483 5.662137426e-14)
(-0.004397779129 0.007550405825 3.810840532e-14)
(-0.00677167874 0.01617493267 8.15042478e-14)
(-0.008922103901 0.02042159762 1.080663337e-13)
(-0.008921082278 0.02349464306 1.243172232e-13)
(-0.006923141285 0.01900253881 9.57289803e-14)
(-0.005265328199 0.02598438153 1.310063169e-13)
(-0.006478123314 0.03089231486 1.636607516e-13)
(-0.004996886501 0.03254799851 1.725702914e-13)
(-0.004114796899 0.02758255036 1.391525783e-13)
(0.0002939031888 0.02966117816 1.500050084e-13)
(0.0004758292942 0.03465963782 1.84366411e-13)
(0.002375131147 0.03438055012 1.830896545e-13)
(0.001838425832 0.02940150496 1.488253965e-13)
(0.005670950334 0.02587477053 1.312838727e-13)
(0.007181428993 0.03069619977 1.639660629e-13)
(0.008248016096 0.02859290622 1.528360771e-13)
(0.006468643566 0.02387345575 1.211808431e-13)
(0.006857185108 0.01613113026 8.192058143e-14)
(0.009143257934 0.02029328995 1.08565934e-13)
(0.008622687207 0.01710470399 9.148237723e-14)
(0.006300936369 0.01323420588 6.719624857e-14)
(0.003192534685 0.005076713906 2.57294186e-14)
(0.005112995942 0.007700466096 4.110600749e-14)
(0.003608434808 0.005030567746 2.683964162e-14)
(0.002001368325 0.0029433422 1.490474411e-14)
(0 0 0)
(0.000172869861 0.0001962415877 1.040834086e-15)
(0 0 0)
(0 0 0)
(0 0 0)
(0 0 0)
(0 0 0)
(0 0 0)
(0 0 0)
(0 0 0)
(0 0 0)
(0 0 0)
(0 0 0)
(0 0 0)
(0 0 0)
(0 0 0)
(0 0 0)
(0 0 0)
(0 0 0)
(0 0 0)
(0 0 0)
(0 0 0)
(0 0 0)
(0 0 0)
(0 0 0)
(0 0 0)
(0 0 0)
(0 0 0)
(0 0 0)
(0 0 0)
(0 0 0)
(0 0 0)
(0 0 0)
(0 0 0)
(0 0 0)
(0 0 0)
(0 0 0)
(0 0 0)
(0 0 0)
(0 0 0)
(0 0 0)
(-7.491024685e-05 5.541971106e-05 3.747002708e-16)
(0 0 0)
(-0.003184181876 0.003009726083 1.892930257e-14)
(-0.004729975509 0.004195815106 2.81163981e-14)
(-0.007390593249 0.007028655988 4.696243394e-14)
(-0.005430831744 0.00549424291 3.450018049e-14)
(-0.01232468395 0.01580715972 9.875433804e-14)
(-0.01493490148 0.01806581655 1.199318422e-13)
(-0.0166374975 0.02209394928 1.464522947e-13)
(-0.01402072339 0.01973179257 1.230959779e-13)
(-0.01570696977 0.03104822147 1.933592175e-13)
(-0.01786294439 0.03334770116 2.207123373e-13)
(-0.01693341489 0.03646905216 2.414873856e-13)
(-0.0150414001 0.03429422597 2.136485433e-13)
(-0.009917393863 0.04150246573 2.593758541e-13)
(-0.01090578894 0.04315584162 2.869232629e-13)
(-0.008121686529 0.04446498593 2.962213808e-13)
(-0.007432938471 0.04298109515 2.6906255e-13)
(0.001089805419 0.04469495344 2.814554145e-13)
(0.001246249192 0.04589413568 3.078787225e-13)
(0.004428577784 0.04560203665 3.06671355e-13)
(0.003995919028 0.04439456531 2.801509025e-13)
(0.01171944057 0.04092476688 2.597644322e-13)
(0.01302509337 0.04243143526 2.872979632e-13)
(0.01528363041 0.04056596971 2.751965322e-13)
(0.0136757262 0.03890730905 2.473299343e-13)
(0.016595884 0.03044653826 1.940531069e-13)
(0.01900330196 0.03250961082 2.212952044e-13)
(0.01900179594 0.0291090652 1.981886877e-13)
(0.01641488319 0.0269638011 1.718625242e-13)
(0.01241486693 0.01552999866 9.878209362e-14)
(0.01549112836 0.01800164055 1.225131108e-13)
(0.01332187158 0.01433512704 9.756084829e-14)
(0.01054871781 0.0121928086 7.753520048e-14)
(0.00364058797 0.003450441805 2.187139359e-14)
(0.005443768917 0.004826540138 3.26683125e-14)
(0.003069057675 0.002569761769 1.736111255e-14)
(0.001753213733 0.001567871198 9.93649607e-15)
(0 0 0)
(0 0 0)
(0 0 0)
(0 0 0)
(0 0 0)
(0 0 0)
(0 0 0)
(0 0 0)
(0 0 0)
(0 0 0)
(0 0 0)
(0 0 0)
(0 0 0)
(0 0 0)
(0 0 0)
(0 0 0)
(0 0 0)
(0 0 0)
(0 0 0)
(0 0 0)
(0 0 0)
(0 0 0)
(0 0 0)
(0 0 0)
(0 0 0)
(0 0 0)
(0 0 0)
(0 0 0)
(0 0 0)
(0 0 0)
(0 0 0)
(0 0 0)
(0 0 0)
(0 0 0)
(0 0 0)
(-0.0003462122606 0.0001951653819 1.637578961e-15)
(-0.0007872772809 0.0004074530505 3.73312492e-15)
(-0.002795108511 0.001526114353 1.394717675e-14)
(-0.001879437015 0.00111680124 9.381384558e-15)
(-0.0110127411 0.007860306998 6.541989173e-14)
(-0.01302371122 0.008560054882 7.738254482e-14)
(-0.01675933222 0.01181849881 1.064287547e-13)
(-0.01453544673 0.01112526403 9.225953335e-14)
(-0.02277542752 0.02221738809 1.824512763e-13)
(-0.02514363077 0.02256414795 2.013111899e-13)
(-0.0264131176 0.02601530048 2.316341563e-13)
(-0.02414995195 0.02589278642 2.120942311e-13)
(-0.02352378736 0.03560116153 2.90711899e-13)
(-0.02499179618 0.03467541094 3.075317778e-13)
(-0.02292465905 0.03667065786 3.255173908e-13)
(-0.02165011191 0.03775183133 3.086558786e-13)
(-0.01313867762 0.04189134725 3.448213937e-13)
(-0.01363048663 0.03961593039 3.543554339e-13)
(-0.009981281635 0.03986054929 3.577416141e-13)
(-0.009664107506 0.04243995238 3.503863866e-13)
(0.001333412851 0.04268098906 3.559513795e-13)
(0.001222279132 0.03962943973 3.59642871e-13)
(0.004970118977 0.03946958375 3.595873599e-13)
(0.0050311521 0.04247206924 3.554795347e-13)
(0.0157346138 0.0408460602 3.455430386e-13)
(0.01611553109 0.03847014189 3.548550342e-13)
(0.01948113529 0.03768513712 3.489986078e-13)
(0.01886974278 0.03974850763 3.37410655e-13)
(0.02529235008 0.03404265518 2.913502772e-13)
(0.02687467769 0.03291498057 3.086003675e-13)
(0.02805907489 0.0306324773 2.882138972e-13)
(0.02612583754 0.03130832141 2.68798872e-13)
(0.02389686452 0.02183794487 1.876276912e-13)
(0.02633936006 0.02197627333 2.06668016e-13)
(0.02406840247 0.01866743072 1.751654377e-13)
(0.021583358 0.01833375792 1.571937025e-13)
(0.01169084488 0.008230576892 6.993017276e-14)
(0.01378378939 0.008871066017 8.237854843e-14)
(0.009925041157 0.006049392433 5.595524044e-14)
(0.008129777675 0.005417256413 4.58660887e-14)
(0.0005356685562 0.0003064528927 2.581268532e-15)
(0.0009202912974 0.0004823205881 4.413136523e-15)
(2.335911248e-05 1.166811633e-05 9.714451465e-17)
(0 0 0)
(0 0 0)
(0 0 0)
(0 0 0)
(0 0 0)
(0 0 0)
(0 0 0)
(0 0 0)
(0 0 0)
(0 0 0)
(0 0 0)
(0 0 0)
(0 0 0)
(0 0 0)
(0 0 0)
(0 0 0)
(0 0 0)
(0 0 0)
(0 0 0)
(0 0 0)
(0 0 0)
(0 0 0)
(0 0 0)
(0 0 0)
(0 0 0)
(0 0 0)
(0 0 0)
(0 0 0)
(0 0 0)
(-3.29548839e-05 8.533238142e-06 1.387778781e-16)
(-8.992506577e-07 2.709882261e-07 1.387778781e-17)
(0 0 0)
(-0.002471109431 0.000936886254 1.171285291e-14)
(-0.003118799334 0.001038778053 1.477984402e-14)
(-0.006467147768 0.002280189789 3.226585665e-14)
(-0.005517816515 0.002212154215 2.753353101e-14)
(-0.01786513977 0.008680352305 1.061373212e-13)
(-0.01944658248 0.008334425846 1.154909501e-13)
(-0.02358678656 0.01087077991 1.496164304e-13)
(-0.02234227018 0.01167650315 1.418309914e-13)
(-0.03068472103 0.02042772678 2.451094883e-13)
(-0.03197131977 0.01878716414 2.549627176e-13)
(-0.03273244553 0.02106100845 2.853828285e-13)
(-0.03156281974 0.02301608959 2.757655215e-13)
(-0.0281826224 0.02842640573 3.415046024e-13)
(-0.02882508475 0.02553491527 3.476663402e-13)
(-0.02583305596 0.02609908149 3.566869022e-13)
(-0.0254104557 0.02933372131 3.531619441e-13)
(-0.01447024653 0.02964092495 0)
(-0.01476827166 0.02601213925 0)
(-0.01287877637 0.02596739139 0)
(-0.0108844408 0.02600060621 0)
(-0.01072019514 0.02779624731 0)
(-0.01063110776 0.02955125948 0)
(0.0007899272045 0.02915517538 0)
(0.0007183556972 0.02740934951 0)
(0.002631036855 0.02733247039 0)
(0.002692243121 0.02907855673 0)
(0.01616396573 0.02838158698 0)
(0.01614754018 0.02658619877 0)
(0.01614354115 0.02476247518 0)
(0.01804391757 0.02462962742 0)
(0.0199180914 0.02453247182 0)
(0.01998291646 0.02813658983 0)
(0.02983003449 0.02637901956 3.438777041e-13)
(0.03023649389 0.02338907501 3.497341305e-13)
(0.03246601248 0.0223540338 3.357036871e-13)
(0.03181093004 0.02508505706 3.280709038e-13)
(0.03195552284 0.01915042582 2.509381591e-13)
(0.03308060829 0.01723012933 2.600142324e-13)
(0.03135894133 0.01516129828 2.283451206e-13)
(0.02995272456 0.01667076328 2.179922909e-13)
(0.01925257753 0.008902027897 1.148942053e-13)
(0.02105393676 0.008477177748 1.256494908e-13)
(0.01657412745 0.006340908715 9.328648964e-14)
(0.01492782351 0.006550464005 8.403000518e-14)
(0.003317886504 0.001263329425 1.594557819e-14)
(0.004147413022 0.001381969555 1.992850329e-14)
(0.001485449368 0.0004737082949 6.800116026e-15)
(0.001010649103 0.0003678940612 4.635181128e-15)
(0 0 0)
(0 0 0)
(0 0 0)
(0 0 0)
(0 0 0)
(0 0 0)
(0 0 0)
(0 0 0)
(0 0 0)
(0 0 0)
(0 0 0)
(0 0 0)
(0 0 0)
(0 0 0)
(0 0 0)
(0 0 0)
(0 0 0)
(0 0 0)
(0 0 0)
(0 0 0)
(0 0 0)
(0 0 0)
(0 0 0)
(0 0 0)
(0 0 0)
(0 0 0)
(0 0 0)
(0 0 0)
(-0.0002969381402 2.655955107e-05 1.276756478e-15)
(-0.0001692171214 2.23047666e-05 7.21644966e-16)
(-0.0001384343645 2.409903455e-05 5.967448757e-16)
(-0.004481308693 0.0008683678948 2.123301535e-14)
(-0.004647773802 0.0006848048367 2.201017146e-14)
(-0.008602874403 0.001353417311 4.288236433e-14)
(-0.008374866444 0.001726746083 4.175826351e-14)
(-0.0224822173 0.005724808536 1.332128852e-13)
(-0.02284991152 0.004490635328 1.352667978e-13)
(-0.02718222007 0.005785527982 1.716959908e-13)
(-0.02678564345 0.007363661723 1.693784002e-13)
(-0.03463219871 0.01217885545 2.743499872e-13)
(-0.03502803197 0.009581817951 2.76847989e-13)
(-0.03544272496 0.0105948473 3.056305209e-13)
(-0.03507415822 0.01348487102 3.032851748e-13)
(-0.02993603298 0.01563957226 3.557987238e-13)
(-0.03015324418 0.01216106136 3.566730244e-13)
(-0.02666988418 0.0121246032 0)
(-0.02651943068 0.01567769366 3.59642871e-13)
(-0.01533430311 0.01526213198 0)
(-0.01541847956 0.01346112728 0)
(-0.01355528384 0.01339570159 0)
(-0.01347138692 0.01519387529 0)
(0.01582893632 0.0140405343 0)
(0.0157665553 0.0122561408 0)
(0.0176285175 0.01217257172 0)
(0.01769275142 0.01395424422 0)
(0.03059186928 0.01328762834 3.578942698e-13)
(0.03052570819 0.009792014526 3.587546926e-13)
(0.03353727708 0.009462052025 3.514549762e-13)
(0.03347848589 0.01285019993 3.494565748e-13)
(0.03618247048 0.01041101662 2.858824288e-13)
(0.0365665902 0.00768601263 2.896155538e-13)
(0.03527761807 0.006894117828 2.584460423e-13)
(0.03481712937 0.009307273239 2.545741395e-13)
(0.02469202344 0.005560874196 1.475763955e-13)
(0.02523670102 0.004195095751 1.509625758e-13)
(0.02048263638 0.003267968347 1.154493168e-13)
(0.01996288431 0.004296674507 1.124517146e-13)
(0.006017320298 0.001148755381 2.889355422e-14)
(0.006794748116 0.0009718604716 3.264055692e-14)
(0.003239957748 0.0004475021971 1.482147738e-14)
(0.002667189507 0.0004897636721 1.221245327e-14)
(0 0 0)
(0 0 0)
(0 0 0)
(0 0 0)
(0 0 0)
(0 0 0)
(0 0 0)
(0 0 0)
(0 0 0)
(0 0 0)
(0 0 0)
(0 0 0)
(0 0 0)
(0 0 0)
(0 0 0)
(0 0 0)
(0 0 0)
(0 0 0)
(0 0 0)
(0 0 0)
(0 0 0)
(0 0 0)
(0 0 0)
(0 0 0)
(0 0 0)
(0 0 0)
(0 0 0)
(0 0 0)
(-0.0004874479691 -3.877518392e-05 2.095545959e-15)
(-0.0004402608753 -1.644189171e-05 1.90125693e-15)
(-0.0003862324169 1.888022346e-06 1.665334537e-15)
(-0.005523240703 4.505647697e-05 2.615963002e-14)
(-0.005711633307 -0.0002180416367 2.703393065e-14)
(-0.009959804246 -0.0003759695246 4.959921363e-14)
(-0.009723299434 0.0001066212963 4.843347945e-14)
(-0.02430669261 0.0005546695732 1.435518371e-13)
(-0.02461149639 -0.0008584037529 1.452171716e-13)
(-0.02893160188 -0.0009857716175 1.819239204e-13)
(-0.02862606925 0.0007852801009 1.802169525e-13)
(-0.03618234293 0.00148398236 2.839811719e-13)
(-0.03644583973 -0.001300859833 2.853828285e-13)
(-0.03668923329 -0.001416676017 3.12819215e-13)
(-0.03644950408 0.001638999051 3.116534808e-13)
(-0.03069116428 0.001651871184 3.580608032e-13)
(-0.03084822553 -0.001858285464 3.582828478e-13)
(-0.02723889743 -0.002012269702 0)
(-0.02709921014 0.001513243055 0)
(-0.01593335623 0.001059180086 0)
(-0.01600431222 -0.0007047584285 0)
(-0.01414618572 -0.0007800598255 0)
(-0.01407498461 0.0009838686587 0)
(0.01528875533 -0.0001937699556 0)
(0.01521655763 -0.00196805181 0)
(0.01707428375 -0.002045137384 0)
(0.01714677149 -0.00027176768 0)
(0.03016453169 -0.0008148366945 3.596012377e-13)
(0.03001901881 -0.004354842213 3.59642871e-13)
(0.03335590917 -0.004440768369 3.555211681e-13)
(0.03345070371 -0.0009397931818 3.549660565e-13)
(0.03750981378 -0.0009350364186 2.99413272e-13)
(0.03763448974 -0.003911568911 3.012451399e-13)
(0.03676291545 -0.003501342926 2.716993297e-13)
(0.03655911657 -0.0008136368432 2.695621504e-13)
(0.0271899276 -0.0003202737031 1.631472735e-13)
(0.02756770348 -0.001961828986 1.656175197e-13)
(0.02288184844 -0.001464002022 1.293964935e-13)
(0.02248187179 -0.000181667821 1.27009514e-13)
(0.007789527203 8.742711255e-06 3.744227151e-14)
(0.008105364133 -0.0003755727373 3.896882816e-14)
(0.004179801429 -0.0001759362879 1.915134717e-14)
(0.003940633934 1.207122672e-05 1.804112415e-14)
(0 0 0)
(0 0 0)
(0 0 0)
(0 0 0)
(0 0 0)
(0 0 0)
(0 0 0)
(0 0 0)
(0 0 0)
(0 0 0)
(0 0 0)
(0 0 0)
(0 0 0)
(0 0 0)
(0 0 0)
(0 0 0)
(0 0 0)
(0 0 0)
(0 0 0)
(0 0 0)
(0 0 0)
(0 0 0)
(0 0 0)
(0 0 0)
(0 0 0)
(0 0 0)
(0 0 0)
(0 0 0)
(-0.0007190760939 -0.0001784627918 3.094746681e-15)
(-0.0006482880548 -0.0001335650322 2.789435349e-15)
(-0.0005852633271 -9.591434197e-05 2.525757381e-15)
(-0.006181140388 -0.001093789252 2.92543767e-14)
(-0.006371339753 -0.001421759064 3.014255512e-14)
(-0.01078090137 -0.002502490058 5.363764988e-14)
(-0.01054578427 -0.001936257652 5.248579349e-14)
(-0.02537116496 -0.005256609554 1.492972412e-13)
(-0.0256696929 -0.006785686053 1.509070646e-13)
(-0.02999882619 -0.008348247403 1.877109579e-13)
(-0.02969972132 -0.006459996184 1.860733789e-13)
(-0.03713806129 -0.009779956129 2.887273753e-13)
(-0.03739608066 -0.01265570509 2.900457652e-13)
(-0.03756625753 -0.01381200762 3.1667724e-13)
(-0.03733177163 -0.01068300094 3.155947725e-13)
(-0.03130042535 -0.01238886896 3.587408148e-13)
(-0.03145113721 -0.01590294289 3.589073483e-13)
(-0.0277910402 -0.0160848818 0)
(-0.02765361334 -0.01256860673 0)
(-0.01649501797 -0.01302204529 0)
(-0.0165646309 -0.01477916389 0)
(-0.0147090206 -0.01485395311 0)
(-0.01467404738 -0.01397531878 0)
(-0.01463910424 -0.01309741982 0)
(0.01469138234 -0.01437166458 0)
(0.01461406617 -0.01613902579 0)
(0.01646978827 -0.01621308298 0)
(0.01654732616 -0.01444630375 0)
(0.02955597326 -0.01496573178 3.596151155e-13)
(0.02939444128 -0.01848831782 3.595457265e-13)
(0.0326761879 -0.01836786986 3.54674623e-13)
(0.03287149365 -0.01491218227 3.551603456e-13)
(0.03715614428 -0.01273949399 3.000100168e-13)
(0.03691318193 -0.01561968572 2.989275494e-13)
(0.03606184008 -0.01403472468 2.691180612e-13)
(0.03630419748 -0.01144921584 2.702699176e-13)
(0.02719009463 -0.006773644745 1.639660629e-13)
(0.02698526373 -0.008324438381 1.629252289e-13)
(0.0223516669 -0.006414977553 1.268707361e-13)
(0.02253561838 -0.005211607216 1.278005479e-13)
(0.007883491881 -0.001483685464 3.794187187e-14)
(0.007779599651 -0.001831226383 3.745614929e-14)
(0.003941909094 -0.0008754033973 1.806887973e-14)
(0.00401490533 -0.0007112881017 1.838806885e-14)
(0 0 0)
(0 0 0)
(0 0 0)
(0 0 0)
(0 0 0)
(0 0 0)
(0 0 0)
(0 0 0)
(0 0 0)
(0 0 0)
(0 0 0)
(0 0 0)
(0 0 0)
(0 0 0)
(0 0 0)
(0 0 0)
(0 0 0)
(0 0 0)
(0 0 0)
(0 0 0)
(0 0 0)
(0 0 0)
(0 0 0)
(0 0 0)
(0 0 0)
(0 0 0)
(0 0 0)
(0 0 0)
(-0.001029839704 -0.0004292559764 4.440892099e-15)
(-0.0009456511184 -0.0003543081635 4.080069615e-15)
(-0.0008642279428 -0.0002873679925 3.719247132e-15)
(-0.006966455709 -0.002519622665 3.294586826e-14)
(-0.007176269229 -0.002926569337 3.393119119e-14)
(-0.01176594652 -0.005011494318 5.846712003e-14)
(-0.01151073711 -0.00434573378 5.721811913e-14)
(-0.02658642122 -0.01156987951 1.558475571e-13)
(-0.02690341135 -0.01323299984 1.575406472e-13)
(-0.03123132539 -0.01623507708 1.944000516e-13)
(-0.03091533372 -0.01421196107 1.927069615e-13)
(-0.03818077672 -0.0214403787 2.939593013e-13)
(-0.03844825651 -0.02442125797 2.95291569e-13)
(-0.03851667024 -0.02654281613 3.209654764e-13)
(-0.03827617253 -0.02332824953 3.19883009e-13)
(-0.03189555842 -0.02646334578 3.592959263e-13)
(-0.03204087464 -0.0299863207 3.593930709e-13)
(-0.02833732348 -0.03015830659 0)
(-0.02820136546 -0.02663992532 0)
(-0.01704961341 -0.02709259278 0)
(-0.01711823102 -0.02885138898 0)
(-0.01526581063 -0.0289261295 0)
(-0.01523129756 -0.02804673976 0)
(-0.01519670946 -0.02716751677 0)
(0.01405987371 -0.0284897259 0)
(0.01397759201 -0.0302544286 0)
(0.01583159347 -0.03032653297 0)
(0.01591426363 -0.02856233723 0)
(0.02884753912 -0.02899255484 3.587130593e-13)
(0.02862938467 -0.03244005903 3.579914143e-13)
(0.03158632242 -0.03177241072 3.493733081e-13)
(0.03191996145 -0.0285199689 3.513994651e-13)
(0.03546852817 -0.02361966929 2.896988205e-13)
(0.03468522153 -0.02592182057 2.840366831e-13)
(0.03376281088 -0.02317906685 2.543243394e-13)
(0.03440801425 -0.02105029559 2.58598698e-13)
(0.02496479706 -0.01214461543 1.512401315e-13)
(0.02432431901 -0.01328059739 1.475208844e-13)
(0.01974800293 -0.01006545379 1.124655924e-13)
(0.02034186256 -0.009233454255 1.157546281e-13)
(0.006357437138 -0.002394099286 3.062827769e-14)
(0.006015820883 -0.002548772157 2.900457652e-14)
(0.002675641555 -0.001074073251 1.226796442e-14)
(0.002904675698 -0.001035752442 1.33226763e-14)
(0 0 0)
(0 0 0)
(0 0 0)
(0 0 0)
(0 0 0)
(0 0 0)
(0 0 0)
(0 0 0)
(0 0 0)
(0 0 0)
(0 0 0)
(0 0 0)
(0 0 0)
(0 0 0)
(0 0 0)
(0 0 0)
(0 0 0)
(0 0 0)
(0 0 0)
(0 0 0)
(0 0 0)
(0 0 0)
(0 0 0)
(0 0 0)
(0 0 0)
(0 0 0)
(0 0 0)
(0 0 0)
(-0.00130170519 -0.0007619951363 5.606626274e-15)
(-0.001346163974 -0.0007312124155 5.800915304e-15)
(-0.001228815897 -0.0006157218248 5.301314943e-15)
(-0.007862600316 -0.004292925685 3.716471575e-14)
(-0.008131092018 -0.004813415624 3.841371665e-14)
(-0.01291431668 -0.007993304584 6.40876241e-14)
(-0.01259350919 -0.007188183155 6.250555629e-14)
(-0.0279162161 -0.01845378244 1.629391067e-13)
(-0.0283010899 -0.02029500738 1.65006897e-13)
(-0.03261602793 -0.02473436945 2.018801792e-13)
(-0.03223672331 -0.02253453462 1.998262666e-13)
(-0.03928395539 -0.03353408153 2.994549053e-13)
(-0.0395887106 -0.03664499344 3.009953398e-13)
(-0.03952774466 -0.03963808976 3.255451464e-13)
(-0.03926097474 -0.03632095946 3.243100233e-13)
(-0.0324677889 -0.04055346655 3.596012377e-13)
(-0.03260722195 -0.04407494229 3.59642871e-13)
(-0.0288782887 -0.04422777498 0)
(-0.02874309948 -0.04071018068 0)
(-0.01759317318 -0.04116146393 0)
(-0.01766023168 -0.04292016025 0)
(-0.01581130797 -0.04299434846 0)
(-0.01577760193 -0.04211468015 0)
(-0.01574384094 -0.04123566885 0)
(0.01338945779 -0.04257255728 0)
(0.01330226596 -0.04433124815 0)
(0.01515567394 -0.04440185505 0)
(0.01524343772 -0.04264318759 0)
(0.0278576818 -0.04249140218 3.542999227e-13)
(0.02753782226 -0.0456793634 3.522182546e-13)
(0.0300295544 -0.04397491024 3.383821001e-13)
(0.03048589721 -0.04110968565 3.419625694e-13)
(0.03248680508 -0.03226923753 2.680494715e-13)
(0.03190090074 -0.03433455555 2.638722574e-13)
(0.03033046407 -0.0299122812 2.302186219e-13)
(0.03131597271 -0.02853243735 2.372824159e-13)
(0.02147138692 -0.01554870776 1.305622277e-13)
(0.02012215515 -0.01576027677 1.22429844e-13)
(0.01562459194 -0.01143486655 8.917866445e-14)
(0.01697760016 -0.0114865347 9.68669589e-14)
(0.004268042468 -0.002410269874 2.058075932e-14)
(0.003727523071 -0.002280317028 1.7985613e-14)
(0.001211118053 -0.0007033493947 5.551115123e-15)
(0.001524361038 -0.000816894508 6.994405055e-15)
(0 0 0)
(0 0 0)
(0 0 0)
(0 0 0)
(0 0 0)
(0 0 0)
(0 0 0)
(0 0 0)
(0 0 0)
(0 0 0)
(0 0 0)
(0 0 0)
(0 0 0)
(0 0 0)
(0 0 0)
(0 0 0)
(0 0 0)
(0 0 0)
(0 0 0)
(0 0 0)
(0 0 0)
(0 0 0)
(0 0 0)
(0 0 0)
(0 0 0)
(0 0 0)
(0 0 0)
(0 0 0)
(-0.002314844227 -0.001744227389 9.964251646e-15)
(-0.002110292237 -0.001501078715 9.089951014e-15)
(-0.001805931374 -0.001208849878 7.78543896e-15)
(-0.008994711712 -0.006562913308 4.246603069e-14)
(-0.009666340185 -0.007492718049 4.561628852e-14)
(-0.01467746378 -0.01189706022 7.267797475e-14)
(-0.01385278135 -0.01057098312 6.86395385e-14)
(-0.02960137707 -0.02617276802 1.719319132e-13)
(-0.03017127675 -0.02834171495 1.749989043e-13)
(-0.03437026245 -0.03413581237 2.113864639e-13)
(-0.03388794467 -0.03168046575 2.087774398e-13)
(-0.04057871761 -0.04622056145 3.060746101e-13)
(-0.04077316317 -0.04931830444 3.067268661e-13)
(-0.04067896116 -0.05321698481 3.309436059e-13)
(-0.0403802546 -0.04977505837 3.295419493e-13)
(-0.03302069426 -0.05462698477 0)
(-0.03316069082 -0.05814405497 0)
(-0.0294261221 -0.0582950799 0)
(-0.02935647573 -0.05653714423 0)
(-0.02928731291 -0.05477902508 0)
(-0.01812568582 -0.05523037793 0)
(-0.01815892314 -0.05610859222 0)
(-0.01723420278 -0.05614536953 0)
(-0.0172010572 -0.05526739701 0)
(-0.002091515951 -0.05609539113 0)
(-0.002119628119 -0.05653292305 0)
(-0.002144798914 -0.05697065718 0)
(-0.001239044842 -0.05699741001 0)
(-0.00118439144 -0.05612285479 0)
(0.01265176893 -0.05661932535 0)
(0.01255131468 -0.05837010756 0)
(0.01245014513 -0.06012036943 0)
(0.01616785967 -0.06026325688 0)
(0.01636555005 -0.05676033312 0)
(0.01450934731 -0.05669002107 0)
(0.02641359722 -0.05459382874 3.43558515e-13)
(0.02590242717 -0.0571098051 3.386735337e-13)
(0.02777888676 -0.05375502435 3.183980857e-13)
(0.02855538267 -0.0518865576 3.260447468e-13)
(0.0291207862 -0.03856821224 2.423200529e-13)
(0.02805739479 -0.03947944289 2.338684801e-13)
(0.02610903781 -0.03360326788 1.993405441e-13)
(0.02721940437 -0.03298563046 2.075561945e-13)
(0.0166724416 -0.0160202676 1.015854068e-13)
(0.0156682701 -0.01598494187 9.550693569e-14)
(0.01148016798 -0.01094913716 6.561418076e-14)
(0.0123652719 -0.01110600758 7.065181773e-14)
(0.001762985806 -0.001326714662 8.493206138e-15)
(0.00143320308 -0.001146102532 6.911138328e-15)
(0.0001136616063 -8.642139047e-05 5.273559367e-16)
(0.0002171539263 -0.0001553367773 9.992007222e-16)
(0 0 0)
(0 0 0)
(0 0 0)
(0 0 0)
(0 0 0)
(0 0 0)
(0 0 0)
(0 0 0)
(0 0 0)
(0 0 0)
(0 0 0)
(0 0 0)
(0 0 0)
(0 0 0)
(0 0 0)
(0 0 0)
(0 0 0)
(0 0 0)
(0 0 0)
(0 0 0)
(0 0 0)
(0 0 0)
(0 0 0)
(0 0 0)
(0 0 0)
(0 0 0)
(0 0 0)
(0 0 0)
(-0.002195411684 -0.002034116787 9.492406861e-15)
(-0.002481094812 -0.00219318603 1.074140776e-14)
(-0.002651220009 -0.002231019129 1.147693052e-14)
(-0.01071239347 -0.009824317117 5.073719223e-14)
(-0.01036866402 -0.009990877637 4.911349105e-14)
(-0.01548969186 -0.01560966529 7.695233339e-14)
(-0.01590087378 -0.01525026281 7.900624599e-14)
(-0.03159985957 -0.03512156508 1.836447661e-13)
(-0.03110417811 -0.03632101745 1.806194083e-13)
(-0.03528217094 -0.04354673661 2.170486013e-13)
(-0.03576003858 -0.04201668294 2.202266147e-13)
(-0.04175671034 -0.05970822164 3.139988269e-13)
(-0.0414689558 -0.06222530908 3.111677582e-13)
(-0.04108623551 -0.06664709048 3.331918075e-13)
(-0.04127202308 -0.06383076852 3.355649092e-13)
(-0.03316889972 -0.06874665444 0)
(-0.03331284161 -0.0722641361 0)
(-0.02956788797 -0.07241738656 0)
(-0.02949593375 -0.07065905427 0)
(-0.02942394609 -0.06889990491 0)
(-0.01818924859 -0.06935964962 0)
(-0.01826123625 -0.07111879898 0)
(-0.01638884114 -0.07119542087 0)
(-0.01635283059 -0.07031543765 0)
(-0.01631685347 -0.0694362715 0)
(-0.01725305103 -0.06939796056 0)
(-0.003209681841 -0.06997264133 0)
(-0.003245657388 -0.07085180754 0)
(-0.003281667154 -0.07173179079 0)
(-0.00140921451 -0.07180841503 0)
(-0.001337226848 -0.07004926567 0)
(0.01176989028 -0.07058563327 0)
(0.01162594839 -0.07410311492 0)
(0.01532286003 -0.07397014502 3.5826897e-13)
(0.01550468907 -0.0706824726 3.593653153e-13)
(0.02441880057 -0.06414523742 3.243794122e-13)
(0.02377843492 -0.06584084453 3.174543961e-13)
(0.02514889907 -0.06079288319 2.929184673e-13)
(0.02590889488 -0.05949864604 3.006483951e-13)
(0.02440771638 -0.04037440541 2.042116476e-13)
(0.0234158505 -0.04067910587 1.961764085e-13)
(0.0209548866 -0.03322429739 1.604411048e-13)
(0.02238579768 -0.03383716016 1.713629239e-13)
(0.01183033348 -0.01415831712 7.215061881e-14)
(0.01031336439 -0.01294348575 6.288025656e-14)
(0.007018000404 -0.00824241564 4.010680676e-14)
(0.007995659682 -0.008949046202 4.569955525e-14)
(0.0002951316613 -0.0002777318427 1.429412144e-15)
(0.0001333129548 -0.0001317654138 6.383782392e-16)
(0 0 0)
(0 0 0)
(0 0 0)
(0 0 0)
(0 0 0)
(0 0 0)
(0 0 0)
(0 0 0)
(0 0 0)
(0 0 0)
(0 0 0)
(0 0 0)
(0 0 0)
(0 0 0)
(0 0 0)
(0 0 0)
(0 0 0)
(0 0 0)
(0 0 0)
(0 0 0)
(0 0 0)
(0 0 0)
(0 0 0)
(0 0 0)
(0 0 0)
(0 0 0)
(0 0 0)
(0 0 0)
(0 0 0)
(0 0 0)
(-0.0005126264176 -0.0005626357375 2.220446049e-15)
(-0.0009302453557 -0.0009811833789 4.024558464e-15)
(-0.001382168162 -0.001398687188 5.981326545e-15)
(-0.007943232942 -0.008774406702 3.763656053e-14)
(-0.006785132574 -0.007817949981 3.216871214e-14)
(-0.01106761221 -0.01334925724 5.503930645e-14)
(-0.01252287408 -0.01447596565 6.225575611e-14)
(-0.02726253272 -0.03654193598 1.582484144e-13)
(-0.02526774093 -0.03536147139 1.467714839e-13)
(-0.02941432178 -0.04349913375 1.808830863e-13)
(-0.03144723685 -0.04453998357 1.932759508e-13)
(-0.03859199667 -0.06626590822 2.885192085e-13)
(-0.03689626682 -0.06610781071 2.758349105e-13)
(-0.03736058505 -0.07220323664 3.013145289e-13)
(-0.03880877671 -0.07191478982 3.131245263e-13)
(-0.03334664772 -0.08193881162 3.557709682e-13)
(-0.03288242421 -0.08403160345 3.498867862e-13)
(-0.029860741 -0.08576784453 3.566036355e-13)
(-0.02998006024 -0.08292286002 3.594347042e-13)
(-0.01876508301 -0.08343121037 0)
(-0.01890905833 -0.08694950909 0)
(-0.0151641864 -0.08710275621 0)
(-0.01502021108 -0.08358445749 0)
(-0.0168926879 -0.08350783226 0)
(-0.003785513579 -0.08404420219 0)
(-0.003929488903 -0.08756250092 0)
(-0.0001845924594 -0.08771574904 0)
(-4.061713544e-05 -0.08419745032 0)
(0.01112289926 -0.08389874216 3.564371021e-13)
(0.01086158353 -0.08602028947 3.509137425e-13)
(0.01416669867 -0.08350936935 3.401445792e-13)
(0.0145664104 -0.08211313678 3.482908406e-13)
(0.02172374678 -0.06897860562 2.916139552e-13)
(0.02078693069 -0.06869913298 2.790129239e-13)
(0.02143529403 -0.06161493404 2.501748808e-13)
(0.02253756869 -0.06227767398 2.631922458e-13)
(0.01938664453 -0.03834300759 1.623146062e-13)
(0.01801974507 -0.03705471672 1.507127756e-13)
(0.01535271215 -0.02880770714 1.173228181e-13)
(0.01670018584 -0.03013631981 1.277450368e-13)
(0.006606618807 -0.009445396865 4.023170685e-14)
(0.005677971658 -0.0084474149 3.456956943e-14)