/*--------------------------------*- C++ -*----------------------------------*\
| =========                 |                                                 |
| \\      /  F ield         | OpenFOAM: The Open Source CFD Toolbox           |
|  \\    /   O peration     | Version:  v1912                                 |
|   \\  /    A nd           | Website:  www.openfoam.com                      |
|    \\/     M anipulation  |                                                 |
\*---------------------------------------------------------------------------*/
FoamFile
{
    version     2.0;
    format      ascii;
    class       volScalarField;
    location    "0.3";
    object      omega;
}
// * * * * * * * * * * * * * * * * * * * * * * * * * * * * * * * * * * * * * //

dimensions      [0 0 -1 0 0 0 0];


internalField   nonuniform List<scalar> 
12556
(
31.93076296
31.93162693
31.93255578
31.93340773
31.96666423
31.9672076
31.96763985
31.96851363
31.97026695
31.97338398
31.97815444
31.98385862
31.98860005
31.9892478
31.98648801
31.98132275
31.97618983
31.97175283
31.96975345
31.96795497
31.93448658
31.93322725
31.9321265
31.93113695
31.79404365
31.79653827
31.7991656
31.80148621
31.83550031
31.83740947
31.83984364
31.85946129
31.86763909
31.88232464
31.90490888
31.93223753
31.95487712
31.96040564
31.94938157
31.92566024
31.90040692
31.88052163
31.85182187
31.84276632
31.80546889
31.80186497
31.79862605
31.79560242
31.65892559
31.66342362
31.66800928
31.67175881
31.70616894
31.70995054
31.71565361
31.74044397
31.76046837
31.79569683
31.84865027
31.91248018
31.95638816
31.96993326
31.94474855
31.89308871
31.83710544
31.79128581
31.7432091
31.72334662
31.68030729
31.67369966
31.66803211
31.66312718
31.52540619
31.5312658
31.53734756
31.54247205
31.57820858
31.58505138
31.59703146
31.63265098
31.67496847
31.75154739
31.86608053
32.00243608
32.09966128
32.1071329
32.03380262
31.92924309
31.82220322
31.7324303
31.65260448
31.61449438
31.56015071
31.54901489
31.54035323
31.53326965
31.39379699
31.40154334
31.40938861
31.41625247
31.45308127
31.46430738
31.48616713
31.53934951
31.62622685
31.78663714
32.05764126
32.40800129
32.66312253
32.6244432
32.37977752
32.11937632
31.89633837
31.7237113
31.59020684
31.52015414
31.44632948
31.42805725
31.41536229
31.40573545
31.2635867
31.27267147
31.28201101
31.29084425
31.33116537
31.34963421
31.3884667
31.46962573
31.62450947
31.96603638
32.65349007
33.87822269
34.91603247
34.45683025
33.39292621
32.63630489
32.13655842
31.79102715
31.55978536
31.4440271
31.34056154
31.30997078
31.29190147
31.27926332
31.13565663
31.14643862
31.15792702
31.16961993
31.21281793
31.24118306
31.30369109
31.42447836
31.69139841
32.37069517
34.11582796
39.67852909
46.05528566
43.06074853
36.15420795
33.77499975
32.63370499
31.97566396
31.5707456
31.38842726
31.24211828
31.19544116
31.16988463
31.15369075
31.00948498
31.02173834
31.0352239
31.05017537
31.09934201
31.14037324
31.23296913
31.39758544
31.82072045
32.9720334
36.53613524
54.34496282
71.1452082
42.56967289
35.83483547
33.45884382
32.29580526
31.62631444
31.35008315
31.15224534
31.08425841
31.04913703
31.02874438
30.88659639
30.90093067
30.9175791
30.93724674
30.99207238
31.04823447
31.17449798
31.38931209
31.9891537
33.60765205
38.61636585
65.47538311
133.4805101
52.1070545
38.71003684
34.56636851
32.72992151
31.72608525
31.32721853
31.07040702
30.97823939
30.93131773
30.90606866
30.76701682
30.78309674
30.80252579
30.82745552
30.89102264
30.96446421
31.12516574
31.39579122
32.16480264
34.15116601
39.97084363
73.17823358
167.4306488
60.57239081
41.71587321
35.79332856
33.22047724
31.85286003
31.31816424
30.99686428
30.87824954
30.81826876
30.78752311
30.65268421
30.67119297
30.69460685
30.72675653
30.79566839
30.88843326
31.083135
31.41451844
32.34179874
34.63161612
41.16015123
83.23872372
168.4421792
65.66913245
44.22761247
36.92400167
33.70011611
31.98329697
31.3190196
30.9314676
30.78684651
30.71288849
30.67604555
30.54226162
30.56273493
30.58954095
30.62870529
30.70593769
30.8189859
31.04709242
31.44306255
32.51817868
35.09402405
42.51122577
95.09565839
156.6172725
67.81229701
45.94682978
37.80292774
34.09614962
32.09689907
31.32228871
30.87336835
30.70298137
30.61570146
30.57264106
30.4382645
30.46135914
30.49286615
30.54000666
30.62168657
30.75491151
31.01533754
31.47639392
32.69300865
35.56263448
44.24438463
106.0031183
716.8686079
135.3164497
68.14619842
46.89049993
38.39683702
34.37516811
32.17987438
31.32210159
30.82008568
30.62775544
30.5272986
30.47795214
30.33763503
30.36308976
30.39905801
30.45323335
30.54618481
30.70542074
31.00500026
31.53423267
32.91874087
36.19058327
46.94897276
157.1246326
448.4971227
126.6440773
67.72927751
47.36173581
38.69409
34.5267212
32.22960433
31.31265618
30.76676517
30.55722227
30.44508739
30.39023325
30.24222179
30.27011871
30.3103614
30.37084087
30.47115767
30.64987456
30.98010065
31.56367907
33.05223499
36.61265057
49.80522576
497.604872
321.5209856
118.6942149
66.72657309
47.33797056
38.76792683
34.57406797
32.2388473
31.29133715
30.71396141
30.49035058
30.36739941
30.30727207
30.14793229
30.17819447
30.22265255
30.28992397
30.39852965
30.59453761
30.95508811
31.58797713
33.1566792
36.96063131
52.61322702
718.1576452
284.4186737
114.1993359
65.93366039
47.12949869
38.66050882
34.535793
32.2174599
31.25692813
30.65563801
30.42130218
30.29051946
30.22599456
30.05729174
30.08998841
30.13827879
30.21118632
30.32672865
30.53800041
30.92796617
31.61114885
33.26336542
37.31306096
54.99560283
694.7311863
267.2550474
111.7049857
65.13242965
46.75965158
38.47545599
34.45665318
32.17031575
31.2105796
30.59358803
30.35167727
30.21349033
30.14500227
29.96515306
30.00008369
30.05213617
30.13123072
30.25462123
30.47926257
30.89688528
31.63240627
33.38803942
37.76333202
58.24987017
661.9908075
251.7041656
109.2898002
64.05223786
46.24602561
38.24632982
34.34817457
32.10077773
31.14819537
30.52184916
30.27455759
30.13212533
30.06046951
29.8755771
29.91265951
29.96805748
30.05198819
30.18127298
30.41781017
30.86149849
31.64702089
33.52887477
38.38132634
63.93580526
649.2630172
232.7868497
105.8726713
62.73812619
45.70950485
38.01573501
34.22268274
32.01708983
31.07439477
30.44391588
30.19349836
30.04775744
29.97409336
29.78227603
29.8211483
29.87986086
29.96955319
30.1061852
30.35355675
30.82220548
31.65630302
33.66946192
39.10182635
71.89400719
617.375771
214.6729792
102.2700957
61.6538203
45.24019393
37.79427604
34.08959098
31.92369633
30.99114482
30.35748999
30.10456261
29.95646733
29.88150244
29.69157074
29.73199695
29.79347818
29.88732527
30.02890492
30.28662394
30.77964937
31.66198631
33.81389124
39.92165021
79.84467373
569.8024954
200.2144191
99.16388023
60.82519832
44.84526783
37.58706399
33.95467557
31.82359492
30.90028999
30.26637691
30.01250873
29.86289279
29.78707696
29.59542825
29.63698255
29.70121711
29.80046803
29.94933553
30.21722431
30.73456911
31.66567868
33.9665969
40.94592617
86.95895416
521.3391573
188.3552168
96.45101313
60.13859165
44.53158177
37.39863585
33.82166073
31.71918935
30.80347672
30.16774837
29.91253129
29.76184334
29.68568891
29.50325032
29.5456635
29.61196386
29.71448889
29.8673405
30.14559487
30.68766696
31.6691002
34.13547621
42.28887674
93.33614867
479.5734888
178.3618687
94.05313082
59.53319966
44.28785975
37.23321796
33.69347544
31.61257803
30.70219042
30.06712346
29.81192165
29.66069248
29.58444625
29.40400944
29.44694161
29.5154427
29.62301604
29.78328528
30.07212612
30.63982677
31.6746014
34.33692975
43.86005325
99.04142844
443.0989942
169.7753603
91.91107003
58.98435086
44.09163819
37.09134504
33.57224338
31.50549677
30.59782834
29.95999576
29.70349146
29.55174958
29.47570642
29.31130154
29.35455518
29.4245192
29.53445468
29.6973928
29.99742459
30.59222594
31.68527449
34.59135343
45.48296447
104.112459
410.706251
162.2755533
89.97573183
58.47926966
43.92425307
36.96952188
33.45877939
31.39915096
30.49148891
29.85402581
29.59781702
29.4459418
29.37017716
29.20921109
29.25259508
29.32441549
29.43937792
29.61040149
29.92215664
30.54607554
31.70441203
34.90946519
47.06569065
108.5932868
381.6625193
155.6341356
88.20893914
58.00897278
43.77429899
36.86285705
33.35269204
31.29417984
30.3840846
29.74147084
29.48332458
29.33102264
29.25564866
29.11747808
29.16088212
29.23379089
29.35037618
29.52251332
29.84694245
30.50242915
31.73506675
35.28574598
48.58105761
112.5125996
355.4900337
149.6958094
86.5813201
57.56620952
43.63507996
36.7669287
33.2529517
31.1908255
30.27616753
29.63367034
29.3759043
29.22356535
29.14855932
29.0125844
29.05594479
29.13058309
29.25257462
29.4345487
29.77229098
30.46210057
31.77964451
35.70536677
50.02433395
115.9023262
331.852585
144.3380943
85.06692081
57.14420025
43.50209578
36.67820995
33.15832729
31.08907232
30.16824615
29.51730688
29.25665499
29.1037605
29.02914186
28.92358468
28.96684805
29.04239792
29.16541739
29.34638712
29.69862743
30.42581595
31.83971956
36.15292725
51.39566167
118.7900747
310.4589486
139.4546848
83.64238988
56.73641018
43.37184722
36.59396467
33.06764477
30.98880136
30.06046238
29.41057369
29.15050038
28.99753576
28.92325038
28.81533189
28.85851843
28.93579992
29.06486545
29.25895764
29.62631907
30.39431605
31.91570071
36.61653863
52.69775047
121.2225306
291.0597822
134.9600524
82.28747692
56.33681175
43.24145154
36.51204311
32.97985684
30.88985326
29.9531801
29.29040532
29.02638693
28.87269295
28.79871743
28.73115704
28.77423891
28.85239655
28.9820624
29.17171898
29.5556859
30.36813934
32.00701166
37.08804558
53.93445189
123.2516905
273.2900547
130.7888113
80.98623153
55.94057755
43.1087143
36.43081957
32.89410065
30.79208721
29.84628945
29.1877645
28.92462773
28.77075114
28.69701449
28.618171
28.66121958
28.74115884
28.87748688
29.08593042
29.48703103
30.3478536
32.11244547
37.56213979
55.11011113
124.9263335
256.994759
126.8919883
79.72769487
55.54465337
42.97227714
36.34917185
32.80970022
30.69539768
29.74024493
29.06195917
28.79394524
28.63919485
28.56565604
28.54151
28.58450356
28.66538602
28.8023542
29.00051993
29.42066825
30.33377834
32.23052522
38.03553317
56.22925093
126.2911156
242.1022359
123.2353027
78.50557631
55.14763702
42.83150877
36.26639038
32.72612875
30.59976455
29.63474807
28.96772667
28.70061065
28.54549038
28.47207612
28.42139266
28.46442712
28.54716295
28.69070936
28.91757777
29.35703852
30.32611178
32.35971674
38.50599693
57.29449262
127.4101751
228.5489656
119.7962927
77.31684901
54.74916282
42.68626072
36.18208814
32.64307184
30.50538825
29.53076659
28.83174368
28.55977154
28.40369333
28.33036227
28.35554279
28.39862448
28.48239684
28.62811184
28.83557916
29.29678013
30.32585924
32.49863188
38.97216865
58.30859087
128.3504793
216.2503119
116.558474
76.16041901
54.34950424
42.53668982
36.09607477
32.56026003
30.4129395
29.42832049
28.75314918
28.48039246
28.3237496
28.2504215
28.20287666
28.24616615
28.33251132
28.48627578
28.75874148
29.24106052
30.33107775
32.64525282
39.42999495
59.2693568
129.1374011
205.0992323
113.5181882
75.04475181
53.95288889
42.38422865
36.00868312
32.47774219
30.32420249
29.3305373
28.57753557
28.29920693
28.14111895
28.0677188
64.75939538
156.6303431
79.96049045
72.01833543
200.8183988
162.6075387
81.97087621
199.4243619
202.5447536
93.66617521
181.1375461
197.2272073
104.8517831
872.8711174
748.3167645
163.7552338
178.5094129
135.5002624
553.9992172
856.0583369
467.9933649
160.0381784
162.0572397
52.03096931
45.66792002
73.04691543
42.86267239
452.2317124
160.66441
126.4241264
56.65467741
46.26828574
39.67830645
61.57284514
57.14178715
1529.866677
1074.4886
165.4787812
69.16006325
60.15913497
40.8920166
68.79882333
62.33522992
76.96106299
222.3762985
197.2385958
885.4702349
1206.661862
169.4575101
76.24629079
71.4879324
42.22617504
77.27590389
69.78204886
87.27736492
329.2511037
259.9466982
509.5953013
670.1813342
43.87824732
88.31503842
78.36384566
97.50366078
512.4212683
406.9662555
1954.731191
334.3217016
387.8205257
46.47490103
110.7495309
89.98548229
115.1138766
1128.288957
738.6540434
163.2747769
423.4225117
545.7549227
155.700592
187.6232968
98.35488186
150.0364194
1044.756694
476.1526867
123.0469061
385.6281973
736.2999579
194.12575
173.3542034
68.65741132
228.4293985
245.3260722
193.5728233
225.0103796
1219.805149
1532.476941
184.2422651
1074.862964
942.4322413
761.5215204
1071.365872
181.6897008
256.3965047
226.4981733
78.23165989
291.8690519
338.609177
247.6345234
288.4177306
699.6311793
866.8698532
203.2559665
664.8544988
528.2010474
933.2419542
687.8339469
203.8850298
402.4432499
332.8126856
88.7228985
408.7440964
514.2065319
341.6864402
404.4952141
399.1302567
491.4541596
727.4155515
522.4234807
97.90596048
2874.916891
712.0708375
1087.383586
519.6171558
695.2416147
3306.986524
307.7522094
328.6695605
1719.145674
8515.099995
1138.842318
116.6264783
632.9859897
1775.268285
7518.631739
1096.661098
1743.176925
649.8777814
38.19488937
56.51217648
48.47580484
60.27571131
123.3808591
85.96146142
2610.296254
455.7119156
68.00761885
170.8440425
148.8941368
5344.44733
158.5048274
78.63696357
77.22314089
5596.597305
737.6383727
817.3676523
570.4658876
273.2008734
297.3677893
145.5695205
126.6121937
61.63806722
1332.178092
215.272584
509.7596391
135.4214969
342.0557861
113.7895928
834.7098342
1059.538095
188.0359922
407.0683207
347.5744826
511.3577857
418.1295362
190.641512
1203.255988
4310.144364
758.0036858
70.39086303
58.64280683
90.07193071
140.8156845
69.63780689
73.39470529
3555.431127
318.4282794
2528.105936
344.9205612
1861.827488
287.3054503
1241.637795
1224.938845
1016.227818
1038.652418
1997.738148
4496.008101
570.1855969
2389.681964
1320.569246
5026.476991
2836.159815
593.6659102
445.2962551
170.6817922
178.952618
621.731638
703.86556
4997.536512
799.8050051
226.4978247
241.0258546
209.217612
221.0542445
796.4437912
1159.962454
1332.444834
168.5056278
831.0990886
657.0159292
1307.340528
833.2481763
172.3566243
124.2053738
364.0656427
175.4783228
574.7706338
393.7147619
132.5764913
536.504863
833.7716054
733.44221
695.3827454
230.9864342
1475.624997
231.5656095
207.7001954
1406.076484
1329.734743
1467.361913
1415.501881
211.8893545
1288.395498
1300.854469
995.7865577
345.8116779
336.4606822
348.5353567
347.3681016
989.1423452
905.9955234
306.337544
280.7250373
331.9523096
313.9237808
923.4454176
313.2213911
316.2508213
265.0060359
267.5267906
740.3982205
5205.358173
753.7384329
440.8336329
447.9239199
372.2892243
376.5972382
1248.842997
921.5721585
445.9898507
1121.216006
1852.250458
577.725137
194.5538053
205.1752138
181.9163676
191.2570062
568.5689374
1318.707683
760.3244834
773.6673818
558.9055373
563.8080416
5826.920337
1017.893989
534.2211769
596.8639712
247.3668799
260.0486654
1412.345866
2849.304314
1540.305214
2567.210191
1136.498658
6430.381024
2840.007763
5507.85343
1132.658117
723.1467054
3916.785229
1967.512234
3211.15349
1878.300384
2560.810725
49.06699453
120.8843762
114.1018704
176.0096705
4190.470153
7772.209303
335.5933311
146.9755251
156.8979491
1049.334178
2953.870362
4178.797681
468.9192424
514.3963156
957.3559677
251.1468717
265.3781811
555.4748868
139.4788227
101.3701645
197.5423916
365.1203982
125.4339429
146.24284
1436.985986
3469.13294
3637.48249
1150.289407
943.0039692
2598.319746
1913.577534
4358.650211
4296.197255
1153.937514
301.2672953
137.510211
142.7796421
131.0038694
135.8308602
295.2796531
161.0085903
168.2354525
440.393842
1038.902318
414.4043676
434.6201081
6367.31428
3235.32178
506.9911662
905.7550171
3119.90936
3456.511988
513.557234
226.1755325
190.5754894
270.3629646
238.4258534
536.910744
1251.861559
4304.271254
4366.344981
1460.77958
242.7943022
125.0129598
129.476929
700.0053911
685.3518324
328.6921636
1811.44198
1668.784779
818.5089525
602.4797397
315.3214602
326.724797
838.4001159
342.7411325
347.8677168
330.6897585
339.9323023
823.6549263
363.4970009
152.3756684
158.7858431
144.6094676
150.3517367
358.8775619
421.5125988
1024.232921
1013.490424
1632.537026
1583.55349
492.2107589
353.488148
739.1330141
702.4737822
1008.804117
1000.964847
392.3624601
432.2454412
888.8857728
722.0050963
5963.000465
1960.373106
736.662233
917.3316408
535.9100072
1667.244314
1640.159825
1676.13221
608.9762422
4867.644458
8772.956495
330.0757369
381.6951483
442.2704392
460.7426162
1149.910971
1788.977175
1100.212156
587.2426373
1796.725711
8002.435584
1628.289695
1447.723587
15985.90126
1108.455801
1657.529071
1581.848067
1924.677788
1423.766494
5292.625049
5361.206349
1282.106469
1671.355428
5805.473335
1396.53941
1331.272436
335.2400266
1228.057655
503.454139
1226.257105
363.890186
4103.808904
2825.805685
938.7699731
4844.880298
5655.552133
4532.463717
3188.559242
1020.291213
4692.494631
5810.410533
3150.911759
4456.82238
6140.294167
1904.176263
2788.577743
1308.466
1679.060929
5530.416217
3614.727644
1060.893823
657.3594019
1718.990027
1166.927448
593.5848943
377.4354391
1054.472585
3821.359833
4822.202564
1366.260597
1168.244953
3681.261687
3829.495492
2843.594542
2696.218801
964.8697842
4679.071699
4590.722123
3366.582331
4553.691073
4552.115054
1124.133007
4446.758838
2924.43552
2973.478363
3346.517892
1799.051851
853.1428841
919.9491618
3780.850472
1069.75848
1207.818037
947.2002919
1029.634222
3539.73482
3610.914027
1002.349087
1181.284442
385.6115411
407.3800123
944.37733
766.9444436
364.5106919
380.1455179
1273.972364
1289.41083
813.9393544
288.198761
311.6104765
260.8275377
281.4140656
805.6433257
888.8412251
354.9812072
389.3591443
320.0478758
345.8836911
894.7547614
507.7349386
235.7057568
254.8954227
741.8107391
776.2343095
2233.895337
2335.037181
858.2321942
3311.65076
3332.261018
4230.11812
2279.740661
1905.698327
3213.0372
2254.769071
586.7662276
1609.613595
2132.911477
1522.276588
504.9634761
570.9926001
478.1998139
493.6002546
1483.284907
623.8225778
636.259392
592.8530577
619.3630593
1379.058884
421.5136735
436.1323733
398.1740063
416.3928861
1367.974364
1445.660821
459.5371876
473.038757
440.915088
454.9136522
1441.040078
4196.94952
4262.883914
1261.66146
1403.527841
4422.586204
4176.178071
961.058552
967.1517691
932.9058201
959.0855407
981.6739693
995.7144765
969.3491446
978.7158591
655.7902995
667.7060273
640.1591623
651.6977426
711.4170388
888.2847803
673.4124471
687.5351743
1571.837573
1834.169696
1257.108947
1463.83189
5440.56893
2885.695125
3150.895654
1957.703862
2774.5223
1039.040353
1030.641659
426.1330103
1660.217631
1665.369895
1625.284057
1650.032723
1712.934044
480.8099645
1546.218057
1094.589979
968.515429
760.5976076
357.8430529
1047.174571
1523.056137
996.6757848
1057.466095
1586.876505
1612.442749
1543.678894
1576.108222
388.4162202
998.4880194
987.6261605
5731.003058
1328.850055
5588.062522
4804.430903
5565.818583
1422.213775
6161.235373
1737.045189
5898.177815
5083.280827
743.9558695
829.4250604
1703.15415
1672.639752
541.0004624
592.3127713
1771.587988
1706.214061
5762.121773
1193.690875
473.7699096
520.437176
5937.808437
6735.684067
1877.810974
7318.724544
5278.932321
2052.633702
1110.369822
6396.056533
3684.166959
7093.60076
4133.17657
1597.68381
65.80583805
43.32879394
37.12538957
5709.204198
5685.08445
148.3986375
78.44956894
78.7682594
5948.200273
978.3681434
2846.471159
1950.247425
339.0017705
283.9829252
171.9888876
310.0415526
224.8524367
479.5967047
1704.014912
307.2784288
332.2222329
54.68893657
64.24501038
123.6172658
394.9598967
761.1306686
1115.929619
210.7972794
114.1875656
118.088289
109.2519989
112.9204215
207.2572117
862.3680518
957.4946569
3112.886909
689.8875089
608.0078421
363.0353988
345.7699468
359.8574699
761.4916888
1212.340001
1545.944598
553.445864
119.4287729
123.5878883
238.7237891
301.1829095
648.1313318
621.0193018
598.5403139
531.1884882
278.5089242
645.8584244
326.679656
341.1358015
4525.847931
4225.423085
2548.157329
1688.989306
1666.359952
1063.863386
3805.871201
5742.541546
5129.88609
1299.931351
763.3985256
841.1567648
1778.305313
1102.351572
1724.446083
1711.073236
1743.285954
2789.159493
5168.382927
3568.93853
3993.462227
5527.308972
1537.214885
1241.335037
746.4237415
1358.084773
177.8568506
141.5950806
246.6804243
907.8537728
2397.526951
1698.531193
5942.582614
6270.498203
6390.030862
5307.768109
6103.858193
95.55016273
120.284505
292.6420639
2904.047135
1906.830697
1474.315645
3721.554015
2950.18098
2190.672734
4002.242198
3651.425426
5674.203395
5379.112339
3896.219975
775.8273692
833.978818
1656.27633
5186.582136
2753.093901
3084.183433
4334.270417
2611.500906
3037.238078
1207.906579
1605.894722
1317.291812
824.2561359
561.0001953
569.2392787
1269.364013
782.3135299
824.5693003
574.3993866
586.0059801
848.1900206
207.7742436
230.1558747
479.6550125
608.8220333
1091.987477
786.0668209
1267.94391
1318.396158
837.276589
1828.675786
1327.826336
1380.771568
916.9015428
919.3425647
1480.332497
1487.946383
1501.829201
1413.328543
1435.38332
1395.263048
867.05788
871.5493614
842.5728225
848.8725197
1344.361215
1460.735962
905.595071
909.7892512
876.3612337
881.2259164
1424.304422
664.8659546
652.6812859
304.2209797
325.645708
681.3277461
668.795671
499.2851732
486.6515564
257.3529662
1539.593985
1541.983935
1507.289959
1512.228963
1900.396784
1549.694044
1550.757136
275.6440164
519.6535652
504.3800561
5098.595811
5041.594942
3218.770894
3419.870676
5170.145927
5084.114881
5285.460702
802.9704984
1609.779111
1347.753246
309.8519865
322.1465382
617.3280563
550.2129544
296.5130571
306.4030927
1091.489338
1091.339277
756.9888685
776.2602521
1099.634506
1103.959827
5771.472224
1490.094405
976.406869
963.5487837
12455.84074
2338.802181
1860.575586
4733.485404
3891.312754
1796.056179
1773.874484
1121.270706
6200.344605
6752.835021
6453.367795
5074.40079
1192.219939
1842.789305
1784.973755
2878.788961
1042.884121
1216.910739
5611.345931
5516.046434
4284.188794
3968.997028
2297.219152
1270.620088
1452.316854
1407.139138
3420.541107
5631.19489
4796.544921
5687.704497
5443.408681
3888.055648
197.1385278
279.0340584
896.2241383
3692.742242
3606.374657
3784.874808
3764.579248
3555.134664
2304.158962
2281.284915
2327.381934
2307.736127
3562.056155
4394.8531
2491.209408
2509.415122
2392.814285
2462.23767
4469.220177
3264.446123
2086.38106
1880.670608
2264.273428
2201.375607
3350.91096
4285.820413
2550.78518
2567.502618
2528.507885
2537.907741
4329.261917
3882.031119
3809.796263
3984.857411
3797.544171
1022.358757
712.2854821
716.0122656
1617.679537
1032.432232
1036.558575
1005.139079
1025.894757
1606.131515
5655.161924
5878.83363
5142.114367
5730.342419
1685.569001
1699.603996
1656.341476
1671.610303
2139.060183
1009.180181
1620.571188
1557.698219
1656.87023
1042.740906
1046.455577
1038.375427
1041.044575
1650.176296
1593.13625
1635.189429
1121.134344
1531.73731
2111.080882
6096.042578
5687.170863
4317.014656
5927.389224
860.2196737
1212.840422
12869.99822
1151.387828
794.3068979
797.9600871
1799.701522
7637.989237
7896.296724
9226.302433
5951.654991
5550.215034
1740.478114
1728.806217
1103.351713
1706.234935
2404.790339
3384.128584
2374.381121
3177.858776
2379.003067
949.3739752
3279.444039
2400.52974
5348.414177
5547.226025
5755.831143
4337.547988
4947.573694
1357.160549
1686.509181
1064.39072
543.8041259
733.6356159
1137.943975
1246.152542
763.2525627
1111.276069
1455.411372
5496.365455
5763.543031
5404.896065
5301.587499
6059.164618
6011.710948
5868.239795
3599.839007
5189.184662
4721.859143
5822.504585
6019.756296
4022.487174
4335.655109
4779.242564
6057.711355
4943.473587
3535.131094
3869.902456
2730.612123
1972.711426
2770.323698
1463.153384
2117.829894
2818.25901
3094.648994
2865.458471
3975.925438
2500.367955
2366.423332
3403.228893
2467.728781
3726.509329
3731.024381
2350.658641
2331.296949
2379.997231
2349.557496
3754.557836
2795.46339
1685.207426
1713.038569
4625.355657
4617.207199
3935.659298
5054.045676
4871.84938
4695.458009
4633.089192
4849.989477
3673.210434
2006.880948
2235.923031
1757.069354
1842.940103
3135.953432
5413.303819
4575.773741
2508.118192
5756.052937
5512.685039
5492.025662
3544.869994
5401.57091
5231.567552
2085.936951
2348.905418
4428.665137
1248.373938
1310.030461
635.1014723
709.6917139
1222.13483
847.3262999
590.6649609
614.9005431
1207.722488
1170.489494
698.0445209
1199.414406
1540.34505
780.8535856
1262.357904
1245.991605
2235.211646
1540.472165
1515.479394
1693.249312
1638.543866
2363.147146
3505.756237
3276.912542
2134.839206
3125.45958
3278.478459
2941.347389
3096.93703
2097.279696
3143.195583
3074.065807
3958.265815
2937.883653
978.1501604
970.4307941
1445.636614
1490.510598
931.1659352
927.9641586
1468.727033
1480.523178
1447.768195
1459.723275
859.8479623
863.7835941
1390.357457
1356.448146
852.6447164
856.1518348
895.3137528
899.6839074
1451.818492
1433.975928
886.3785068
890.9076796
4236.087432
2607.24528
2621.039042
2576.667351
2589.756211
4221.972021
4208.479997
2874.423987
3324.416592
2651.008162
2714.377719
4192.707753
963.2304102
1529.894239
1519.7926
1544.037842
1537.441817
965.0728568
950.4947179
1485.652686
1468.204792
1510.316388
1499.032711
956.2513491
986.7956896
1588.070135
1578.300524
1602.419718
1592.933959
989.3002795
971.9860845
1556.941275
1551.166145
1572.473865
1563.548991
974.6764676
1529.013458
1532.845905
659.6259034
949.3506821
946.7020553
955.8320709
953.6734961
664.1700766
1518.786296
1523.221081
1593.811045
1511.358128
732.3162503
1011.334944
1020.909971
1433.433024
1380.693961
809.6581031
675.8778914
962.8286447
961.7319844
970.2467832
973.9088078
685.8830448
1561.383479
1554.294767
5054.121759
4915.124398
5247.906981
3649.763201
4290.825663
2975.384596
4875.535144
4939.394226
4860.675623
4872.997207
3038.423843
2180.289717
4152.886871
3515.622409
4785.994743
4921.678651
2516.026841
1043.221708
736.0560894
737.8411981
722.4750285
725.0383731
1031.253244
1660.625041
1674.260506
1630.932476
1647.387591
1618.758125
2050.261182
1482.478843
868.5930615
955.7055759
763.8877575
786.2462271
1083.711154
1429.986267
1971.081887
1563.457891
1487.349733
1008.386158
1615.931284
1602.977446
1651.572813
1608.399222
1004.553731
1594.242813
1605.763718
1555.890642
1567.430607
5372.849899
3498.043665
3739.052513
2622.280125
3136.081887
5463.950003
5501.584429
5327.039378
4071.468006
4664.284349
5846.26998
5704.636703
4277.291641
4531.902002
3394.350513
3852.234141
5879.349685
1731.076908
1732.115598
1714.308035
1717.622511
1145.263549
1157.044783
805.450637
1792.875564
1696.022074
1749.808954
1740.555461
1688.525558
1055.627477
1063.396203
1048.409091
1053.834583
1684.829419
1724.877938
1076.684867
1133.057097
1064.993006
1079.553099
1728.040314
5554.613811
826.2891491
831.8363953
1197.374926
5775.553359
8653.31509
9002.450939
8472.925563
8490.148866
6391.933586
1827.017891
6356.727377
4554.801816
4938.99779
1118.878247
1764.851987
1748.613691
6361.632014
6985.461709
6735.434911
5504.171859
5994.887195
7394.520468
7036.405483
4518.857829
6667.223613
5739.730802
2182.529481
1756.281069
1181.103225
31.76938933
31.78077682
31.86481168
31.78559717
31.80631428
31.87742953
31.81437872
31.84659739
31.897862
31.85826385
31.89736783
31.92461074
31.91030314
31.94414536
31.94987538
31.94985094
31.96119657
31.96056656
31.96117618
31.94808743
31.95459752
31.94067474
31.90692869
31.93295013
31.89612582
31.86013549
31.90709267
31.84959868
31.81902694
31.88529723
31.65838885
31.68264693
31.75444682
31.69354515
31.73868446
31.78560828
31.75724802
31.82700252
31.83525889
31.85212425
31.93589266
31.89786441
31.96009116
32.01948369
31.95018489
32.03239314
32.05442995
31.97012079
32.04464463
32.0168217
31.9535312
31.99827404
31.93457123
31.90738292
31.91177745
31.84227061
31.85011386
31.8197771
31.76023364
31.80052914
31.56141643
31.61147171
31.66172175
31.63440871
31.72739334
31.72921075
31.76676862
31.92303124
31.83513892
31.98425227
32.18998483
31.96598267
32.23234801
32.38445183
32.08405807
32.41862757
32.45229078
32.10452314
32.39886645
32.31276969
32.05345177
32.2593469
32.10893734
31.95648584
32.05770778
31.90961369
31.84829908
31.86520914
31.75179675
31.75146678
31.48450293
31.57536336
31.59899639
31.61939589
31.81149457
31.73664095
31.90271856
32.28417328
31.9796758
32.4467402
33.08974505
32.29718317
33.23369799
33.79737504
32.61070729
33.88278482
33.90419336
32.61503622
33.64477488
33.22359726
32.43422236
33.04304127
32.60869858
32.18367732
32.48031155
32.14829098
31.94791649
32.05562412
31.83108724
31.76067616
31.43377429
31.58791073
31.57473052
31.66921413
32.05471089
31.8549827
32.24767761
33.16684756
32.43889308
33.63801207
36.14796377
33.44079841
37.14685525
43.32492603
34.74298625
43.42018986
40.91647714
34.5428104
38.77156517
35.92590925
33.6030719
35.20633501
33.78122679
32.79965499
33.44256105
32.67537113
32.24317907
32.48117808
32.0350569
31.86699945
31.40323952
31.65254958
31.59898256
31.78727288
32.4569488
32.13916054
32.81673959
34.73869514
33.49892387
35.90591895
46.81026851
37.28763143
43.46154804
50.19072126
41.67471599
62.80491053
60.63392563
46.14922764
49.0062301
43.15233383
40.4328393
40.54893393
36.11836339
34.20468204
35.28072555
33.59616333
32.85950506
33.21692315
32.40092857
32.10878549
31.38940123
31.75109712
31.67186613
31.94579302
32.92297832
32.56677735
33.45638397
36.38442486
35.18286738
37.15258472
39.40665822
38.55882718
56.57428549
64.3819232
61.22000943
94.84002782
67.47365572
56.40493402
49.64220119
39.70117193
36.86388582
38.03951435
34.93633473
33.8915952
34.28106138
32.92333835
32.51626883
31.3929493
31.8689823
31.77981764
32.12038307
33.35896066
33.03723231
34.02313479
37.55932519
36.714943
39.00624914
41.92967948
41.4142629
66.36632681
78.89427156
77.50523836
151.1199874
93.7000565
84.25577774
58.71373799
43.63030043
40.61944889
41.11528942
36.4601928
35.28529767
35.49735826
33.53617781
33.06929435
31.40863113
31.99421554
31.90013154
32.29652573
33.75114034
33.4605316
34.51479009
38.49547466
37.79719843
40.28904719
43.64586547
43.21134166
74.38706606
98.57627092
95.61550479
170.6256172
108.1979395
104.3441764
64.65490173
46.86647678
44.443351
43.74176926
37.90065467
36.81480981
36.66496004
34.14875517
33.6897784
31.43379474
32.12328508
32.02740993
32.47280744
34.12429297
33.84574204
34.97965651
39.43459193
38.71028567
41.52817906
45.50759444
44.91603207
84.54346672
115.8366937
112.207684