/*--------------------------------*- C++ -*----------------------------------*\
| =========                 |                                                 |
| \\      /  F ield         | OpenFOAM: The Open Source CFD Toolbox           |
|  \\    /   O peration     | Version:  v1912                                 |
|   \\  /    A nd           | Website:  www.openfoam.com                      |
|    \\/     M anipulation  |                                                 |
\*---------------------------------------------------------------------------*/
FoamFile
{
    version     2.0;
    format      ascii;
    class       pointVectorField;
    location    "0.3";
    object      pointDisplacement;
}
// * * * * * * * * * * * * * * * * * * * * * * * * * * * * * * * * * * * * * //

dimensions      [0 1 0 0 0 0 0];


internalField   nonuniform List<vector> 
26316
(
(0 0 0)
(0 0 0)
(0 0 0)
(0 0 0)
(0 0 0)
(0 0 0)
(0 0 0)
(0 0 0)
(0 0 0)
(0 0 0)
(0 0 0)
(0 0 0)
(0 0 0)
(0 0 0)
(0 0 0)
(0 0 0)
(0 0 0)
(0 0 0)
(0 0 0)
(0 0 0)
(0 0 0)
(0 0 0)
(0 0 0)
(0 0 0)
(0 0 0)
(0 0 0)
(0 0 0)
(0 0 0)
(0 0 0)
(0 0 0)
(0 0 0)
(0 0 0)
(0 0 0)
(0 0 0)
(0 0 0)
(0 0 0)
(0 0 0)
(0 0 0)
(0 0 0)
(0 0 0)
(0 0 0)
(0 0 0)
(0 0 0)
(0 0 0)
(0 0 0)
(0 0 0)
(0 0 0)
(0 0 0)
(0 0 0)
(0 0 0)
(0 0 0)
(0 0 0)
(0 0 0)
(0 0 0)
(0 0 0)
(0 0 0)
(0 0 0)
(0 0 0)
(0 0 0)
(0 0 0)
(0 0 0)
(0 0 0)
(0 0 0)
(0 0 0)
(0 0 0)
(0 0 0)
(0 0 0)
(0 0 0)
(0 0 0)
(0 0 0)
(0 0 0)
(0 0 0)
(0 0 0)
(0 0 0)
(0 0 0)
(0 0 0)
(0 0 0)
(0 0 0)
(0 0 0)
(0 0 0)
(0 0 0)
(0 0 0)
(0 0 0)
(0 0 0)
(0 0 0)
(0 0 0)
(0 0 0)
(0 0 0)
(0 0 0)
(0 0 0)
(0 0 0)
(0 0 0)
(0 0 0)
(0 0 0)
(0 0 0)
(0 0 0)
(0 0 0)
(0 0 0)
(0 0 0)
(0 0 0)
(0 0 0)
(0 0 0)
(0 0 0)
(0 0 0)
(0 0 0)
(0 0 0)
(0 0 0)
(0 0 0)
(0 0 0)
(0 0 0)
(0 0 0)
(0 0 0)
(0 0 0)
(0 0 0)
(0 0 0)
(0 0 0)
(0 0 0)
(0 0 0)
(0 0 0)
(-3.781291373e-07 8.113836472e-06 2.775557562e-17)
(0 0 0)
(0 0 0)
(-2.08975234e-07 9.088753047e-05 3.330669074e-16)
(9.630409371e-07 7.726022512e-05 2.775557562e-16)
(0 0 0)
(0 0 0)
(0 0 0)
(0 0 0)
(0 0 0)
(0 0 0)
(0 0 0)
(0 0 0)
(0 0 0)
(0 0 0)
(0 0 0)
(0 0 0)
(0 0 0)
(0 0 0)
(0 0 0)
(0 0 0)
(0 0 0)
(0 0 0)
(0 0 0)
(0 0 0)
(0 0 0)
(0 0 0)
(0 0 0)
(0 0 0)
(0 0 0)
(0 0 0)
(0 0 0)
(0 0 0)
(0 0 0)
(0 0 0)
(0 0 0)
(0 0 0)
(0 0 0)
(0 0 0)
(0 0 0)
(0 0 0)
(0 0 0)
(0 0 0)
(0 0 0)
(0 0 0)
(0 0 0)
(0 0 0)
(0 0 0)
(0 0 0)
(0 0 0)
(0 0 0)
(0 0 0)
(0 0 0)
(0 0 0)
(0 0 0)
(0 0 0)
(0 0 0)
(0 0 0)
(0 0 0)
(0 0 0)
(0 0 0)
(0 0 0)
(0 0 0)
(0 0 0)
(0 0 0)
(0 0 0)
(-2.35573882e-05 0.0001239834413 4.996003611e-16)
(-0.000135577695 0.0007777056272 3.080868893e-15)
(-1.772778756e-06 1.031491027e-05 4.163336342e-17)
(-0.0002574488462 0.002051040756 8.007483565e-15)
(-0.0006394074013 0.005027920385 1.992850329e-14)
(-0.0007589006158 0.006810395403 2.69784195e-14)
(-0.0003538540008 0.003215574827 1.255939797e-14)
(-0.0004310507605 0.006775890193 2.645106356e-14)
(-0.0007559842658 0.01176611687 4.661548925e-14)
(-0.0006312256984 0.01300123794 5.151434834e-14)
(-0.0003713418662 0.00771112994 3.011479954e-14)
(-1.687733366e-05 0.009018580848 3.522182546e-14)
(-2.309877372e-05 0.01469671278 5.823119764e-14)
(0.0002037277663 0.01450716157 5.74817971e-14)
(0.0001199461057 0.00887088372 3.463895837e-14)
(0.0004053136219 0.00680002651 2.656208586e-14)
(0.0007169323252 0.01179838576 4.675426712e-14)
(0.0007865899305 0.01030868258 4.085620731e-14)
(0.0004265830299 0.005692363681 2.223221607e-14)
(0.0002511719778 0.002077037568 8.10462808e-15)
(0.0006230424606 0.00507067675 2.009503675e-14)
(0.0004688597601 0.00338783008 1.341982081e-14)
(0.0001467556609 0.001076959681 4.204969706e-15)
(0 0 0)
(2.471220218e-05 0.0001335211217 5.273559367e-16)
(0 0 0)
(0 0 0)
(0 0 0)
(0 0 0)
(0 0 0)
(0 0 0)
(0 0 0)
(0 0 0)
(0 0 0)
(0 0 0)
(0 0 0)
(0 0 0)
(0 0 0)
(0 0 0)
(0 0 0)
(0 0 0)
(0 0 0)
(0 0 0)
(0 0 0)
(0 0 0)
(0 0 0)
(0 0 0)
(0 0 0)
(0 0 0)
(0 0 0)
(0 0 0)
(0 0 0)
(0 0 0)
(0 0 0)
(0 0 0)
(0 0 0)
(0 0 0)
(0 0 0)
(0 0 0)
(0 0 0)
(0 0 0)
(0 0 0)
(0 0 0)
(0 0 0)
(0 0 0)
(0 0 0)
(0 0 0)
(0 0 0)
(0 0 0)
(0 0 0)
(0 0 0)
(-6.579233853e-05 0.0002452930279 1.026956298e-15)
(-0.000359406956 0.001428866195 6.022959909e-15)
(-8.513480084e-05 0.0003436214493 1.429412144e-15)
(-0.001214725317 0.006124728161 2.536859611e-14)
(-0.0019427664 0.009656300244 4.062028491e-14)
(-0.002478543817 0.01344422621 5.655198532e-14)
(-0.001670028784 0.009186517774 3.805289417e-14)
(-0.002596707011 0.0196530859 8.139322549e-14)
(-0.003435076584 0.02566436398 1.07913678e-13)
(-0.003455320408 0.02952418132 1.241506897e-13)
(-0.002668362976 0.02308556999 9.5617958e-14)
(-0.002087602168 0.03158993386 1.308397835e-13)
(-0.002593960651 0.03886449629 1.63438707e-13)
(-0.002050502243 0.04097792775 1.72334369e-13)
(-0.001665372592 0.03355106788 1.389582893e-13)
(-1.716146156e-05 0.03615884449 1.497968416e-13)
(-5.028555991e-06 0.04376234107 1.841166108e-13)
(0.0007153638075 0.04345424291 1.828398544e-13)
(0.0005685575031 0.03587035262 1.486311074e-13)
(0.002044891533 0.03163183311 1.311034614e-13)
(0.002567896651 0.03890181418 1.637440183e-13)
(0.002990092547 0.03625877488 1.526279103e-13)
(0.00236082195 0.02919810191 1.210281875e-13)
(0.00255294753 0.0197360057 8.180955913e-14)
(0.003391086827 0.02575154367 1.084132784e-13)
(0.003212863928 0.0217006375 9.135747714e-14)
(0.002355227925 0.01618789683 6.709910405e-14)
(0.001202562332 0.006201038314 2.570166302e-14)
(0.00192283107 0.009753179461 4.105049634e-14)
(0.001359574023 0.006366796801 2.679800826e-14)
(0.0007549702818 0.003593193449 1.489086632e-14)
(0 0 0)
(6.531452172e-05 0.0002479790301 1.040834086e-15)
(0 0 0)
(0 0 0)
(0 0 0)
(0 0 0)
(0 0 0)
(0 0 0)
(0 0 0)
(0 0 0)
(0 0 0)
(0 0 0)
(0 0 0)
(0 0 0)
(0 0 0)
(0 0 0)
(0 0 0)
(0 0 0)
(0 0 0)
(0 0 0)
(0 0 0)
(0 0 0)
(0 0 0)
(0 0 0)
(0 0 0)
(0 0 0)
(0 0 0)
(0 0 0)
(0 0 0)
(0 0 0)
(0 0 0)
(0 0 0)
(0 0 0)
(0 0 0)
(0 0 0)
(0 0 0)
(0 0 0)
(0 0 0)
(0 0 0)
(0 0 0)
(0 0 0)
(-2.830613137e-05 8.310302256e-05 3.747002708e-16)
(0 0 0)
(-0.001204843142 0.00428526658 1.891542478e-14)
(-0.001790741552 0.006256964566 2.806088695e-14)
(-0.002802331666 0.01045794592 4.690692279e-14)
(-0.002057646283 0.007810434356 3.445854713e-14)
(-0.004702706943 0.02236427452 9.861556016e-14)
(-0.005707079148 0.02672584064 1.197653088e-13)
(-0.006381875315 0.0326419894 1.462441279e-13)
(-0.005368975554 0.02788314904 1.229294444e-13)
(-0.006110765754 0.04381069965 1.930955396e-13)
(-0.006966289517 0.04920492694 2.20407026e-13)
(-0.006657661543 0.05383616861 2.411681965e-13)
(-0.00589802057 0.04840521656 2.13343232e-13)
(-0.004062701639 0.05875272196 2.590150316e-13)
(-0.00448557938 0.06394550342 2.865346849e-13)
(-0.003456945367 0.06600453169 2.958189249e-13)
(-0.003147452227 0.06093770549 2.687017275e-13)
(4.283220871e-05 0.06370917072 2.810668365e-13)
(5.408515543e-05 0.06855786874 3.074485111e-13)
(0.001260670439 0.06827217403 3.062550213e-13)
(0.001144989961 0.0634002183 2.797762022e-13)
(0.004116115709 0.05874855258 2.594036097e-13)
(0.00456146647 0.06391918 2.869232629e-13)
(0.005445130322 0.06121194386 2.74821832e-13)
(0.00488483654 0.05592863289 2.469968674e-13)
(0.006097299429 0.04386562166 1.937894289e-13)
(0.006967840461 0.04920371087 2.210037708e-13)
(0.007009411618 0.04406366942 1.979250097e-13)
(0.006066348919 0.03884824409 1.716266018e-13)
(0.004646018889 0.02232857718 9.862943795e-14)
(0.005788266017 0.02723036756 1.223465773e-13)
(0.004992458312 0.02167623285 9.742207041e-14)
(0.003958164633 0.01752550751 7.743805597e-14)
(0.001373413862 0.004944736242 2.184363801e-14)
(0.002052321395 0.007262495552 3.262667914e-14)
(0.0011583542 0.003860532507 1.734723476e-14)
(0.0006620110259 0.002244285239 9.908740495e-15)
(0 0 0)
(0 0 0)
(0 0 0)
(0 0 0)
(0 0 0)
(0 0 0)
(0 0 0)
(0 0 0)
(0 0 0)
(0 0 0)
(0 0 0)
(0 0 0)
(0 0 0)
(0 0 0)
(0 0 0)
(0 0 0)
(0 0 0)
(0 0 0)
(0 0 0)
(0 0 0)
(0 0 0)
(0 0 0)
(0 0 0)
(0 0 0)
(0 0 0)
(0 0 0)
(0 0 0)
(0 0 0)
(0 0 0)
(0 0 0)
(0 0 0)
(0 0 0)
(0 0 0)
(0 0 0)
(0 0 0)
(-0.0001308291328 0.0003467108678 1.637578961e-15)
(-0.0002975262856 0.0007746181814 3.719247132e-15)
(-0.001056806233 0.002895448313 1.393329896e-14)
(-0.0007104785481 0.001981209757 9.36750677e-15)
(-0.004176760035 0.01383072579 6.532274721e-14)
(-0.004941283658 0.01607908656 7.72854003e-14)
(-0.006370907435 0.02211918744 1.062899768e-13)
(-0.005523266279 0.0195139188 9.214851104e-14)
(-0.008727788561 0.03862986688 1.822014761e-13)
(-0.009638623315 0.04187417043 2.01047512e-13)
(-0.01016327618 0.04819203219 2.313149672e-13)
(-0.009290343584 0.04492229298 2.118027975e-13)
(-0.009199690291 0.06162205182 2.903233209e-13)
(-0.009766834954 0.06404613153 3.071154442e-13)
(-0.009024467647 0.067798002 3.250733016e-13)
(-0.008530934659 0.06542182849 3.08239545e-13)
(-0.005399338215 0.07305805176 3.443495489e-13)
(-0.005577015002 0.07377734307 3.538835891e-13)
(-0.004205142937 0.07446485607 3.572420137e-13)
(-0.004099516332 0.07422337357 3.499145418e-13)
(4.542875262e-05 0.07534367351 3.554795347e-13)
(2.749806254e-05 0.07480158921 3.591432707e-13)
(0.001445137433 0.0747690078 3.591016373e-13)
(0.001445219983 0.07521908545 3.549938121e-13)
(0.005518478316 0.07305099938 3.450711938e-13)
(0.005672072917 0.07370776615 3.543693117e-13)
(0.006958750273 0.07246719477 3.48526763e-13)
(0.006724131475 0.07130721827 3.36952688e-13)
(0.009256297827 0.06151781608 2.909478214e-13)
(0.009843431493 0.06398560375 3.081701561e-13)
(0.01033156416 0.05972700493 2.878114413e-13)
(0.00961667431 0.05672587087 2.684519274e-13)
(0.008905400733 0.03957973758 1.87377891e-13)
(0.009813285075 0.04282280972 2.063904603e-13)
(0.00899423895 0.03629920674 1.749156375e-13)
(0.008068116219 0.03316395968 1.569855357e-13)
(0.004400079394 0.01476229962 6.983302825e-14)
(0.005185977009 0.01708412993 8.226752612e-14)
(0.003739920461 0.01160833765 5.58858515e-14)
(0.003064396936 0.009686588731 4.581057755e-14)
(0.0002023833956 0.0005445875814 2.581268532e-15)
(0.0003476753118 0.0009186414423 4.413136523e-15)
(8.826415649e-06 2.221091932e-05 1.110223025e-16)
(0 0 0)
(0 0 0)
(0 0 0)
(0 0 0)
(0 0 0)
(0 0 0)
(0 0 0)
(0 0 0)
(0 0 0)
(0 0 0)
(0 0 0)
(0 0 0)
(0 0 0)
(0 0 0)
(0 0 0)
(0 0 0)
(0 0 0)
(0 0 0)
(0 0 0)
(0 0 0)
(0 0 0)
(0 0 0)
(0 0 0)
(0 0 0)
(0 0 0)
(0 0 0)
(0 0 0)
(0 0 0)
(0 0 0)
(-1.245234424e-05 2.685397818e-05 1.387778781e-16)
(-3.397900988e-07 7.472856216e-07 0)
(0 0 0)
(-0.0009340810055 0.002301427549 1.169897512e-14)
(-0.001178967085 0.002850002378 1.476596623e-14)
(-0.002446064902 0.006223345842 3.222422329e-14)
(-0.002086896716 0.005411495723 2.749189765e-14)
(-0.006779721525 0.02088141661 1.059846655e-13)
(-0.007379226615 0.02229756791 1.153244167e-13)
(-0.008965048528 0.02889820467 1.494082635e-13)
(-0.008494672312 0.02791658782 1.416367024e-13)
(-0.01175263825 0.04828443664 2.447764214e-13)
(-0.01223496272 0.04928688689 2.546157729e-13)
(-0.01256181172 0.05517330496 2.849942504e-13)
(-0.01212670078 0.0543297417 2.753908213e-13)
(-0.01095581593 0.0672839084 3.410466354e-13)
(-0.01117807262 0.06720393188 3.471944954e-13)
(-0.01006171167 0.06893882215 3.561873019e-13)
(-0.009929110742 0.06958146236 3.526762216e-13)
(-0.005805530141 0.07087860877 0)
(-0.005883238171 0.06950468943 0)
(-0.005168905359 0.06950595162 0)
(-0.00441571073 0.06953767836 0)
(-0.004370920927 0.07021769959 0)
(-0.004354137271 0.07088164739 0)
(-3.515209124e-05 0.0708418193 0)
(-4.540610804e-05 0.07018151076 0)
(0.0006779959214 0.07017085584 0)
(0.0006843311643 0.07083116312 0)
(0.005781014984 0.07069737143 0)
(0.005792073188 0.07001886716 0)
(0.005808098938 0.06932977652 0)
(0.006527390092 0.06929785681 0)
(0.007236437986 0.06927917061 0)
(0.007226273911 0.0706415274 0)
(0.01097946513 0.06743553966 3.434058593e-13)
(0.01115515833 0.06728880897 3.492622858e-13)
(0.01201963124 0.06457411553 3.352595979e-13)
(0.01175485705 0.06432366386 3.276268146e-13)
(0.01191978615 0.04918755563 2.505912144e-13)
(0.01235164719 0.04998696653 2.596534099e-13)
(0.01173484039 0.04389816329 2.280259315e-13)
(0.01120084596 0.04272904151 2.176869796e-13)
(0.007241921953 0.02253254633 1.147415496e-13)
(0.007920368172 0.02417085851 1.254829574e-13)
(0.006243253257 0.01795340059 9.316158955e-14)
(0.005622965669 0.01648541825 8.391898287e-14)
(0.001253050418 0.003130415929 1.591782262e-14)
(0.001566237939 0.003838249946 1.990074772e-14)
(0.0005611854222 0.001310337731 6.786238238e-15)
(0.0003818286497 0.000908826895 4.62130334e-15)
(0 0 0)
(0 0 0)
(0 0 0)
(0 0 0)
(0 0 0)
(0 0 0)
(0 0 0)
(0 0 0)
(0 0 0)
(0 0 0)
(0 0 0)
(0 0 0)
(0 0 0)
(0 0 0)
(0 0 0)
(0 0 0)
(0 0 0)
(0 0 0)
(0 0 0)
(0 0 0)
(0 0 0)
(0 0 0)
(0 0 0)
(0 0 0)
(0 0 0)
(0 0 0)
(0 0 0)
(0 0 0)
(-0.0001122023679 0.0002228769991 1.276756478e-15)
(-6.394088685e-05 0.0001297270862 7.21644966e-16)
(-5.230921844e-05 0.000108341648 5.967448757e-16)
(-0.001693981227 0.003856541208 2.120525977e-14)
(-0.00175680567 0.003917426022 2.198241589e-14)
(-0.003252979103 0.007633683806 4.282685317e-14)
(-0.003167161482 0.007588418025 4.170275236e-14)
(-0.008522705458 0.02423984411 1.330324739e-13)
(-0.008657716331 0.02411302423 1.350863865e-13)
(-0.01030954505 0.03061924971 1.714739462e-13)
(-0.01016616729 0.03083450675 1.691563556e-13)
(-0.01320576232 0.04997817983 2.739752869e-13)
(-0.01333747573 0.04940891639 2.764732887e-13)
(-0.01351656686 0.05454695 3.052141873e-13)
(-0.01339950721 0.05525526533 3.028688411e-13)
(-0.01151156488 0.06480275156 3.55326879e-13)
(-0.01156107882 0.06363116714 3.561873019e-13)
(-0.01024644911 0.06414315762 0)
(-0.01022376678 0.0654863624 3.591571485e-13)
(-0.005993729497 0.06543760251 0)
(-0.006008215412 0.0647563247 0)
(-0.005303620456 0.06474952135 0)
(-0.005289212934 0.06542972684 0)
(0.005792333519 0.06527571152 0)
(0.00578592278 0.06460091946 0)
(0.006490226142 0.06458724919 0)
(0.006497363122 0.065261031 0)
(0.01137856835 0.06483805178 3.573946694e-13)
(0.01138653162 0.06366157661 3.582550923e-13)
(0.01253156851 0.06234693279 3.509970092e-13)
(0.01247879654 0.06329131867 3.4898473e-13)
(0.01355792543 0.05175876322 2.854938508e-13)
(0.01372221589 0.05135703314 2.892130979e-13)
(0.01325425306 0.04583420137 2.580990976e-13)
(0.01306538916 0.04609394889 2.542133171e-13)
(0.009299070162 0.02674299329 1.473682287e-13)
(0.009509462309 0.02679608451 1.50754409e-13)
(0.007723908426 0.02050177944 1.153105389e-13)
(0.007524972033 0.02038772367 1.122990589e-13)
(0.002272466802 0.005245429293 2.886579864e-14)
(0.002566169428 0.005801193431 3.258504577e-14)
(0.001223979531 0.002636513995 1.480759959e-14)
(0.001007600642 0.002216105854 1.21846977e-14)
(0 0 0)
(0 0 0)
(0 0 0)
(0 0 0)
(0 0 0)
(0 0 0)
(0 0 0)
(0 0 0)
(0 0 0)
(0 0 0)
(0 0 0)
(0 0 0)
(0 0 0)
(0 0 0)
(0 0 0)
(0 0 0)
(0 0 0)
(0 0 0)
(0 0 0)
(0 0 0)
(0 0 0)
(0 0 0)
(0 0 0)
(0 0 0)
(0 0 0)
(0 0 0)
(0 0 0)
(0 0 0)
(-0.0001841863005 0.0003347111107 2.095545959e-15)
(-0.0001663572357 0.0003093385726 1.887379142e-15)
(-0.0001459426665 0.0002775476176 1.665334537e-15)
(-0.002087318942 0.004362443063 2.611799665e-14)
(-0.002158335078 0.004410700356 2.700617507e-14)
(-0.003763911042 0.008094258622 4.952982469e-14)
(-0.003675135413 0.008083074297 4.836409051e-14)
(-0.009194992423 0.02399095992 1.433575481e-13)
(-0.009304898842 0.02373320655 1.450228826e-13)
(-0.01094066309 0.02974478735 1.816741202e-13)
(-0.01083354448 0.0301324865 1.799671523e-13)
(-0.01371557584 0.04751975536 2.836064716e-13)
(-0.01379426228 0.0466957938 2.849942504e-13)
(-0.01389091179 0.05118690835 3.124028813e-13)
(-0.01382554677 0.05215149587 3.112232694e-13)
(-0.01166456117 0.05988415816 3.575750807e-13)
(-0.01169035206 0.05859274636 3.577971253e-13)
(-0.01032549938 0.05879639241 0)
(-0.01030662261 0.06012976988 0)
(-0.006083494232 0.060065582 0)
(-0.00609334152 0.05939843593 0)
(-0.00539056689 0.05938785253 0)
(-0.005380626893 0.06005499717 0)
(0.005725113751 0.05989241135 0)
(0.005714896774 0.05922134535 0)
(0.006417537283 0.05921008399 0)
(0.006427872619 0.05988080815 0)
(0.0113515719 0.05979204486 3.591155151e-13)
(0.0113306206 0.05846025192 3.591571485e-13)
(0.01259296495 0.05776889315 3.550215677e-13)
(0.01259565234 0.05900171005 3.54480334e-13)
(0.01414317016 0.04974594433 2.990108161e-13)
(0.01421383169 0.0489296694 3.008426841e-13)
(0.01388557347 0.04413357574 2.713246294e-13)
(0.01378948737 0.04478990258 2.691874501e-13)
(0.0102642217 0.0271337225 1.629252289e-13)
(0.01041391564 0.02692632793 1.653954751e-13)
(0.008644192128 0.02104705534 1.292299601e-13)
(0.008488865782 0.02113373726 1.268429806e-13)
(0.002942755407 0.006238283773 3.738676035e-14)
(0.003062448845 0.006348010052 3.891331701e-14)
(0.001579314939 0.003119036163 1.910971381e-14)
(0.001488864348 0.003007188121 1.801336857e-14)
(0 0 0)
(0 0 0)
(0 0 0)
(0 0 0)
(0 0 0)
(0 0 0)
(0 0 0)
(0 0 0)
(0 0 0)
(0 0 0)
(0 0 0)
(0 0 0)
(0 0 0)
(0 0 0)
(0 0 0)
(0 0 0)
(0 0 0)
(0 0 0)
(0 0 0)
(0 0 0)
(0 0 0)
(0 0 0)
(0 0 0)
(0 0 0)
(0 0 0)
(0 0 0)
(0 0 0)
(0 0 0)
(-0.0002716986296 0.0004478953436 3.094746681e-15)
(-0.0002449547922 0.0004141351388 2.803313137e-15)
(-0.0002211432381 0.000383209563 2.525757381e-15)
(-0.002335095886 0.00444724511 2.921274334e-14)
(-0.002406695701 0.004472112603 3.011479954e-14)
(-0.004071250309 0.007960006529 5.356826094e-14)
(-0.003983230902 0.007982337543 5.240252676e-14)
(-0.009574781665 0.02274425985 1.490890744e-13)
(-0.009681382059 0.02243290132 1.506988978e-13)
(-0.01130767992 0.0279168982 1.874611577e-13)
(-0.01120417447 0.02836039618 1.858235787e-13)
(-0.01399101556 0.04404126368 2.883387973e-13)
(-0.01406616824 0.04316893523 2.896433093e-13)
(-0.01411816725 0.04713393605 3.162470286e-13)
(-0.01405609603 0.04813996223 3.151645611e-13)
(-0.01176031176 0.05468716468 3.582550923e-13)
(-0.01178352743 0.05338422993 3.584077479e-13)
(-0.01039879344 0.0534740689 0)
(-0.0103806819 0.05480393438 0)
(-0.006160301995 0.05473991263 0)
(-0.006169707421 0.05407535622 0)
(-0.005467888403 0.05406494214 0)
(-0.005463123406 0.05439725029 0)
(-0.005458362708 0.05472928032 0)
(0.005635742871 0.05452987432 0)
(0.005623525445 0.05386137391 0)
(0.006325379664 0.05385123748 0)
(0.006337686456 0.05451952014 0)
(0.01125769714 0.0544425295 3.591293929e-13)
(0.01123052325 0.05309950806 3.59060004e-13)
(0.01246836512 0.05236120129 3.541889004e-13)
(0.01250943488 0.05374755508 3.54674623e-13)
(0.01410408731 0.04538383323 2.99607561e-13)
(0.01403520903 0.04411159682 2.985112157e-13)
(0.01369681134 0.03971863219 2.687572387e-13)
(0.01376987187 0.04088931146 2.699090951e-13)
(0.01029246822 0.02483067299 1.637440183e-13)
(0.01022178153 0.024071497 1.627031843e-13)
(0.008460823877 0.01875435646 1.267042027e-13)
(0.008526279779 0.01936377516 1.276201367e-13)
(0.002979758776 0.005757539489 3.788636072e-14)
(0.002940846002 0.005544882527 3.740063814e-14)
(0.001489774412 0.002675792789 1.804112415e-14)
(0.001517278755 0.002792876494 1.837419106e-14)
(0 0 0)
(0 0 0)
(0 0 0)
(0 0 0)
(0 0 0)
(0 0 0)
(0 0 0)
(0 0 0)
(0 0 0)
(0 0 0)
(0 0 0)
(0 0 0)
(0 0 0)
(0 0 0)
(0 0 0)
(0 0 0)
(0 0 0)
(0 0 0)
(0 0 0)
(0 0 0)
(0 0 0)
(0 0 0)
(0 0 0)
(0 0 0)
(0 0 0)
(0 0 0)
(0 0 0)
(0 0 0)
(-0.0003890915034 0.0005758076541 4.427014311e-15)
(-0.000357291136 0.0005438082531 4.066191828e-15)
(-0.0003265335086 0.0005107600782 3.719247132e-15)
(-0.002630564478 0.004522226746 3.290423489e-14)
(-0.002709435775 0.00453216356 3.388955783e-14)
(-0.004439434453 0.007812525392 5.838385331e-14)
(-0.004344128145 0.007857015466 5.71348524e-14)
(-0.01000755696 0.02143805057 1.556255125e-13)
(-0.01012001881 0.02108923787 1.573186026e-13)
(-0.01173192814 0.02603861373 1.941502514e-13)
(-0.01162342778 0.02652189099 1.924432835e-13)
(-0.01429320722 0.04049327248 2.935707233e-13)
(-0.01437029027 0.03958455374 2.949029909e-13)
(-0.01436753246 0.04302566851 3.20535265e-13)
(-0.01430464501 0.04406387318 3.194527975e-13)
(-0.01184994213 0.04945446916 3.58796326e-13)
(-0.01187095175 0.04813876099 3.589073483e-13)
(-0.01046986581 0.04815149467 0)
(-0.01045232949 0.04948214181 0)
(-0.006234542595 0.0494183456 0)
(-0.006243555831 0.04875316491 0)
(-0.005542942517 0.04874273856 0)
(-0.005538358641 0.04907532771 0)
(-0.005533744817 0.04940785457 0)
(0.005532899266 0.04918961569 0)
(0.005518780169 0.04852207198 0)
(0.006219965502 0.04851265684 0)
(0.00623423625 0.04918001274 0)
(0.01112447013 0.04898510419 3.582273367e-13)
(0.01107469833 0.04755929514 3.575056917e-13)
(0.01218075632 0.04639948731 3.489014633e-13)
(0.01227738506 0.04797083561 3.509276203e-13)
(0.01354975397 0.03953271948 2.892963646e-13)
(0.01326906934 0.03771266487 2.836619828e-13)
(0.01288801519 0.03377019259 2.539635169e-13)
(0.01311881239 0.03529413232 2.582378755e-13)
(0.009472723417 0.02066832309 1.510319647e-13)
(0.009234452752 0.01961496217 1.473265954e-13)
(0.00748695763 0.01496247224 1.123129367e-13)
(0.007709348598 0.0158275015 1.156019724e-13)
(0.002403788324 0.004195208202 3.058664433e-14)
(0.002274760971 0.003863741317 2.896294315e-14)
(0.001011305824 0.001635990279 1.225408663e-14)
(0.001097853846 0.001824954901 1.329492072e-14)
(0 0 0)
(0 0 0)
(0 0 0)
(0 0 0)
(0 0 0)
(0 0 0)
(0 0 0)
(0 0 0)
(0 0 0)
(0 0 0)
(0 0 0)
(0 0 0)
(0 0 0)
(0 0 0)
(0 0 0)
(0 0 0)
(0 0 0)
(0 0 0)
(0 0 0)
(0 0 0)
(0 0 0)
(0 0 0)
(0 0 0)
(0 0 0)
(0 0 0)
(0 0 0)
(0 0 0)
(0 0 0)
(-0.0004917598631 0.0006448015724 5.606626274e-15)
(-0.0005085607903 0.0006882798911 5.800915304e-15)
(-0.0004642436718 0.0006478807676 5.287437155e-15)
(-0.002967256435 0.004550637428 3.71092046e-14)
(-0.003068068253 0.00456291349 3.837208329e-14)
(-0.004867776913 0.007615268415 6.399047958e-14)
(-0.004748156326 0.0076601013 6.242228956e-14)
(-0.01047875815 0.02000651982 1.62717062e-13)
(-0.0106153208 0.01964944322 1.647709746e-13)
(-0.0122072173 0.02405615762 2.016165013e-13)
(-0.01207667445 0.02454966331 1.995625887e-13)
(-0.01461137349 0.03682083162 2.990524495e-13)
(-0.01470047409 0.03589836588 3.005790061e-13)
(-0.01463351288 0.03882545567 3.251010572e-13)
(-0.01456246525 0.03987737253 3.238659341e-13)
(-0.01193054443 0.04417683118 3.591155151e-13)
(-0.0119493374 0.04285070836 3.591571485e-13)
(-0.01053896692 0.04283046642 0)
(-0.01052171351 0.04416080883 0)
(-0.006304629745 0.04409751805 0)
(-0.006313054864 0.0434323901 0)
(-0.005613768001 0.0434221388 0)
(-0.005609491724 0.04375482543 0)
(-0.005605188365 0.04408726436 0)
(0.005415016672 0.04386229376 0)
(0.005398984582 0.04319697427 0)
(0.006099931286 0.0431881192 0)
(0.006116179699 0.04385343535 0)
(0.01087623932 0.04313750034 3.538280779e-13)
(0.01078366476 0.041583306 3.517464098e-13)
(0.01169678697 0.0399367883 3.379241331e-13)
(0.0118462048 0.04162278463 3.414907246e-13)
(0.01247652284 0.03262158874 2.676747712e-13)
(0.01226704553 0.03113963503 2.635114349e-13)
(0.01162253016 0.02717570125 2.299133106e-13)
(0.01199041509 0.02888498907 2.369632268e-13)
(0.008160321733 0.01591507786 1.303956942e-13)
(0.00764867531 0.0144725183 1.222633106e-13)
(0.005927852414 0.01054999767 8.906764215e-14)
(0.006440985483 0.01181596269 9.674205881e-14)
(0.00161387009 0.002514760509 2.055300374e-14)
(0.001409441165 0.002130258039 1.795785742e-14)
(0.0004577237824 0.0006588199548 5.551115123e-15)
(0.0005761263093 0.0008549326582 6.980527267e-15)
(0 0 0)
(0 0 0)
(0 0 0)
(0 0 0)
(0 0 0)
(0 0 0)
(0 0 0)
(0 0 0)
(0 0 0)
(0 0 0)
(0 0 0)
(0 0 0)
(0 0 0)
(0 0 0)
(0 0 0)
(0 0 0)
(0 0 0)
(0 0 0)
(0 0 0)
(0 0 0)
(0 0 0)
(0 0 0)
(0 0 0)
(0 0 0)
(0 0 0)
(0 0 0)
(0 0 0)
(0 0 0)
(-0.000874260972 0.0009986166667 9.964251646e-15)
(-0.000797062364 0.0009442449568 9.076073226e-15)
(-0.0006821611046 0.0008369116559 7.771561172e-15)
(-0.003392022049 0.004572636088 4.241051954e-14)
(-0.003644229881 0.004743550572 4.556077737e-14)
(-0.005525054293 0.007563894803 7.256695245e-14)
(-0.005216925489 0.007396944626 6.854239398e-14)
(-0.01107680135 0.01857121278 1.716959908e-13)
(-0.01128027588 0.01825663632 1.747629819e-13)
(-0.01281221993 0.02206670428 2.111089081e-13)
(-0.012645626 0.02256435002 2.084860062e-13)
(-0.01499244282 0.03311099627 3.056443987e-13)
(-0.01503984916 0.03204885586 3.063105325e-13)
(-0.01494403467 0.0345767463 3.304856389e-13)
(-0.01486312189 0.03564827702 3.290839823e-13)
(-0.01200408253 0.03886153033 0)
(-0.01202315732 0.03753133972 0)
(-0.01061068383 0.03751018954 0)
(-0.01060127362 0.03817505498 0)
(-0.01059204789 0.0388399851 0)
(-0.00637054257 0.03877678054 0)
(-0.006374655734 0.03844464778 0)
(-0.006024917682 0.03843964431 0)
(-0.006020836854 0.03877168484 0)
(-0.000304080859 0.03860413764 0)
(-0.0003104951468 0.0384385559 0)
(-0.0003157961599 0.03827292604 0)
(2.667952333e-05 0.03827152771 0)
(3.891944858e-05 0.03860248392 0)
(0.005271369755 0.03854795063 0)
(0.005250250715 0.03788549172 0)
(0.005228856411 0.03722322252 0)
(0.006634883689 0.03720498484 0)
(0.006675892805 0.03853038532 0)
(0.005973893003 0.03853910211 0)
(0.01043272328 0.03675754097 3.430866702e-13)
(0.01025663134 0.03498629961 3.382155667e-13)
(0.01091167381 0.03288395307 3.179678743e-13)
(0.01119769205 0.03487297198 3.256006575e-13)
(0.01122881807 0.0259199129 2.420008638e-13)
(0.01082567937 0.02415492096 2.335354132e-13)
(0.01002799601 0.02059609611 1.990629883e-13)
(0.01045010398 0.02220817472 2.072786387e-13)
(0.00633905026 0.01088818992 1.014466289e-13)
(0.005957422467 0.00988558385 9.53820356e-14)
(0.004355306437 0.006795534625 6.551703624e-14)
(0.004691236113 0.00757727274 7.055467321e-14)
(0.0006664321126 0.0009136957018 8.493206138e-15)
(0.000541741033 0.0007173875629 6.911138328e-15)
(4.294916852e-05 5.415644119e-05 5.273559367e-16)
(8.205732286e-05 0.0001071297951 9.992007222e-16)
(0 0 0)
(0 0 0)
(0 0 0)
(0 0 0)
(0 0 0)
(0 0 0)
(0 0 0)
(0 0 0)
(0 0 0)
(0 0 0)
(0 0 0)
(0 0 0)
(0 0 0)
(0 0 0)
(0 0 0)
(0 0 0)
(0 0 0)
(0 0 0)
(0 0 0)
(0 0 0)
(0 0 0)
(0 0 0)
(0 0 0)
(0 0 0)
(0 0 0)
(0 0 0)
(0 0 0)
(0 0 0)
(-0.000829076924 0.0008106235541 9.492406861e-15)
(-0.0009369223528 0.0009558141097 1.071365219e-14)
(-0.001001157678 0.001063804061 1.144917494e-14)
(-0.004035501629 0.004713219012 5.068168107e-14)
(-0.0039057641 0.004379550081 4.904410211e-14)
(-0.00582322545 0.006868449414 7.684131109e-14)
(-0.005978624158 0.007345161525 7.890910148e-14)
(-0.0117814888 0.01711765343 1.833949659e-13)
(-0.0115908018 0.01616567295 1.803696081e-13)
(-0.01309799368 0.01944038326 2.1674329e-13)
(-0.01328441903 0.02054189041 2.199213034e-13)
(-0.01531646104 0.02931693997 3.135824933e-13)
(-0.01519062312 0.02789853993 3.107514246e-13)
(-0.01497568411 0.02986955721 3.327338405e-13)
(-0.01506753416 0.0313265147 3.3512082e-13)
(-0.01192430563 0.0335253114 0)
(-0.01194486712 0.03219492739 0)
(-0.01052844852 0.03217303621 0)
(-0.01051817016 0.0328380737 0)
(-0.01050788703 0.03350342022 0)
(-0.006258693039 0.03343774762 0)
(-0.006268976173 0.0327724011 0)
(-0.005560797777 0.03276145599 0)
(-0.005555653822 0.03309428377 0)
(-0.005550514643 0.03342680251 0)
(-0.005904603841 0.03343227507 0)
(-0.0005931123697 0.03335018434 0)
(-0.0005982509567 0.03301766559 0)
(-0.0006033946158 0.0326848378 0)
(0.0001048055403 0.03267389235 0)
(0.0001150886746 0.03333923887 0)
(0.005072470331 0.03326262102 0)
(0.005051908839 0.03193223701 0)
(0.006445113153 0.03178868771 3.577971253e-13)
(0.006484057099 0.03321452166 3.588795927e-13)
(0.009739221437 0.02992829157 3.23935323e-13)
(0.009501637875 0.02812567063 3.170241847e-13)
(0.009942966204 0.0259459829 2.925160114e-13)
(0.01023037959 0.027733759 3.002459392e-13)
(0.0094256811 0.01884333828 2.039340918e-13)
(0.009045178028 0.01738214572 1.959127305e-13)
(0.008049774257 0.0142221086 1.60232938e-13)
(0.008601435191 0.01581763256 1.711270015e-13)
(0.004495347389 0.006672001007 7.203959651e-14)
(0.003917118295 0.005584686558 6.279698983e-14)
(0.002659989163 0.003564946615 4.005129561e-14)
(0.003031302387 0.004229495865 4.56440441e-14)
(0.0001115279327 0.0001320283917 1.415534356e-15)
(5.037561299e-05 5.727717601e-05 6.383782392e-16)
(0 0 0)
(0 0 0)
(0 0 0)
(0 0 0)
(0 0 0)
(0 0 0)
(0 0 0)
(0 0 0)
(0 0 0)
(0 0 0)
(0 0 0)
(0 0 0)
(0 0 0)
(0 0 0)
(0 0 0)
(0 0 0)
(0 0 0)
(0 0 0)
(0 0 0)
(0 0 0)
(0 0 0)
(0 0 0)
(0 0 0)
(0 0 0)
(0 0 0)
(0 0 0)
(0 0 0)
(0 0 0)
(0 0 0)
(0 0 0)
(-0.0001936692147 0.0001564990555 2.220446049e-15)
(-0.000351402748 0.0002988629875 4.024558464e-15)
(-0.0005220559086 0.0004661478062 5.967448757e-15)
(-0.002993173538 0.002937631351 3.759492717e-14)
(-0.002557524915 0.002390866408 3.212707878e-14)
(-0.004163594399 0.00409439474 5.496991751e-14)
(-0.004709377593 0.004861874399 6.215861159e-14)
(-0.01015694286 0.0123978326 1.580402476e-13)
(-0.009417632097 0.01095070889 1.465771948e-13)
(-0.01091734283 0.01350813293 1.806471639e-13)
(-0.01166757371 0.01515427038 1.930122728e-13)
(-0.01410466709 0.02265144717 2.881306305e-13)
(-0.01348470414 0.02062808456 2.754602102e-13)
(-0.01357191238 0.02253460752 3.00912073e-13)
(-0.01410163078 0.02458328512 3.126943149e-13)
(-0.01187200124 0.02789649993 3.552852457e-13)
(-0.011688225 0.02613834898 3.494149414e-13)
(-0.01051682567 0.02662172654 3.561179129e-13)
(-0.01058357136 0.02816440201 3.589489816e-13)
(-0.006340948561 0.02811559352 0)
(-0.006361514829 0.02678490048 0)
(-0.004945127134 0.02676300978 0)
(-0.004924560865 0.02809370282 0)
(-0.005632770165 0.02810464841 0)
(-0.0006753668757 0.02802803022 0)
(-0.0006959331442 0.02669733718 0)
(0.0007204638222 0.02667544633 0)
(0.0007410300908 0.02800613937 0)
(0.00494979381 0.02769201531 3.559652573e-13)
(0.004860150479 0.02596406355 3.504280199e-13)
(0.006064429467 0.02515085655 3.396866122e-13)
(0.006218304223 0.02703935377 3.478189958e-13)
(0.00871083127 0.0226086619 2.912114994e-13)
(0.008334533594 0.02060361679 2.786243458e-13)
(0.008485531235 0.01847317467 2.498418139e-13)
(0.008925341604 0.02040343855 2.628453011e-13)
(0.007480833071 0.01259361827 1.620925616e-13)
(0.006948774264 0.01113923564 1.505046088e-13)
(0.005885796875 0.008676479523 1.171562847e-13)
(0.006406451686 0.009917344828 1.275785033e-13)
(0.002505862112 0.00313047577 4.019007349e-14)
(0.002152784462 0.002561391838 3.451405828e-14)
(0.001100863548 0.001231427058 1.658395643e-14)
(0.001495567053 0.001756528903 2.25375274e-14)
(0 0 0)
(0 0 0)
(0 0 0)
(0 0 0)
(0 0 0)
(0 0 0)
(0 0 0)
(0 0 0)
(0 0 0)
(0 0 0)
(0 0 0)
(0 0 0)