/*--------------------------------*- C++ -*----------------------------------*\
| =========                 |                                                 |
| \\      /  F ield         | OpenFOAM: The Open Source CFD Toolbox           |
|  \\    /   O peration     | Version:  v1912                                 |
|   \\  /    A nd           | Website:  www.openfoam.com                      |
|    \\/     M anipulation  |                                                 |
\*---------------------------------------------------------------------------*/
FoamFile
{
    version     2.0;
    format      ascii;
    class       volScalarField;
    location    "0.9";
    object      k;
}
// * * * * * * * * * * * * * * * * * * * * * * * * * * * * * * * * * * * * * //

dimensions      [0 2 -2 0 0 0 0];


internalField   nonuniform List<scalar> 
12556
(
36.90869681
36.90874823
36.90882592
36.90895738
36.95445003
36.95505908
36.95612955
36.95844292
36.96289923
36.97027781
36.98041923
36.99042222
36.99574394
36.99424022
36.98679831
36.97669639
36.9678953
36.96152186
36.95800497
36.95589669
36.9097586
36.90904676
36.90867825
36.90842438
36.72748181
36.72770249
36.72799346
36.72860872
36.77431037
36.77734978
36.78347806
36.81476838
36.83523959
36.86942295
36.91687896
36.96700107
36.99754898
36.9931734
36.95943814
36.91112892
36.86747709
36.83581328
36.79458736
36.78250155
36.73175165
36.72916716
36.72791918
36.72723587
36.54744745
36.5479777
36.54871026
36.55008865
36.5970631
36.60457149
36.61902798
36.66400399
36.7130166
36.79311177
36.89730009
36.98548567
37.03314029
37.02997118
36.97653176
36.88645646
36.78724223
36.71507001
36.64442909
36.61713116
36.55830672
36.55260161
36.5498344
36.54868143
36.36881268
36.36942756
36.37072426
36.37390088
36.42300078
36.43836514
36.46912601
36.54027598
36.64176427
36.79040201
36.94394907
37.0756093
37.14943128
37.14446233
37.06473535
36.93041124
36.77749545
36.63716096
36.51925532
36.46621377
36.39163862
36.38045058
36.3750437
36.37290313
36.19202197
36.19293629
36.19529422
36.20130771
36.25473615
36.28194063
36.34038244
36.45392726
36.63684595
36.85127222
37.08611176
37.30536596
37.43633952
37.42090771
37.28242442
37.06594759
36.83571566
36.62954336
36.43239633
36.33464759
36.23309993
36.21263874
36.20299128
36.19919527
36.01666633
36.01802613
36.02201062
36.03243093
36.09334888
36.13915729
36.24009419
36.41846564
36.67301037
36.98706105
37.37997555
37.83055115
38.13727303
38.0668612
37.72481375
37.34275138
36.97911533
36.67425289
36.39209073
36.22727122
36.08587525
36.04908264
36.03299677
36.02664216
35.84360242
35.84588847
35.85264951
35.86876754
35.93990048
36.01059654
36.16943402
36.41947201
36.75931688
37.21854246
37.90479408
39.06531059
39.837673
39.66238355
38.55726854
37.8073375
37.22148266
36.77517978
36.39882146
36.14877617
35.94860752
35.89023486
35.86476937
35.85478422
35.67354417
35.67701472
35.68720193
35.71138678
35.79697404
35.89794643
36.12591288
36.43986491
36.88327691
37.52482858
38.64214393
41.19529706
42.29805673
39.92213835
38.48094216
37.56041802
36.92822247
36.43155233
36.09642809
35.82361279
35.73705164
35.69902589
35.68428978
35.50854053
35.5139237
35.52915525
35.56493573
35.66322771
35.80168595
36.10017873
36.47562388
37.02454792
37.8367592
39.30671621
43.02696979
46.65900444
41.61406299
39.29698423
37.9717615
37.11989263
36.48392109
36.06663429
35.71123993
35.59139825
35.53799541
35.51747502
35.34975255
35.35717177
35.37771866
35.42574173
35.53932957
35.71977756
36.08407181
36.52000764
37.16414792
38.10804226
39.77753253
43.82368187
49.79019625
43.16057496
40.1128468
38.3961072
37.32746576
36.54983275
36.05270934
35.61292173
35.45609313
35.38505316
35.35771665
35.19925698
35.20951501
35.23695476
35.29983992
35.4269478
35.64947875
36.0741113
36.56682443
37.29375252
38.34222655
40.16027604
43.86689795
51.36381774
44.31117297
40.80127286
38.77915594
37.52635863
36.61885487
36.0495858
35.52762348
35.33330215
35.24355006
35.20867397
35.05683956
35.06959093
35.10312194
35.1800022
35.32431554
35.58716782
36.06825898
36.61293892
37.4150181
38.55934013
40.52824913
43.46343158
52.04297732
45.05629503
41.31387117
39.0891971
37.69974036
36.68223032
36.04934139
35.45570842
35.22357007
35.1152828
35.07251492
34.92329714
34.93928464
34.98137028
35.07395756
35.22868428
35.52815438
36.05778677
36.65715302
37.52851057
38.77177718
40.93309665
42.91466342
47.96698373
51.84996285
45.47266214
41.65002148
39.30761141
37.83419538
36.73296365
36.04563775
35.39115412
35.12620148
34.99995677
34.94969365
34.79658975
34.81551598
34.86512105
34.97012721
35.14757143
35.49246556
36.07150045
36.71702573
37.66050582
39.02414374
41.40147285
41.59958015
56.22674191
51.82054247
45.63473817
41.80570623
39.441418
37.92822884
36.76836077
36.03365056
35.32873696
35.03760015
34.89514902
34.83802463
34.67577794
34.69743617
34.75379194
34.87010041
35.06236152
35.43790422
36.05637849
36.7618752
37.77940535
39.24968167
41.70253393
37.85648215
55.75815661
51.27836992
45.48318859
41.81083135
39.49313336
37.98163124
36.78178408
36.00851267
35.26615137
34.95380679
34.79738165
34.73446809
34.55770052
34.58185542
34.64402832
34.77066929
34.97691093
35.37632592
36.02599368
36.7950742
37.90623622
39.49823807
41.84203832
32.46604
53.8273856
50.15760909
45.07692138
41.68319645
39.47707953
37.98877734
36.76873564
35.96590993
35.19663947
34.86876712
34.70215726
34.63444972
34.44166962
34.4679772
34.5347033
34.66982048
34.88800553
35.30498546
35.97690562
36.79279376
38.01141659
39.73456448
41.52854011
26.56822377
52.13407288
48.82188125
44.44583182
41.45203161
39.41723661
37.95526939
36.71711741
35.90428433
35.11983616
34.78161029
34.60638253
34.53471253
34.32414904
34.35226801
34.42258559
34.56490111
34.79349846
35.2223682
35.90859648
36.7458496
38.03325112
39.82039528
40.71577708
24.84517702
50.59081074
47.57877626
43.81756364
41.17924504
39.28764142
37.86504823
36.63128557
35.81953485
35.02981875
34.68552054
34.50612559
34.43146228
34.2061948
34.2357384
34.30850516
34.45590017
34.6921717
35.12829936
35.82201993
36.66992854
37.96318392
39.69631788
39.50496844
24.78519918
49.21213432
46.61890319
43.33215383
40.91210673
39.11036916
37.7342077
36.52027466
35.71672594
34.92894592
34.58215915
34.40030555
34.32394699
34.08414125
34.11478354
34.18939646
34.34101659
34.58376999
35.0236002
35.71952887
36.57108164
37.85468159
39.4505995
38.47073215
24.03982136
47.94285253
45.91407546
42.91429506
40.63238144
38.90892286
37.57759736
36.39041523
35.59880059
34.81711575
34.46997814
34.28693261
34.20945266
33.96144395
33.99284415
34.06844137
34.22224738
34.46861803
34.90962594
35.60404993
36.4545028
37.71884297
39.15611264
37.502885
23.32314303
46.75374165
45.25647617
42.51815725
40.35327805
38.69681207
37.40581287
36.24674923
35.46887693
34.69692834
34.35152079
34.16827554
34.09014755
33.83337443
33.86530666
33.9417407
34.09771526
34.34760162
34.78800441
35.47847085
36.32458627
37.56222076
38.82455141
36.60062272
22.75746988
45.63367097
44.63348588
42.14288831
40.08128913
38.48174993
37.22599949
36.09345049
35.32993582
34.56839042
34.22511738
34.04196738
33.96346092
33.70634181
33.73856304
33.81519067
33.97138586
34.22169855
34.66036909
35.34528236
36.18481041
37.38963118
38.46901527
35.76861403
22.27035337
44.56965637
44.03909614
41.78416789
39.8190348
38.26823985
37.04281105
35.93406567
35.18455585
34.43535135
34.09540831
33.91273905
33.83405058
33.57291537
33.60532859
33.68239041
33.83984864
34.0921293
34.52826634
35.20660276
36.03789787
37.20467093
38.10261836
35.00796808
21.82088758
43.55100409
43.46815764
41.43827539
39.56650786
38.0587673
36.85924325
35.77137466
35.03493304
34.2963191
33.95884281
33.77637763
33.69752872
33.44359649
33.47604187
33.55294594
33.70945227
33.95978782
34.39304418
35.06424544
35.88602913
37.00980349
37.73201678
34.3170749
21.38617688
42.56757123
42.91615002
41.10280078
39.32256507
37.85448852
36.67724473
35.60741455
34.88274249
34.15657452
33.82271789
33.64067684
33.56171833
33.30594719
33.33842673
33.4157017
33.57344842
33.82573576
34.25580657
34.91966309
35.73076833
36.80665298
37.36202333
33.69413246
20.95579409
41.61725513
42.37939684
40.77602548
39.08593722
37.65568958
36.49795827
35.44358629
34.72933678
34.01167547
33.6795531
33.4973506
33.41816433
33.17696461
33.20936545
33.28633962
33.44230603
33.69046096
34.1174304
34.77393151
35.57312332
36.59662104
36.99646462
33.13425499
20.53195968
40.69585334
41.85550378
40.45671408
38.85561576
37.46223956
36.32200097
35.28085105
34.57562101
33.86998416
33.54142578
33.35937935
33.27997405
33.03570164
33.06808542
33.14549927
33.30322367
33.5548607
33.97856759
34.62776551
35.41367705
36.38132669
36.63791205
32.62827693
20.12632924
39.79959338
41.34290511
40.14388422
38.6307648
37.27378646
36.14961959
35.11981121
34.42240563
33.72177502
33.39372736
33.21104447
33.13122804
32.90991398
32.94219398
33.01926374
33.17442104
33.41894442
33.83971057
34.48165506
35.25282877
36.16244136
36.28739553
32.16602448
19.74556851
38.93042639
40.84090065
39.83671919
38.41068848
37.0899206
35.98086978
34.96085635
34.27004844
33.58197546
33.25757006
33.07477973
32.9945826
32.76452608
32.79679234
32.87438222
33.032112
33.28367186
33.70125751
34.3359321
35.09090572
35.94142069
35.94539175
31.74060324
19.39972313
38.09026526
40.34836918
39.53446466
38.19475148
36.91019678
35.81566898
34.80421764
34.1191323
33.43085731
33.10548248
32.92163037
32.84081364
32.64529125
32.67747744
32.75477847
32.90920947
33.14854022
33.56352553
34.19085612
34.92822757
35.71963357
35.61221261
31.34712452
19.09040115
37.27803862
39.86528607
39.23650066
37.98239746
36.73417874
35.65387084
34.65003546
33.96961828
33.29697523
32.97555017
32.79136595
32.71002677
32.49372217
32.52592701
32.6037612
32.76149604
33.01492405
33.42683152
34.04666043
34.76512279
35.49806577
35.28798412
30.98110118
18.8202275
36.4935401
39.3918885
38.94238554
37.77315394
36.5614527
35.49526717
34.49838298
33.82214621
33.1406941
32.81686799
32.63133296
32.54917427
32.38554376
32.41771526
32.49545529
32.64976355
32.88162636
33.2914721
33.90360569
34.60188319
35.27740771
34.97246029
30.6380207
18.59282612
35.73734261
38.92834957
38.65174406
37.56656999
36.39159461
35.3395863
34.34934538
33.67629809
33.01873193
32.69889477
32.51279209
32.4300355
32.22359621
32.25583454
32.33401673
32.49111984
32.75118699
33.15802218
33.76210158
34.43882069
35.05807146
34.66520138
30.3138806
18.40971553
35.01032643
38.47351377
38.36428481
37.36224877
36.22423029
35.18663273
34.20326069
33.53340169
32.85056679
32.52818487
32.34061461
32.25683996
32.13277854
32.16505624
32.24343469
32.39951026
32.62194494
33.0275964
33.62339847
34.27619278
34.84050397
34.36582775
30.00586646
18.27195828
34.31404511
38.02694958
38.07976238
37.15979751
36.05898435
35.03611688
34.06130242
33.3934394
32.75163411
32.43067338
32.24230239
32.15792851
31.92619743
31.9586492
32.03768573
32.19605865
32.50066595
32.90320058
33.49195156
34.11463237
34.62587763
34.07624928
29.71394843
18.17224381
33.65346514
37.59293429
37.79972777
36.95950966
35.89583015
34.88789727
33.92733819
33.26191178
32.53530483
32.21203517
32.0216515
31.93585123
42.88299551
47.13840371
42.65237713
43.76635353
50.61991856
47.57898643
43.89843596
52.29666745
50.91592756
43.5257966
52.97970291
52.41048405
42.95286652
43.5790262
47.00192683
53.28030629
53.01928518
42.04550631
53.52445763
43.99047882
55.90055413
53.77282095
53.30386515
40.86991031
39.77580531
42.21465604
39.5898411
50.30303855
44.08956351
46.16434674
42.01514068
40.44315391
39.67241333
42.89695476
42.18047015
55.08268845
56.05930021
49.49887783
43.95497063
42.53432416
40.06950376
43.31191233
42.97694948
43.93026764
45.48951719
46.39236292
54.39187005
53.84910071
51.23583984
45.3658745
44.35978011
40.44752984
43.27145931
43.32339625
43.74022464
42.16782856
43.98121625
55.59877098
54.93245176
40.83994834
43.04151043
43.25428637
43.24284119
37.7851862
40.02437547
39.63883166
56.27658575
56.05606089
41.31441061
42.54536631
42.99927776
42.60735218
32.40908886
34.76226626
40.63551856
54.72786264
53.85254576
46.84480031
48.47076365
43.20336264
46.4796587
55.92671686
50.61624133
45.16568569
49.73833112
54.6057158
46.50549698
47.19754072
43.4893818
47.77930941
46.57227362
48.53959168
47.92060628
53.90959898
54.9250095
49.2829393
55.70368557
55.1163091
54.82484867
55.76226037
49.04605486
44.1560608
45.33732377
43.93805252
45.02862863
43.35262155
46.49415281
45.1324466
54.80850383
54.46819217
51.83215061
55.6094638
55.81695139
55.08811258
55.56045538
51.64587488
40.148607
42.05437967
43.6913487
41.17839013
38.85266776
43.23980397
41.30704464
56.0209672
55.66537584
34.90461891
37.62313055
43.20983823
40.18606079
35.84877126
33.0289247
38.7189847
36.04197963
40.76176091
56.558652
56.30615626
39.63776407
40.05232105
32.35023443
42.56190737
50.47311987
32.05475542
73.79783384
32.94930987
32.05948873
49.81183562
39.1620264
42.04745612
40.57496337
42.08042151
45.57157788
42.82282359
59.9554958
46.40458982
43.39339008
47.27897301
47.38018898
45.28658351
52.00384396
46.25526393
45.6295834
50.939758
50.2283265
48.86428679
52.91344646
56.84817152
56.64022336
47.23451113
45.85491669
42.32090123
53.49538991
45.04874788
51.64825497
43.71794575
48.84808781
44.56848519
48.47585912
44.88896247
52.77541281
55.96390735
56.08463022
55.83267637
55.94892095
52.70603103
40.1368084
45.61685408
46.35108087
41.32092236
40.91671543
42.79643584
43.63263901
41.39057914
41.38025236
63.99718365
47.50133589
59.57643154
45.63887375
56.4678196
46.70874514
56.15571844
56.23355992
54.06129439
54.02652356
41.16429361
43.58965249
55.35855657
41.50029065
43.4680914
44.8986277
41.5460925
55.27841635
39.00133393
42.79117655
42.46333202
52.76911846
50.96798792
46.73740381
33.85397959
40.7393543
40.27018031
41.33452966
40.90702725
34.00667944
57.33860253
53.91024922
47.66725961
54.19303653
55.14951716
50.24676606
53.89016337
47.88924228
44.70477883
49.52071054
44.49140721
54.47419306
50.21388697
45.2197264
52.27225447
57.17619856
53.88152262
53.49952932
47.20990917
43.60055856
47.13235113
48.39412042
46.74633221
49.74603274
43.96609148
46.35021015
48.29351573
54.49803824
54.59093156
55.40774828
53.0459492
52.43923079
53.66051476
53.21663645
55.36244046
55.81676195
51.10683079
50.10078076
52.20851036
51.405995
55.87078605
44.26646838
44.15808056
45.90304581
45.81690795
54.93409049
45.41481195
54.87863352
40.25810805
40.09919223
42.33543278
42.20409458
43.98345664
47.76629578
55.83988333
44.20769292
41.22202166
36.57492415
41.87160426
41.47448275
42.35017267
41.99579941
36.71174947
39.76795844
35.02114286
34.90220797
37.78251278
37.64846961
52.0876811
41.45823292
54.4635192
53.2634985
40.09048532
39.65002926
32.03732651
33.31916742
41.70788711
41.32761436
32.55594021
64.65750671
41.53579847
57.13837649
32.48012164
47.32026689
43.58841222
40.68348481
58.43743684
39.92891632
40.19636695
41.6382473
42.12505217
42.4582045
41.12520215
33.48114917
41.31686837
56.25039927
53.22163957
53.70540249
52.34047883
40.43208718
42.68769304
55.53545041
54.77687274
42.28019619
56.96047782
56.89589213
53.38962674
42.90398166
42.38967016
44.66925101
45.64825311
42.66991909
42.9452349
55.61695941
58.12900882
57.21054537
56.29574909
54.18744867
45.78467477
46.25717326
48.41097671
47.66763856
53.77382698
42.97950163
44.24628525
44.00311936
44.55028913
44.32449638
43.11111795
43.19760123
42.89475547
39.13164335
32.75045692
37.50650774
37.10449557
66.12405606
49.4854876
54.24666086
55.22609923
59.07158135
58.35975908
52.10029599
48.07609492
46.69142108
49.72842932
48.51283062
52.45113101
54.12885299
49.582296
48.73589202
54.67895274
44.68532856
44.81962748
44.62146019
39.98573309
40.46491248
43.70437168
46.51599897
46.8642023
54.64342022
55.72450487
54.51392014
54.40343438
55.14361076
54.08431918
53.77996236
54.35824611
54.16198355
55.15995353
41.11393553
43.57181142
43.29387726
43.91939863
43.66105764
41.24182759
40.79317329
35.78521393
36.08375037
33.58163893
33.78224116
39.3080569
42.86304576
39.22267104
39.85068428
36.20246553
36.53607211
41.69178083
55.88451316
48.29201943
51.68722225
55.66123143
39.58181275
35.45487732
33.77818754
38.32088148
33.29438182
33.51461326
32.81577822
36.93693391
47.37669578
39.14756418
38.41521884
37.65901005
36.97401393
36.59143759
32.23184021
40.76344881
42.30229624
52.25666867
32.06511936
83.25355924
43.36282063
41.88486162
46.83265347
32.78183313
32.1257179
53.99809048
52.93215281
52.9924323
45.5452688
45.59680762
40.69152883
39.98361792
51.16019035
51.6659868
51.56999603
47.52183809
56.09919045
47.57355279
56.5108666
48.33397604
42.41596228
40.54431626
46.60121079
44.7757876
48.08917636
45.49076878
40.61129598
41.2984715
46.87659976
55.95074597
40.63537693
44.75966108
61.75057049
39.70025186
40.14593401
39.96692956
39.7122209
54.93881071
64.57900672
53.86910279
50.49753661
57.49992199
54.61366162
49.8502771
47.03616399
51.74490246
55.49852813
54.93300508
55.82215116
56.31156603
56.90937836
55.87973626
46.54874325
45.92492744
54.12836359
46.61512682
47.06575298
45.28701447
46.34832774
47.23398823
53.82027493
47.54671351
46.77176988
41.25184375
41.49580463
41.80532202
51.43180249
50.65693776
42.81767584
49.04991451
47.75401667
50.3490018
49.45622118
42.36387589
41.14668023
42.80356107
41.25728583
38.07245821
37.62692952
33.04367283
34.32271287
38.56878767
38.19846827
56.09048321
55.58445277
55.18997453
50.41283351
50.94172943
49.45235104
50.19798179
55.47465038
52.46897911
51.09850231
50.90781826
51.05083713
51.11972968
52.72564594
52.94843239
48.30929811
49.20057188
55.68234296
56.08969626
58.6933741
58.34665668
54.89892986
59.78896913
60.47061625
60.71401183
59.39075836
58.35219518
60.66387573
59.2831187
52.27321685
57.50325856
58.72970488
42.30803241
47.29556198
46.48371095
48.06229403
47.51556881
42.83968184
45.35477439
44.79360304
46.20098435
45.54783144
47.95028082
50.16457664
49.65792674
50.78112641
50.32738708
48.38055633
44.92270464
48.78439091
48.2463109
49.48527492
48.9614007
45.26998598
50.70401383
49.77872552
54.21705327
54.69139173
52.05337795
51.04403668
39.55760881
39.08931214
40.37176215
39.72217269
38.34292004
37.88666092
38.94134682
38.47905118
43.89329384
43.36024966
44.61217383
44.07581034
42.29654828
40.789268
43.1655059
42.63011625
45.4935622
44.69785396
47.37126061
45.98905198
45.98114485
44.27626868
45.00268838
44.44472993
44.10064836
35.36774713
35.66943875
40.66373976
33.98914948
33.77548409
34.28092758
34.0737375
33.6761848
39.50246619
33.86210571
35.12223377
37.28371371
38.95990198
42.73549425
36.94690576
35.20477672
37.79329603
37.11893024
34.64712403
34.37731282
35.07108114
34.7537256
41.81942181
36.65466286
37.05339372
48.09276961
42.60695471
47.38958782
44.33255273
47.18678805
42.12627993
57.64812076
39.53581725
55.72939889
49.90089973
35.34351872
34.30247735
33.03019052
33.22795791
38.18777276
37.16588415
32.84636042
32.97586907
51.84448446
32.18153841
36.41053587
35.73409469
65.49733447
72.42555909
32.00286492
76.43344395
56.75619216
41.21774061
32.7166536
64.46358117
43.60319549
74.47390162
45.13163096
32.23335557
41.90517629
39.96317142
38.77990843
50.15934119
49.82378577
52.46627794
46.75067592
46.40919341
50.07576569
41.84556766
40.14087531
39.59147471
56.09196491
55.98274981
53.15590359
44.62848301
44.1212726
46.56487511
51.25446215
44.57453765
44.67961696
40.88582128
41.21234207
43.39650438
49.008513
52.22062714
54.80604425
45.90729455
45.20261935
45.08678636
45.30421864
45.23339099
46.03535727
45.21439429
43.44198774
40.34305259
52.2634154
53.60858662
56.18116784
39.0400163
38.68570902
34.43672048
55.54444677
57.22998508
51.89521348
45.04004729
44.87947418
44.85394968
44.70340698
41.91467825
42.51337117
42.80265451
43.68998364
45.44313162
35.68578692
39.5262425
39.15640962
44.81433629
43.05415508
39.85100314
32.39491869
32.42111654
33.14886693
41.95809848
52.92543876
48.21655339
39.92689296
47.78743579
45.7486569
32.04954291
32.89145784
32.36386917
32.38163421
32.06850094
60.39805312
45.24567748
40.98450344
41.95867319
50.39509748
40.44302073
41.36120678
50.42020402
52.81273207
46.21254083
44.73384628
46.51748881
47.11629507
40.37948318
40.2913344
58.98909857
61.04308395
62.57139725
53.35321823
59.83612564
42.41723225
42.66404155
45.10426807
61.46695499
57.29099941
55.01195538
64.40712421
61.98897425
41.11942974
42.30031393
41.69453482
46.34954985
45.71187299
42.38932449
52.38578203
51.7014775
42.07833332
44.98995843
42.27712852
42.4441839
43.73418493
39.97198658
40.28647116
57.06022789
57.77601453
54.50949633
54.54483444
53.55449936
53.39641499
50.77261797
51.69742422
51.3448057
53.22840795
53.02342234
53.49165409
46.95267147
48.02068815
52.46017165
53.65479664
58.51148523
55.20274491
58.76623289
59.10457537
56.62579423
40.80850249
42.80665419
42.31169475
46.20789843
45.98781405
43.37780428
40.35440275
40.1319376
41.90571817
41.58265756
47.14235595
49.15663053
48.85080606
51.01720276
50.70302837
49.2737124
44.24288818
46.77932802
46.51989177
48.54273336
48.24268447
45.98300916
41.26050956
41.74692076
44.59786524
43.81551291
40.61910102
41.10153818
44.57022919
45.04217484
46.16281172
38.81353632
38.67601622
39.93427782
39.75693712
36.72662134
38.46573561
38.35086089
45.53661221
43.90965347
44.40624485
45.66256055
45.61724101
42.73932523
43.04333263
45.3643623
45.73670126
46.08757883
54.69908926
47.04070914
48.35194464
39.98847207
39.64485195
35.9958218
37.09368802
40.40094448
40.09132424
33.28164137
33.34670051
35.13076031
34.7642819
33.12490421
33.21533308
52.22807116
32.14779137
32.86277309
32.29595514
107.9117031
32.51566122
41.29872
52.45008705
47.68238853
32.17256219
32.20065939
32.59499287
63.54512497
68.60208936
66.52595852
51.11604634
32.4546246
32.14166472
32.16115418
41.03919909
41.32691086
40.20639682
50.06729483
49.58061652
42.96177567
41.98742311
40.04326358
53.57317317
52.63632035
57.34578106
40.87615991
48.64077287
45.34992426
48.88542084
48.16079443
41.59786994
43.76854084
44.38256615
47.98670683
53.73420947
54.05249984
53.24327172
53.4960908
57.86351157
57.10838911
57.32597734
56.65058069
56.87738396
57.51299541
48.13791825
48.57840758
48.7917682
48.25190213
48.37746276
48.00426024
58.7933683
57.78563721
57.76122835
57.53238423
57.6998607
58.5803003
49.1851761
49.49950419
49.73932547
49.02239926
49.25398387
48.94657363
52.60267244
52.77894614
51.97925506
52.15775961
35.86724807
37.97996593
37.85896124
33.66097379
34.92624963
34.83410493
35.21576946
35.0362044
33.72256199
53.36776475
54.47479359
48.93225321
54.07880001
32.76313994
32.72877326
32.84675504
32.80891403
32.60649011
33.36895102
32.46068213
32.57540102
33.37212737
34.59961973
34.51481374
34.7564626
34.67700331
33.44039866
32.95878006
32.89738672
33.50043911
33.10566504
32.97216941
53.88763608
52.29601655
43.77922298
54.35914583
34.10715785
33.3865238
39.74757189
32.26172404
33.62530099
33.48783332
32.02744603
81.12858901
82.41344477
62.06705259
72.17163125
61.89686938
32.30620916
32.33854386
32.839223
32.09279839
57.58186318
62.82447075
57.94440422
59.30954364
55.89725549
48.89334217
61.56766924
56.55149733
45.75918936
46.01052299
51.22898801
43.31984163
46.1060035
52.48247668
49.93813809
53.20775274
48.94628596
51.76494369
57.89389023
59.40130397
52.61599008
56.78116043
60.30784015
47.82676474
48.85152865
47.39745164
51.02259624
58.55994368
58.67800804
56.79047483
41.51196189
52.09451217
47.04184196
57.45996784
58.32428963
43.01827823
45.20238844
48.14299538
60.68655626
50.20569251
41.94229293
43.12898703
60.89802602
57.73371778
61.18468754
56.38931974
58.85746626
61.20330108
62.39111184
61.72681164
55.03754405
55.16423735
55.39018779
54.61807988
54.74834031
54.78434422
56.54944079
56.173004
56.40743812
55.6747229
55.90780167
56.21290558
46.33307937
49.06364347
49.05694109
46.73788927
46.99438593
45.64808697
46.64927491
46.43086871
46.21138672
47.60109418
47.94146802
47.13256347
48.43916329
48.23844656
48.99042996
48.77836116
46.94247326
45.64772151
43.66907805
41.11054754
46.79848827
46.60530493
46.44509132
41.90942056
45.83435441
45.47129097
42.36399732
42.26090612
43.66358959
56.62376963
54.99638455
52.4198021
52.06596675
51.27772843
53.20708368
52.84723826
52.59735521
59.6896116
59.34779932
54.85138316
59.82278085
61.89333955
56.47506803
59.53114198
59.67741749
58.59257868
57.38662944
57.26223975
57.58448212
57.55910997
58.48674937
60.12531656
60.25191675
59.14516808
61.84281795
61.79832939
61.63428422
61.80295142
58.95094902
60.7723615
61.37353214
62.96387252
60.76537351
44.92092432
44.77196373
42.24177557
42.98907422
45.63297407
45.47679198
40.8129819
40.5756507
41.309909
41.05393744
49.77116084
49.46161108
47.53133368
48.82319877
50.39274242
50.081962
47.35856753
47.08217365
44.61415625
45.6026325
47.94026947
47.65265378
50.45637777
50.49812823
50.75498141
49.98934982
50.24350915
50.08334437
51.67679181
51.4369127
51.60823647
51.01012516
51.24358835
51.41663619
39.39584866
36.81544265
36.95613825
36.55982334
36.69238347
39.24383365
40.10341794
37.41909969
37.62950906
37.09377849
37.25050111
39.90132934
38.178798
35.81562077
35.95002286
35.59838287
35.73072105
38.05965322
38.78551605
36.30474039
36.44001429
36.0507663
36.18981964
38.64044261
39.17699431
39.01902658
43.71723941
41.79221962
41.9700988
41.42321363
41.58538541
43.53110108
39.55261305
39.37926712
37.75128006
37.60433357
42.04273201
40.16167699
40.22634386
37.93946163
38.38584293
41.38991953
43.00504408
41.06642358
41.20082935
40.70354446
40.80125213
42.78322107
38.12826997
38.03420469
45.08857397
45.27295974
45.55704895
43.46051972
44.062719
44.49134923
46.01660906
46.01067722
46.24666911
46.26789378
44.75403457
44.20372207
44.71573682
44.22909903
45.72009438
45.50611731
44.0688044
35.4505912
37.44656718
37.3189641
37.72107812
37.60658194
35.59659087
33.93183359
33.83738449
34.21375364
34.12662348
33.64828434
33.66748312
34.03184342
36.18719291
35.55910475
37.06391331
36.81220197
34.83146414
35.63487303
34.8857606
35.09608823
35.37457107
37.58307758
35.38563686
35.52591069
35.17007273
35.31975191
37.50431977
34.5588608
34.45633702
34.96214859
34.84980591
46.77097732
41.09903672
41.64920758
40.5743944
40.77438041
47.06776093
46.35769867
46.15491728
42.33815969
44.01407189
47.53275886
54.72809104
43.41896424
45.31141157
40.77077435
41.97662138
55.47394534
32.62336109
32.57961096
32.69489928
32.6640123
32.7878947
33.03097506
34.58025812
32.42241423
32.36349386
32.5298659
32.46825902
33.09441609
34.26537423
34.17747805
34.43396234
34.34614938
33.15527584
32.88437068
33.90705207
33.78434231
34.09533834
34.00688076
32.93028574
51.33869713
33.41500735
33.14078654
32.127267
63.44795161
90.10919319
95.77287103
89.01933508
90.36381945
68.48768172
32.2121896
67.16442554
49.43701074
52.69255262
32.6585093
32.2214054
32.26871098
64.64632172
71.6268756
69.96807625
56.50898118
62.97108108
76.50737506
71.87319319
47.84133043
67.79891515
59.72380718
32.46652905
32.05636387
32.25718234
36.69966731
36.72794931
36.82868528
36.73974649
36.78752188
36.85899462
36.80570455
36.87223944
36.90351965
36.89532064
36.95917798
36.95429159
36.97570738
37.01250641
36.99109951
37.01873736
37.02088287
36.99845857
37.0157564
36.9828396
36.9716202
36.96732523
36.9070689
36.92392108
36.88523892
36.82012713
36.8778713
36.80203106
36.75369693
36.84286101
36.56814555
36.62724478
36.69838332
36.65320009
36.7509338
36.77067152
36.7860028
36.89115893
36.87263904
36.92506219
37.01786829
36.96684345
37.04361697
37.09956185
37.02616242
37.10959416
37.11368165
37.03560825
37.10608488
37.05657011
36.99388599
37.03302899
36.94489365
36.91013485
36.91202417
36.8085927
36.80927233
36.77444281
36.67740905
36.72937145
36.47188421
36.58787948
36.61086268
36.63457547
36.77828015
36.75266072
36.82912686
36.98633233
36.90643553
37.03874556
37.18713036
37.04675217
37.2296995
37.32590733
37.13818
37.34302871
37.35037815
37.15299757
37.33419713
37.2481455
37.091422
37.21084514
37.07309953
36.96684236
37.02147348
36.86457641
36.81588506
36.81369281
36.67105737
36.66814252
36.42283997
36.59620285
36.58636791
36.65863581
36.86755136
36.7950661
36.94503444
37.19828855
37.02693389
37.28917022
37.57214
37.25461422
37.65702977
37.86978364
37.41528957
37.90065245
37.90613899
37.43140363
37.83994147
37.65902375
37.32804846
37.58484668
37.34171802
37.12390856
37.25769783
37.01199172
36.89205013
36.93461506
36.72334477
36.67865008
36.41753246
36.64678523
36.60504261
36.73347942
37.03488379
36.90196082
37.15238693
37.57607452
37.27423883
37.74673667
38.39877526
37.71228963
38.64080286
39.49958108
38.08573842
39.52031143
39.30796142
38.07790415
38.98799925
38.48249128
37.81677357
38.30451392
37.81845904
37.4394159
37.67133167
37.2705311
37.06553143
37.1513943
36.83634189
36.74521921
36.43256275
36.73189908
36.66525289
36.84845455
37.26961321
37.08881193
37.442908
38.13118149
37.70174187
38.45019797
40.30146673
38.69589514
39.67143739
40.29479521
39.34556839
40.89686387
40.97056447
39.84830508
40.41905189
39.77004122
39.32982402
39.53327107
38.55217167
37.97805206
38.29322582
37.64884103
37.35433394
37.46869886
37.0123173
36.87472301
36.46542828
36.84098571
36.75854683
36.98887467
37.53281016
37.33670302
37.76182342
38.70568377
38.28443065
38.82834254
39.32439354
39.0912148
41.51061895
42.15156662
41.75169066
43.93801159
42.69462536
41.48075839
41.19069767
39.49231481
38.77529405
39.08195848
38.12033657
37.75880537
37.8646719
37.23871901
37.06540961
36.50862882
36.95487086
36.86947695
37.13018158
37.77419024
37.59595915
38.0444849
39.14797977
38.82880335
39.43878041
40.0696077
39.91418636
43.15914145
44.18610108
44.04069418
48.04341467
45.56818684
44.5210224
42.80967054
40.46573841
39.74494565
39.90648985
38.62426421
38.24797458
38.29081014
37.48868102
37.30051523
36.55536695
37.0640262
36.98269562
37.26248108
37.9855842
37.82945179
38.28617139
39.49719769
39.24081478
39.87818856
40.57341303
40.45843391
43.86992873
44.86866133
44.89634348
50.53295151
47.63109677
46.9757141
44.06845232
41.30784723
40.70061386
40.63714149
39.08852401
38.74921933
38.68859681
37.73139468
37.55108968
36.60281183
37.1670726
37.09002418
37.38597781
38.17871651
38.03477313
38.50626835
39.82086514
39.57744275
40.25681341
41.01159745
40.89900119
43.82909963
44.25578417
44.41824916
51.70644219