/*--------------------------------*- C++ -*----------------------------------*\
| =========                 |                                                 |
| \\      /  F ield         | OpenFOAM: The Open Source CFD Toolbox           |
|  \\    /   O peration     | Version:  v1912                                 |
|   \\  /    A nd           | Website:  www.openfoam.com                      |
|    \\/     M anipulation  |                                                 |
\*---------------------------------------------------------------------------*/
FoamFile
{
    version     2.0;
    format      ascii;
    class       volScalarField;
    location    "0.9";
    object      p;
}
// * * * * * * * * * * * * * * * * * * * * * * * * * * * * * * * * * * * * * //

dimensions      [0 2 -2 0 0 0 0];


internalField   nonuniform List<scalar> 
12556
(
776.8210855
775.4674832
772.3128741
766.1152539
757.7330892
740.3512567
712.6772878
669.4962464
605.9524378
516.4357926
397.5182865
250.6671761
84.39099382
-86.60242126
-246.0933915
-382.8264896
-492.1899644
-575.0538784
-635.099706
-676.5437722
-710.6804841
-725.95714
-734.6687086
-738.6547242
777.6674558
776.6883648
774.2794674
769.4285437
761.006375
745.9773779
721.2142773
686.05842
628.4371805
544.6642239
429.3714223
281.9499094
110.0266956
-70.00095536
-238.723858
-381.8723529
-494.6341666
-578.793025
-645.0773107
-683.6414458
-716.942398
-730.1714038
-737.7487368
-741.2052079
779.6863642
779.5277496
778.8509971
776.944902
770.5847
760.9008401
743.1832683
712.3685958
663.1694276
585.928029
471.40984
314.0768308
121.2555507
-83.64708235
-270.7262082
-421.1997341
-532.0166505
-609.755438
-672.3625548
-703.6327326
-731.2914914
-740.1949123
-745.2400752
-747.4663565
782.2238882
783.2263065
785.0121859
787.0062621
784.9154228
782.706362
775.9898217
755.4768527
722.3277001
661.0501837
555.1904798
385.8381857
150.6337906
-109.3477246
-333.9385038
-495.3148526
-600.4173281
-665.7236622
-714.3193482
-733.6864622
-751.7000297
-754.7841656
-756.0731997
-756.4847327
784.0557893
786.3868094
791.0574939
797.5876294
800.9506334
808.4323339
815.7248284
812.7463278
804.6341341
774.8144767
697.6540401
522.6722446
206.9745083
-167.5413276
-454.3317699
-622.2720512
-705.2968598
-743.4255505
-768.6689909
-771.5779489
-775.2767461
-771.2232369
-767.9465472
-766.1974042
783.8699907
787.5294341
795.0888255
806.6601216
815.2570675
833.9551207
857.3399079
875.4997596
903.0871986
925.5279083
920.157295
788.8912847
310.2973155
-335.1012587
-697.0521554
-822.5555963
-847.1345155
-840.7124287
-831.2439924
-812.7458481
-798.854993
-786.8211865
-778.5062001
-774.4660098
780.4022215
785.2371966
795.252024
811.1536974
826.2323817
854.515617
893.220911
932.5224598
996.2593797
1083.978574
1213.792604
1358.625162
612.1926493
-908.5298195
-1152.661958
-1107.637105
-1021.025754
-946.4797946
-893.7201081
-851.5119975
-819.0810418
-798.5304962
-785.4074826
-779.2197887
772.5602064
778.2510893
790.0217144
808.9777509
829.6087276
865.1613716
914.6459143
971.0495601
1060.177469
1192.514679
1424.493724
1917.048784
-2515.14531
-1830.787013
-1434.958899
-1193.312614
-1043.238478
-944.1783316
-881.1226738
-830.4191585
-803.1758915
-786.3515063
-778.37427
759.5094348
765.6316705
778.2649213
798.696377
823.4812744
862.6092913
916.8004122
982.1435036
1078.526709
1211.5806
1403.809602
1631.460391
-3946.234516
-2343.986383
-1672.62263
-1312.020452
-1105.767285
-971.4149743
-893.6105718
-829.5398202
-798.2757251
-779.2837259
-770.2270472
740.7930555
746.8815526
759.3998084
779.5904504
806.7617567
845.6621686
898.6359333
964.5713309
1053.761047
1166.405811
1302.793555
1427.512858
-3726.694272
-2364.992947
-1706.531092
-1332.216768
-1114.326803
-966.7865944
-884.9225263
-814.3090403
-782.3647214
-763.0104526
-753.7473422
716.3849326
722.0075358
733.4917253
751.8045301
779.7298939
815.1104512
862.3043968
923.0332635
999.0499904
1090.38849
1196.230824
1298.232237
-2831.655641
-2013.485167
-1547.76885
-1250.981695
-1065.639893
-929.0256789
-854.2370294
-784.5191565
-755.2526752
-737.3613237
-728.7443096
686.6549663
691.4509568
701.2209743
716.0540173
744.0119603
772.9194501
811.1507968
863.0109083
923.3393369
995.2672812
1083.814528
1194.70086
-1870.888947
-1514.482686
-1279.60893
-1100.03061
-972.4062147
-863.8494167
-804.5114752
-741.8352483
-718.1204508
-703.1453765
-695.8693401
652.3314768
656.0602733
663.763216
674.7859242
699.6767683
721.4627152
748.5719521
789.514856
831.7516668
881.5076569
946.9570476
1057.598432
-788.8806722
-971.332459
-1026.702677
-988.4588768
-920.6110744
-854.7008358
-781.1926264
-740.9527562
-690.1433418
-673.2454355
-661.9582783
-656.464387
614.3311321
616.8896881
622.3450772
629.7852206
650.2874169
664.5594228
680.3376056
708.056038
730.4157019
752.3539428
774.3002968
832.6905715
237.9722587
-408.6177432
-649.4370616
-734.3443837
-746.8724463
-730.5523731
-691.956116
-670.0406511
-633.6306883
-623.2092878
-615.8293016
-612.2918118
573.6984866
575.0034474
577.8834051
581.4893408
597.7516465
603.7410202
608.8333492
622.3591546
624.7654023
617.2660074
587.1027127
495.0823048
200.1201303
-175.9341133
-415.6025712
-542.7490548
-598.0698333
-614.8731382
-603.5503836
-597.9669751
-574.8680821
-570.4131993
-566.873938
-565.227048
531.500057
531.6349622
532.0224874
532.0265729
544.1271836
542.9803508
538.7836989
539.6736486
525.0286103
495.6018889
437.8812213
332.1787927
141.7118082
-96.41842149
-286.9956465
-410.5382649
-479.6251926
-514.1416395
-521.8184649
-528.5054973
-516.5635947
-517.1783243
-517.0367412
-517.026973
488.7870559
487.9365795
486.2110563
483.1881162
491.3769381
484.4375569
472.9309097
463.9496536
436.2982938
393.4888118
327.4111118
232.29704
91.68606923
-70.90489197
-213.3358752
-318.5963758
-387.0319263
-429.3803314
-449.0433492
-464.0169679
-460.8493272
-465.4033053
-467.9535349
-469.192472
446.5022147
444.8715331
441.4714255
436.093409
440.8958292
429.6841708
413.0749757
397.8625471
362.8242074
313.7673122
248.5610894
165.2438601
57.73062259
-60.27286074
-167.4585711
-252.5610141
-315.142568
-359.7136269
-385.8891651
-405.7185574
-408.9690979
-416.2761381
-420.7955449
-422.9206943
405.3945474
403.1826358
398.5331349
391.4564894
393.6073675
379.5682764
359.9090485
341.2768698
304.4093487
255.3079573
194.4694925
124.023346
38.01478442
-51.51337519
-133.8330653
-203.9943411
-260.2565029
-303.4197497
-331.9754702
-354.0613876
-361.4732185
-370.4885875
-376.2918482
-379.0458053
366.0232856
363.4211481
357.9297985
349.7556092
349.9760781
334.341928
313.0840269
293.2816243
257.0591646
211.4645638
157.2561686
97.34489403
28.73010834
-42.32139969
-109.0969411
-168.1287993
-217.6414704
-257.5964827
-286.2359878
-308.7325319
-318.5408195
-328.4274045
-334.9429297
-338.0365879
328.7769447
325.9565562
319.9914583
311.2304426
310.164385
293.8891361
272.2801839
252.5729591
218.3333395
176.9804694
129.6189526
78.57982989
22.24314826
-35.75906551
-90.88626119
-140.7473769
-183.8833645
-219.9065236
-247.3557785
-269.1183216
-280.0555644
-290.1730369
-296.9478297
-300.1702217
293.8931657
290.9953622
284.8636365
275.9405312
274.0479411
257.8705428
236.7953322
217.9140112
186.3260325
149.3351525
108.0177361
64.43627686
17.33786254
-30.81632375
-76.88054833
-119.193261
-156.6069088
-188.655979
-214.0939554
-234.5272203
-245.7121601
-255.6067295
-262.3135463
-265.5092893
261.4766976
258.6092343
252.5452093
243.7859133
241.4352005
225.8624219
205.9667866
188.2383169
159.5707808
126.7678283
90.74459724
53.36512355
13.57777802
-26.86859127
-65.71076463
-101.767099
-134.1529671
-162.4201588
-185.5009722
-204.2740921
-215.1201576
-224.4971879
-230.9167911
-233.9798336
231.5258688
228.7679224
222.9399288
214.5754662
212.0492091
197.4098193
179.0085544
162.6898232
136.9607867
108.0470643
76.66502231
44.49835017
10.66271283
-23.57303395
-56.5318844
-87.3504068
-115.3490432
-140.1296973
-160.7674503
-177.7384126
-187.8759197
-196.5591645
-202.5526654
-205.4147724
203.9628542
201.3704003
195.8946943
188.0792353
185.5887644
172.0831907
155.320242
140.5449887
117.6571592
92.29523057
64.99837662
37.26823802
8.383607719
-20.73050228
-48.80367837
-75.18888487
-99.36068514
-120.9781617
-139.2226742
-154.3736567
-163.5887482
-171.4851876
-176.9717969
-179.5927611
178.65828
176.2685256
171.2213006
164.0509968
161.7464692
149.4791536
134.4061547
121.2114878
101.0121445
78.87061702
55.18837875
31.28348594
6.591208147
-18.21819387
-42.16594643
-64.75673633
-85.5803604
-104.350221
-120.3215417
-133.7064145
-141.8909932
-148.9646452
-153.9056015
-156.2657333
155.4460467
153.2814344
148.7082463
142.2365097
140.2259164
129.2361043
115.8426407
104.2093061
86.52263455
67.29631079
46.83071279
26.26470276
5.175922495
-15.95710345
-36.37044246
-55.67864535
-73.55871494
-89.77226794
-103.6216056
-115.3326751
-122.4426627
-128.694765
-133.080118
-135.1739475
134.135804
132.2078228
128.1316219
122.38165
120.7410002
111.0261895
99.26530954
89.14301209
73.78936454
57.20744547
39.62370525
22.0045296
4.054419152
-13.89351498
-31.2384093
-47.67668135
-62.95271383
-76.8700473
-88.75565113
-98.90180186
-104.9335401
-110.3877673
-114.2258464
-116.0569149
114.5248613
112.8374783
109.2656106
104.2401267
103.0247039
94.55723805
84.36301855
75.6846778
62.49303726
48.32062587
33.33694805
18.3449522
3.162387836
-11.98948438
-26.63746878
-40.54038912
-53.49579672
-65.34427905
-75.41913648
-84.11221686
-89.08336018
-93.77567309
-97.08532197
-98.66237046
96.40564564
94.9578238
91.88739605
87.57616794
86.82696294
79.56610693
70.88181611
63.55245678
52.37172261
40.40813454
27.78832099
15.16285602
2.44972844
-10.21656691
-22.46546492
-34.10449268
-44.97337402
-54.94468621
-63.35615347
-70.70098801
-74.6388882
-78.61040136
-81.41575409
-82.75020793
79.56651831
78.35485731
75.77733694
72.16021642
71.92044146
65.8123409
58.5981073
52.51605937
43.21004936
33.28381641
22.83064834
12.36078901
1.876909555
-8.552318344
-18.64124181
-28.23656477
-37.21149574
-45.45519831
-52.34546423
-58.43691659
-61.36630373
-64.66062411
-66.98713116
-68.09073892
63.81449148
62.83270959
60.73662227
57.79121693
58.08040385
53.07514135
47.25864019
42.38650649
34.82786068
26.79251335
18.34288384
9.858666289
1.411960533
-6.978144271
-15.098165
-22.82802317
-30.07028645
-36.73122232
-42.17240172
-47.10999873
-49.06775954
-51.72421187
-53.59665673
-54.48213505
48.89591069
48.1437489
46.5223078
44.2199325
45.13332842
41.15262048
36.6015002
32.9911252
27.06427859
20.7991851
14.22176628
7.58886159
1.028511729
-5.47735728
-11.77846181
-17.78423264
-23.42546705
-28.64495752
-32.66520741
-36.53109124
-37.5054834
-39.5685075
-41.0048755
-41.67747088
34.80417897
34.26223916
33.09986578
31.45837197
32.73141698
29.86059805
26.52122641
24.14280885
19.77116121
15.18338444
10.37631913
5.493688819
0.7048724309
-4.034455343
-8.630871248
-13.02028822
-17.15851148
-21.0073816
-23.70074686
-26.51361791
-26.69429376
-28.15758658
-29.17941927
-29.66207935
20.66342183
20.38655576
19.69551574
18.70436292
20.89907137
19.0305079
16.85677029
15.69112245
12.81481454
9.83381033
6.722560001
3.521207644
0.4233725316
-2.634251057
-5.608198413
-8.458698564
-11.16371569
-13.70577352
-15.12063615
-16.96837427
-15.89788859
-16.77840874
-17.38201491
-17.62117255
9.257876876
9.043977255
8.709341521
8.207013266
9.31255681
8.414087843
7.375724116
7.495857121
6.075302428
4.642900486
3.176146181
1.620163131
0.1718770643
-1.261364465
-2.666025748
-4.028826171
-5.343546132
-6.624544353
-6.730938105
-7.589378011
-7.262435835
-7.700378916
-7.99657942
-8.200917261
1670.484404
-4210.372794
-2653.158592
1446.732331
-4055.638765
-4279.736136
1311.91058
-3078.866695
-3958.819454
1208.528914
-2036.796222
-2945.253195
1068.73979
-845.959592
-882.9585357
-1087.496751
-1911.613301
862.5448396
325.5406894
-798.8093546
188.4650408
-421.8714458
-980.5334772
1894.246096
813.4195155
-2311.497763
-723.7241696
-5455.771281
-3290.910865
-3874.650061
-2497.948738
-1968.878577
1329.336295
1433.762619
1606.378362
-5739.82579
-5978.37919
-3807.757846
-2651.356326
-2598.809776
1222.929441
1300.192262
1414.812446
1373.629897
1408.531105
1477.468818
-4275.324458
-5053.627694
-2952.868565
-2294.898485
-2597.746251
1113.378274
1192.804007
1286.15624
1259.830367
1304.353703
1340.388593
-2849.146205
-3455.702325
984.7472529
1060.218204
1178.582955
1141.239984
1210.503338
1259.571787
-1633.322787
-1574.280079
-2118.85695
819.1889729
858.1430565
1039.889602
978.4131401
1056.222519
1134.865299
562.4873997
308.9781383
337.6724727
2041.287435
1696.857632
2594.988988
2116.835794
-5981.781993
-5521.267343
-3779.082272
-5285.943184
-5824.829168
1485.930193
1544.460613
1511.753189
1546.253229
1490.337605
1669.4749
1556.088965
-5099.613466
-5710.525795
-4208.686613
-5582.494742
-5010.534638
-5824.021667
-5609.538087
-4234.438015
1346.677283
1399.207437
1357.011085
1405.133097
1349.075156
1485.823949
1410.200146
-3545.243189
-4219.018885
-3474.561701
-4116.791746
-3473.939942
-4965.348085
-4217.606443
-3602.976239
1263.003759
1302.368846
1247.381632
1306.195177
1267.832283
1345.754415
1307.910779
-2198.293902
-2765.406898
1139.898391
1206.948846
1132.225774
-1591.643628
1213.004103
1145.607942
1264.294775
1216.607039
-1632.452059
-1015.143993
-1497.568347
-1584.571537
1045.377205
1051.059517
964.5508898
-57.5662636
1057.80184
939.0636434
1140.5949
1062.164256
-134.8038005
1422.856829
1639.75053
1814.392376
1851.074604
2086.33311
2458.307015
-6607.466926
-3949.591362
1537.124558
1555.07453
1674.775537
-3403.630913
-1987.896332
-1729.405653
-2163.268129
-2027.71625
-1962.835327
-2248.335126
-189.0487784
-496.5622835
-874.9378145
1702.308247
2020.995976
1806.560811
1737.3335
3452.204996
2801.397858
-3150.810864
-5133.320264
-3552.415652
-2294.929698
-2602.932663
-2420.560804
-2721.805629
-2171.323111
-3387.921612
-2802.872865
-2550.703019
-1193.654392
-338.7445897
-483.5372669
1305.310275
1951.308188
2580.97358
-2845.879826
-725.4159539
1048.30634
-6732.655642
-4822.30317
-6545.657089
-3794.419478
-6381.595276
-4495.13507
-5861.981181
-5880.582347
-4645.649092
-4698.429598
-3017.483304
-3339.417806
-3104.148085
-3315.826682
-2989.925981
-3717.560886
-3364.426239
-3190.784431
1233.605987
1201.086187
1178.574686
-1611.432974
-1875.290762
-1954.096218
1094.724471
1054.926017
1019.511472
1097.005894
1065.872642
1099.39485
2009.917112
1765.551176
1855.793335
1779.752858
2038.971974
1632.831766
1753.770467
1807.724759
2454.346721
2758.145271
3296.367486
2096.186868
2657.613597
2370.670095
2681.973426
2076.374778
-5882.941905
-5859.594341
1518.875427
1550.376722
1515.275611
1607.701229
1575.323198
1626.418434
1550.892425
1570.965812
1592.384019
-5390.047855
-5427.482812
-5330.940476
-4750.827839
-4884.07221
-4514.677889
-4697.556986
-5293.805849
-5755.375681
-4998.572055
-4979.405856
-4918.376917
-4988.361684
-5737.818371
1375.818235
1371.888775
1451.995424
1446.391846
-3822.476012
-3755.200276
-3871.914052
1289.377519
1286.514666
1325.183016
1322.68333
-2941.58369
-2625.57686
-2519.124338
-2646.64887
-2964.701327
1168.481407
1135.173792
1106.74667
1170.508713
1144.450162
1174.239474
-1243.014943
1178.970473
1172.722542
1240.928464
1238.286651
-1963.116139
-1242.109759
-1262.686658
-1524.041029
1006.223177
964.2751961
965.2981317
984.2789021
471.3656283
163.5374965
1106.057614
-328.2841323
117.8745503
-243.7673161
1102.094345
-390.7597467
-274.9079302
85.35725795
-4794.886052
-2168.246945
-2316.541639
631.4669645
590.9931695
821.9989679
706.0408049
716.6491514
977.9579377
213.2421682
-124.1841945
-308.6526575
4407.526962
-2350.930299
-2511.303117
-926.6095421
-1176.588074
-1194.332966
-142.7547443
-390.5747163
-115.6755763
2083.513922
2685.235726
3439.801346
-3382.624786
-725.4174048
1356.548971
-5802.061883
-6470.987856
-6391.711653
-5948.431842
-4432.85996
-4627.158115
-4436.646394
-5317.114364
-5160.076109
-4908.185647
1319.914136
1298.971727
1282.18138
1323.47326
1304.837416
1322.765255
1228.575199
1208.137717
1236.53269
1072.53552
1054.707225
1036.262615
881.4908419
631.9954972
367.9663818
-5955.166136
-6444.045069
-6502.354489
-5690.704835
-4737.201543
-4423.122059
-4954.060797
-4810.414441
-5707.78406
-5231.152976
-5507.20701
-5369.007466
-5601.681192
1366.804408
1350.99369
1330.051502
1356.634944
1364.483793
1358.194867
-4377.130102
-4207.881563
-4067.391001
-3830.634853
-3586.202979
-3827.096545
-4627.142235
-4225.81477
-4446.498958
-3907.925624
-4148.04814
-4576.518748
1282.492475
1253.754133
1235.134196
1276.680966
1259.705942
1285.329658
1300.389593
1315.67228
1317.836888
1282.021838
1297.353488
1277.443804
1336.486832
1342.90666
1353.482289
1318.150986
1321.103525
1313.435709
-2438.464323
-2582.150433
-2286.972566
-1444.865386
-1442.502892
1200.840598
1149.603412
1253.262874
1262.848503
1279.073226
1246.487374
1225.846358
-1767.648432
846.228686
950.7759219
907.8239784
1029.626877
1006.431913
1027.791703
130.1419833
377.6833469
140.4281601
1037.439935
436.3392042
693.5712551
507.6194781
625.8937543
1121.113295
1079.860412
-5940.207919
-4661.558841
-5585.233094
-3534.458168
-3593.291257
-1986.415011
-2122.598184
-2141.422815
1686.606961
1670.031042
3276.248953
3698.152896
4099.000404
3497.860019
3169.214569
-2678.584711
-2517.261123
-2468.296892
-2525.864451
-2698.569411
-1208.981617
-1035.902875
-1042.896586
-1041.121939
-1213.458696
-822.541072
-991.8691862
-590.4917726
-609.6389682
-772.8232197
-397.501542
-556.1935457
-491.9736391
-6854.92418
-6004.742779
-5534.496795
-6381.880865
-6122.665885
-5346.547072
-4642.10364
-5558.907794
-6225.533034
-6151.26967
-5815.489151
-5933.824585
-6357.007321
-6258.117969
-4860.862772
-4687.309286
-4486.837593
-4743.391593
-4929.52783
-4494.684221
-4687.608196
-4982.292062
-4856.807952
-5108.450795
-4917.198889
-3155.81668
-3212.877287
-3180.761534
-3094.34533
-3228.163042
-3568.060835
-3460.826422
-3603.403183
-3273.038888
-3413.662413
-3515.387195
-1827.340348
-1799.340038
-1938.133117
1076.814365
1060.673066
1074.548954
1111.428834
1097.161511
1082.533988
1881.610323
1849.16285
1867.308744
1912.062918
1820.839066
2071.912014
1947.408548
1902.762327
1679.054886
1712.263516
1666.56858
1795.014
1730.344962
1696.50466
2298.553598
2285.83736
2120.428737
2377.272039
2287.542499
-6455.851239
-6439.216475
-5940.916463
-6587.950263
-6639.356064
-6563.979889
-6546.728728
-6456.541143
-6662.960691
-6557.100881
-5749.038937
-6347.330742
-6454.348463
1533.731151
1534.544974
1526.815043
1549.631105
1538.317757
1539.200373
1517.437374
1510.367405
1525.68406
1519.436179
1592.643805
1614.384199
1592.332797
1654.432958
1623.172847
1598.971247
1561.292905
1566.176031
1553.273908
1586.192536
1570.931213
1566.142167
-5672.414591
-5551.462483
-5272.757899
-5555.947097
-5846.947485
-5705.639451
1394.359793
1383.272686
1412.95741
1397.255632
1366.182576
1359.462855
1378.71788
1368.200653
1484.899102
1466.511566
1506.906658
1490.902476
1435.04344
1417.233634
1460.295701
1441.539666
-3839.963092
-3991.144697
-3651.549635
-3793.501182
-3893.754327
-4257.945009
-4430.439784
-4041.469211
-4204.984003
1300.988201
1312.897701
1297.95358
1318.853919
1303.942376
1321.263225
1322.197515
1301.48248
1279.358863
1297.338758
1298.059008
1333.639481
1339.587638
1333.280808
1343.115385
1336.950394
1356.215351
1345.613311
1322.440157
1320.741109
1331.269637
1323.823214
1315.532458
1322.705172
1330.341602
-2709.40707
-2784.258792
-2851.957423
-2696.943069
-2899.723731
-2827.406223
-1225.051842
-1396.150483
-1430.274536
-1224.165659
1196.677794
1156.28817
1251.913774
1258.852897
1249.788864
1229.402643
1250.560296
1251.145847
-1845.732586
1015.838214
997.5190083
973.7210662
637.5442783
537.6349483
1027.718803
248.0499414
410.1790782
301.9234253
1114.336118
-484.8336576
-40.5111803
189.9078261
-87.52375883
1074.387491
-2233.933812
-1745.363709
-1139.440025
-2304.833733
-2358.113756
-1104.294113
-1154.164951
-1580.765298
-2369.252183
-995.0538099
-988.5631612
-826.2675684
-2094.219397
-1594.351553
-1543.710466
2588.483553
3441.003776
4280.500422
-3616.0827
-679.2797137
1764.636446
-1434.720706
-1028.423014
-2778.595368
-5165.990432
-5839.803105
-6113.82933
1438.642325
1417.75966
1391.035332
1454.366371
1426.909831
1448.80756
-1614.616307
-1752.689497
-1770.047629
-2200.291742
-1941.611882
-1881.921078
1117.402162
1102.776352
1117.352291
-6189.417792
-6318.319225
-5713.255898
1382.468483
1358.466205
1374.24934
1391.817412
1396.589919
1411.423169
1416.057839
1432.818847
1425.143056
1148.242842
1135.418898
1122.594591
-1605.854513
-1560.345282
-1547.844665
1151.010961
1157.220802
1149.578917
-1699.264262
-1712.53514
-1620.97137
-1439.239727
-1426.15262
-1567.063616
1052.598374
1135.682694
1142.731879
1146.353544
1064.138619
-6482.72065
-3439.835921
-2008.376951
-2072.61642
-2080.906319
-2297.428584
-2156.505456
-2117.171508
1713.988769
-4283.029349
-3752.046749
-4480.006562
-2425.057121
-2483.556196
-2340.14505
-827.2030504
-843.7168863
-666.7735859
-671.4725667
-768.7543158
-1687.444494
-1099.883584
-3319.654739
-6699.123723
-6372.372442
-6215.193469
-6826.023184
-6791.481302
-3063.208013
-3094.605284
-3047.077489
-3356.205632
-3345.814986
-3317.120257
-2914.67455
-3047.607154
-3128.884909
-3680.94386
-3630.486277
-3678.671496
-1943.911263
-1920.400041
-1954.582678
1957.888048
2009.557095
1793.316908
1807.057296
1823.595747
1795.961144
1641.043431
1657.193166
1645.637661
1770.338982
1747.299646
1731.01242
2542.561253
2351.777775
2381.022716
2572.43833
2562.776232
2705.325532
2063.785002
2120.280154
2138.125934
1527.213789
1526.879589
1531.700996
1549.556097
1546.762257
1548.038089
1524.881995
1524.245827
1532.103875
1529.168055
1582.051886
1587.474095
1581.353071
1635.801238
1626.022581
1617.905996
1551.705856
1553.860828
1551.519793
1576.371083
1573.134126
1569.79759
1381.489685
1392.865437
1387.396448
1361.583258
1367.080593
1377.42572
1462.90567
1480.361678
1467.187865
1479.846242
1473.092788
1522.32052
1516.730035
1423.541844
1466.394077
1459.750439
1430.687053
1438.918412
1456.951831
-4006.936751
-4065.469045
-3725.549651
-3779.52715
-3806.580108
-4122.750167
-4147.041699
-4015.062333
-4155.159208
-3998.550501
1154.388292
1140.442251
1152.797777
1190.349264
1173.366129
1159.731129
1183.43789
1191.222649
1185.491094
1166.981144
1170.999006
1176.613667
-1960.072902
969.8799789
975.2457393
966.1768706
707.963425
980.0679346
345.0733978
479.7182297
608.215993
1112.523073
1113.035776
1108.550006
-392.3085664
-236.5735518
-211.4188028
-225.9405663
1096.084818
1103.20037
1109.331474
-120.5032492
-195.419059
-344.2605906
-2205.901765
-2247.498504
-2342.030644
-2295.488677
-2273.13443
4385.682393
4792.781735
4156.981466
-2403.756512
-2430.354212
-2357.022498
-2530.020844
-2478.407033
-2464.205747
-1961.4675
-1129.123013
-3520.159087
-6053.984577
-6052.560493
-5998.921537
-6032.034367
-6443.043367
-6290.619042
-6311.699966
-6247.286679
-6270.027551
-6418.971825
-5268.662947
-5187.775305
-5237.29079
-5081.333072
-5137.046344
-5217.378379
-6495.3352
-6318.856105
-6292.883154
-6329.77094
-6334.215242
-6517.243285
-5459.814474
-5376.496637
-5420.979603
-5285.834836
-5331.651901
-5416.24054
-5942.752626
-5970.755641
-5852.628852
-5900.970386
1316.96087
1311.71624
1309.965822
1285.43894
1281.512101
1277.713123
1289.361126
1286.027321
1291.044394
-1565.03247
-1616.043123
-1438.639351
-1513.723828
1214.750857
1213.689068
1221.373057
1216.600679
1152.64041
1150.083322
1157.715017
1147.885901
1268.225613
1265.165877
1260.55194
1274.231222
1270.048108
1274.322321
1230.260981
1228.332374
1238.86116
1223.583848
1230.788877
-1776.098603
-1766.823238
-1753.665136
-1623.174595
962.8100766
1007.595687
1143.772284
1037.155656
1028.401993
1019.021634
1046.448308
376.7498274
358.5864731
1119.302336
989.7199819
745.1236524
1123.01779
1134.810949
1129.232414
1071.918971
-6192.054606
-6500.374382
-6250.981975
-5465.399433
-5197.751636
-4394.367743
-5980.680907
-5647.14556
-3482.330956
-3624.11252
-2135.169254
-2121.570913
-2133.878905
1699.030569
1648.378833
3884.6851
3716.464746
3573.177553
2989.888434
2847.528362
3388.275541
3165.708301
3274.764725
-2596.776914
-2538.576588
-2644.953029
-1058.633548
-1055.028541
-1043.843194
-1156.28986
-861.9448029
-844.6886897
-828.6869425
-984.0645393
-927.1698011
-923.3989161
-594.5358457
-650.0981277
-650.2094111
-469.7097455
-473.7446448
-522.5960443
-6626.303983
-6507.473522
-6780.985623
-6300.481469
-6570.884263
-6639.358879
-6768.393944
-6733.508774
-6192.358403
-6087.809649
-6111.246668
-6060.535318
-6069.584878
-6163.847234
-6320.110053
-6192.05876
-6220.99873
-6137.478219
-6163.949045
-6288.060895
-4806.220529
-4731.657157
-4786.18409
-4803.215923
-4870.081782
-4551.515352
-4578.353999
-4538.967054
-4629.763022
-5040.470439
-5084.913797
-5045.147103
-4959.571191
-5021.665855
-4842.062738
-4900.604218
-4980.099866
-3193.002421
-3116.907235
-3102.097034
-3130.666132
-3063.16546
-3115.45533
-3270.855663
-3299.31624
-3242.776123
-3529.629817
-3575.42264
-3605.817036
1917.315025
1819.888386
1690.697289
1671.960186
1655.901479
1712.705797
1727.164565
1708.807859
2354.967735
2446.429543
2473.777584
2716.523802
2592.925519
2207.417081
2188.244309
2268.298219
-6448.583833
-6260.272735
-6254.563306
-6272.9446
-6264.768378
-6445.798014
-6615.884899
-6622.468691
-6535.735533
-6767.174755
-6737.658124
-6726.737602
-6760.787335
-6511.822816
-6654.747071
-6742.977633
-6763.551388
-6595.745647
1534.451618
1531.66994
1530.706893
1544.220395
1543.054466
1538.829012
1525.431358
1525.09228
1526.893987
1525.935325
1599.773151
1593.534419
1587.730084
1607.814264
1616.116291
1607.150944
1562.489986
1557.704778
1555.461631
1568.811322
1570.369892
1566.904661
-5636.684355
-5546.565786
-5582.870025
-5463.525229
-5505.704051
-5593.423624
-5794.853483
-5713.936712
-5792.009607
-5617.708212
-5657.93704
-5745.366247
1391.279292
1393.071127
1395.198451
1384.935165
1389.668193
1387.568878
1406.850518
1405.396263
1413.727369
1396.528002
1399.2392
1401.177173
1364.304061
1366.508495
1367.529951
1362.550139
1364.933148
1362.123697
1374.479267
1374.739617
1379.588033
1368.621474
1370.908113
1370.933396
1493.507963
1486.740658
1478.86759
1483.053639
1489.385999
1470.068622
1476.567972
1472.720596
1508.21866
1500.285831
1440.334639
1434.576487
1428.698157
1431.697969
1437.711273
1418.832774
1418.712733
1421.166944
1454.071049
1457.160846
1463.603499
1444.385268
1450.764515
1447.831298
1453.297719
1446.909952
-3926.207874
-3960.587967
-3865.383231
-3833.197173
-3869.852562
-4309.419743
-4342.98697
-4296.37369
-4470.701654
-4399.873708
-4365.994305
-4089.302425
-4126.586035
-4087.86692
-4247.269298
-4197.706407
-4147.839001
1304.360211
1300.486031
1297.150643
1307.423389
1304.089342
1308.685653
1312.950579
1307.483742
1322.025501
1322.486472
1300.551754
1292.220187
1287.405225
1287.316852
1288.832711
1293.927889
1291.415828
1296.796261
1332.670854
1336.647781
1346.121578
1338.393266
1352.591841
1354.968328
1359.016372
1348.447202
1351.509787
1349.139133
1321.291501
1320.67381
1327.219674
1325.223898
-2801.640377
-2782.262242
-2837.523104
-2683.846786
-2731.549441
-2765.603594
-2966.231473
-3007.776994
-2881.445715
-2897.357088
-2908.667875
-1367.524654
-1366.413907
-1421.992818
-1235.758447
-1296.949875
-1307.157958
1196.590637
1186.876861
1211.5415
1205.897749
1161.578192
1165.483193
1161.26951
1168.577015
1164.822823
1179.309018
1173.725553
1253.587652
1251.18123
1249.074379
1256.771885
1253.721389
1255.882628
1251.564282
1244.859712
1242.252302
1247.448782
1246.19822
1251.31231
-1902.655958
1007.556096
995.1430825
1002.727088
591.2118245
611.3037329
678.5098131
546.5622722
555.372236
535.6814844
1017.037402
346.2826831
292.4583419
223.3099122
1110.608207
1112.683028
1114.687996
-460.5167923
53.25899409
-8.080530406
170.8394916
155.9937181
170.0226703
-29.38140128
-163.705668
-145.2903382
-42.43735215
1085.95526
1097.975911
1090.659857
703.991403
667.4636931
645.6258934
652.0359234
595.6656788
568.9894352
572.4534365
490.047473
461.6008167
457.2911392
345.264095
321.2267268
302.7321877
165.5955556
153.272072
116.7483486
-30.62933614
-26.64827968
-79.58034883
-217.4394186
-199.135179
-260.4004513
-374.4932071
-348.7810274
-408.2874883
-494.8655681
-468.8312802
-519.8167371
-581.9925181
-559.5400291
743.2674335
716.9539467
677.8110073
705.2628341
658.8780779
608.5278849
638.8342762
561.6865038
504.1410043
529.4579544
410.554957
357.4494444
363.1813852
200.6461944
171.919962
141.266653
-41.46766444
-32.84533782
-101.0600865
-265.567175
-226.7772703
-314.1659285
-438.3940427
-387.2894167
-472.8261199
-557.2764573
-507.5668929
-579.9603339
-635.0459988
-592.8699232
797.4383483
787.5419448
732.7270397
782.0456482
755.7935274
679.8581455
742.6589124
683.6902741
586.9209083
655.4278248
534.5333411
434.8862143
479.9242038
271.2209331
214.1673595
189.4880604
-66.15606483
-45.63303992
-147.6328357
-359.069839
-283.3606181
-416.3852528
-550.0227445
-460.8847535
-583.7370034
-658.3311942
-578.309409
-675.8644551
-713.1127511
-652.4509249
859.9124038
874.0673814
808.2457571
878.1346022
885.2593858
785.3282024
885.9018238
869.739132
723.7001127
855.9314423
761.8980967
579.0481473
703.5817819
411.7489961
297.552382
278.3329593
-147.3984109
-77.60367648
-273.6469348
-555.1552919
-394.7775774
-619.4161355
-742.5574501
-589.2978971
-765.0677514
-802.4615725
-690.2367795
-808.203262
-814.8883256
-736.4413597
919.5459057
959.5457437
896.2323609
974.6342276
1026.671829
921.4618671
1046.734173
1114.925409
927.2931408
1138.681406
1186.82943
844.9804912
1172.299668
729.2323629
467.4074609
565.0512614
-494.1324364
-192.82071
-691.30619
-981.7702936
-633.4811361
-1015.028558
-1036.487074
-805.2586618
-1028.811306
-990.6798438
-845.7328985
-975.9700688
-933.35807
-843.511829
963.8189856
1024.327809
978.6003625
1048.198617
1136.370088
1058.917878
1173.443556
1323.595869
1176.452412
1393.831694
1794.172659
1333.705359
1604.58868
1710.457024
1260.299869
816.5717847
-452.8234168
-64.50665295
-1280.969689
-1297.464001
-1036.265492
-1654.588639
-1420.129481
-1126.930857
-1355.404368
-1195.921711
-1042.396751
-1153.002723
-1049.167774
-963.4742137
982.0632471
1051.215359
1034.960372
1078.175545
1175.276603
1153.361931