/*--------------------------------*- C++ -*----------------------------------*\
| =========                 |                                                 |
| \\      /  F ield         | OpenFOAM: The Open Source CFD Toolbox           |
|  \\    /   O peration     | Version:  v1912                                 |
|   \\  /    A nd           | Website:  www.openfoam.com                      |
|    \\/     M anipulation  |                                                 |
\*---------------------------------------------------------------------------*/
FoamFile
{
    version     2.0;
    format      ascii;
    class       volScalarField;
    location    "204";
    object      p;
}
// * * * * * * * * * * * * * * * * * * * * * * * * * * * * * * * * * * * * * //

dimensions      [0 2 -2 0 0 0 0];


internalField   nonuniform List<scalar> 
44200
(
1.777378e-05
1.736367e-05
1.691644e-05
1.661868e-05
1.632228e-05
1.603522e-05
1.574486e-05
1.544848e-05
1.514883e-05
1.484755e-05
1.454146e-05
1.423126e-05
1.391977e-05
1.360267e-05
1.327979e-05
1.295542e-05
1.262916e-05
1.230043e-05
1.196726e-05
1.162982e-05
1.128953e-05
1.094663e-05
1.060119e-05
1.025317e-05
9.901756e-06
9.54756e-06
9.191726e-06
8.832055e-06
8.469189e-06
8.103561e-06
7.736883e-06
7.368349e-06
6.995632e-06
6.619792e-06
6.242063e-06
5.861304e-06
5.477558e-06
5.09301e-06
4.705555e-06
4.316003e-06
3.923707e-06
3.529056e-06
3.13195e-06
2.733362e-06
2.330847e-06
1.924689e-06
1.515387e-06
1.109335e-06
7.407138e-07
3.755106e-07
1.779222e-05
1.732255e-05
1.692893e-05
1.661577e-05
1.631392e-05
1.602363e-05
1.573211e-05
1.543811e-05
1.513939e-05
1.483902e-05
1.453428e-05
1.422544e-05
1.391424e-05
1.359768e-05
1.327676e-05
1.295329e-05
1.262748e-05
1.229823e-05
1.196541e-05
1.162891e-05
1.128895e-05
1.094664e-05
1.060124e-05
1.025339e-05
9.902251e-06
9.548322e-06
9.191929e-06
8.832909e-06
8.470128e-06
8.104958e-06
7.73773e-06
7.368506e-06
6.99631e-06
6.620423e-06
6.24261e-06
5.862256e-06
5.479187e-06
5.094361e-06
4.7066e-06
4.31704e-06
3.924804e-06
3.530533e-06
3.133729e-06
2.734941e-06
2.334023e-06
1.929858e-06
1.525835e-06
1.123146e-06
7.527599e-07
3.743619e-07
1.768641e-05
1.741845e-05
1.693295e-05
1.661524e-05
1.630909e-05
1.601685e-05
1.57237e-05
1.543196e-05
1.513625e-05
1.483547e-05
1.453149e-05
1.422426e-05
1.391146e-05
1.35946e-05
1.327711e-05
1.295504e-05
1.262931e-05
1.229832e-05
1.196464e-05
1.162932e-05
1.12904e-05
1.094919e-05
1.060336e-05
1.025524e-05
9.904312e-06
9.551048e-06
9.193457e-06
8.834272e-06
8.472088e-06
8.108319e-06
7.740743e-06
7.369249e-06
6.996729e-06
6.621736e-06
6.243886e-06
5.863721e-06
5.482587e-06
5.096792e-06
4.70894e-06
4.318835e-06
3.926205e-06
3.533054e-06
3.136811e-06
2.737206e-06
2.337268e-06
1.936625e-06
1.54075e-06
1.146497e-06
7.550466e-07
3.874216e-07
1.802229e-05
1.718755e-05
1.695227e-05
1.662789e-05
1.634052e-05
1.605062e-05
1.575683e-05
1.546048e-05
1.515982e-05
1.485595e-05
1.45484e-05
1.423724e-05
1.392302e-05
1.360501e-05
1.328342e-05
1.295874e-05
1.263106e-05
1.230057e-05
1.196668e-05
1.16298e-05
1.12897e-05
1.09466e-05
1.060111e-05
1.025243e-05
9.901075e-06
9.546915e-06
9.189934e-06
8.830457e-06
8.468094e-06
8.103213e-06
7.735674e-06
7.365737e-06
6.993507e-06
6.617998e-06
6.240182e-06
5.859841e-06
5.476917e-06
5.091715e-06
4.704491e-06
4.314516e-06
3.922304e-06
3.527715e-06
3.130699e-06
2.73112e-06
2.329123e-06
1.924453e-06
1.516825e-06
1.104667e-06
6.831721e-07
2.557064e-07
1.762057e-05
1.725058e-05
1.695914e-05
1.666168e-05
1.636489e-05
1.606998e-05
1.577209e-05
1.547133e-05
1.516739e-05
1.486101e-05
1.455155e-05
1.423864e-05
1.392346e-05
1.360438e-05
1.32816e-05
1.295614e-05
1.262807e-05
1.229748e-05
1.196331e-05
1.162607e-05
1.128568e-05
1.094231e-05
1.059673e-05
1.024805e-05
9.896624e-06
9.542423e-06
9.185637e-06
8.826155e-06
8.463673e-06
8.098698e-06
7.731251e-06
7.361643e-06
6.989283e-06
6.613941e-06
6.236059e-06
5.855667e-06
5.47261e-06
5.087482e-06
4.700276e-06
4.310391e-06
3.918229e-06
3.523665e-06
3.126687e-06
2.727352e-06
2.32537e-06
1.920417e-06
1.513554e-06
1.110237e-06
6.968271e-07
2.76191e-07
1.742545e-05
1.723392e-05
1.691922e-05
1.662818e-05
1.632961e-05
1.603748e-05
1.574324e-05
1.544593e-05
1.514536e-05
1.484211e-05
1.453531e-05
1.422489e-05
1.391166e-05
1.359445e-05
1.327307e-05
1.294886e-05
1.2622e-05
1.229229e-05
1.195905e-05
1.162241e-05
1.128254e-05
1.093986e-05
1.059446e-05
1.024629e-05
9.895143e-06
9.541251e-06
9.184789e-06
8.825447e-06
8.463132e-06
8.098132e-06
7.730935e-06
7.361517e-06
6.989154e-06
6.613865e-06
6.236075e-06
5.85574e-06
5.472813e-06
5.087772e-06
4.700422e-06
4.310701e-06
3.918548e-06
3.52405e-06
3.127255e-06
2.728217e-06
2.32656e-06
1.92233e-06
1.516914e-06
1.112245e-06
7.077335e-07
2.982365e-07
1.740166e-05
1.721583e-05
1.691447e-05
1.662628e-05
1.632593e-05
1.603131e-05
1.573541e-05
1.543783e-05
1.513738e-05
1.483436e-05
1.45281e-05
1.42184e-05
1.390557e-05
1.358907e-05
1.326874e-05
1.294533e-05
1.261885e-05
1.228935e-05
1.195653e-05
1.162035e-05
1.128105e-05
1.093876e-05
1.059352e-05
1.024555e-05
9.894625e-06
9.5409e-06
9.184455e-06
8.825258e-06
8.463126e-06
8.098318e-06
7.731062e-06
7.361395e-06
6.989114e-06
6.613945e-06
6.236228e-06
5.856068e-06
5.473488e-06
5.088462e-06
4.700936e-06
4.311161e-06
3.918921e-06
3.524525e-06
3.128052e-06
2.72925e-06
2.328342e-06
1.9255e-06
1.522414e-06
1.119175e-06
7.121645e-07
2.995454e-07
1.747748e-05
1.723231e-05
1.693502e-05
1.663855e-05
1.633486e-05
1.603736e-05
1.573906e-05
1.544053e-05
1.513967e-05
1.483596e-05
1.452923e-05
1.42194e-05
1.390602e-05
1.358922e-05
1.326958e-05
1.294657e-05
1.262e-05
1.229011e-05
1.195701e-05
1.162108e-05
1.128218e-05
1.094016e-05
1.05949e-05
1.024683e-05
9.895969e-06
9.542307e-06
9.185716e-06
8.826367e-06
8.464407e-06
8.099903e-06
7.732541e-06
7.362341e-06
6.989875e-06
6.614861e-06
6.237243e-06
5.857261e-06
5.47543e-06
5.090325e-06
4.70243e-06
4.312324e-06
3.919094e-06
3.525525e-06
3.129615e-06
2.731006e-06
2.330564e-06
1.928887e-06
1.527099e-06
1.124051e-06
7.138014e-07
2.962493e-07
1.77855e-05
1.72288e-05
1.700602e-05
1.668472e-05
1.637958e-05
1.607693e-05
1.577367e-05
1.547085e-05
1.51658e-05
1.485888e-05
1.454921e-05
1.423637e-05
1.392105e-05
1.360224e-05
1.328092e-05
1.295648e-05
1.262871e-05
1.229766e-05
1.196359e-05
1.162695e-05
1.128747e-05
1.094488e-05
1.059891e-05
1.025058e-05
9.899265e-06
9.545204e-06
9.188616e-06
8.82875e-06
8.466623e-06
8.102012e-06
7.734333e-06
7.363972e-06
6.991297e-06
6.616223e-06
6.238517e-06
5.858277e-06
5.476479e-06
5.091806e-06
4.703094e-06
4.314201e-06
3.921967e-06
3.527984e-06
3.131041e-06
2.732618e-06
2.331838e-06
1.929747e-06
1.525852e-06
1.118074e-06
6.991589e-07
2.664376e-07
1.804301e-05
1.720362e-05
1.695381e-05
1.66114e-05
1.632145e-05
1.603058e-05
1.573884e-05
1.54449e-05
1.514707e-05
1.484552e-05
1.454006e-05
1.423071e-05
1.391773e-05
1.360106e-05
1.32811e-05
1.295771e-05
1.263076e-05
1.230054e-05
1.196717e-05
1.163079e-05
1.129147e-05
1.094903e-05
1.060334e-05
1.02551e-05
9.903871e-06
9.549901e-06
9.193255e-06
8.833523e-06
8.471367e-06
8.106614e-06
7.738939e-06
7.368799e-06
6.995676e-06
6.620899e-06
6.243129e-06
5.862569e-06
5.481042e-06
5.09743e-06
4.707229e-06
4.315339e-06
3.924982e-06
3.53267e-06
3.135426e-06
2.736763e-06
2.335827e-06
1.933101e-06
1.52729e-06
1.116165e-06
6.955193e-07
2.664768e-07
1.80264e-05
1.71867e-05
1.695344e-05
1.662862e-05
1.634072e-05
1.605036e-05
1.575682e-05
1.546029e-05
1.515994e-05
1.4856e-05
1.454845e-05
1.423735e-05
1.392282e-05
1.360484e-05
1.328349e-05
1.295892e-05
1.263123e-05
1.230047e-05
1.196659e-05
1.162965e-05
1.128971e-05
1.094683e-05
1.060111e-05
1.025253e-05
9.901143e-06
9.546981e-06
9.190072e-06
8.83048e-06
8.468188e-06
8.103276e-06
7.735761e-06
7.365694e-06
6.993088e-06
6.617819e-06
6.240058e-06
5.859789e-06
5.477075e-06
5.091962e-06
4.704512e-06
4.314661e-06
3.922457e-06
3.527917e-06
3.13104e-06
2.731834e-06
2.33033e-06
1.926451e-06
1.519591e-06
1.108886e-06
6.864951e-07
2.544371e-07
1.750932e-05
1.721804e-05
1.692514e-05
1.663094e-05
1.63363e-05
1.60458e-05
1.575156e-05
1.545488e-05
1.515439e-05
1.485044e-05
1.454294e-05
1.423188e-05
1.391746e-05
1.359953e-05
1.32782e-05
1.295366e-05
1.262604e-05
1.229538e-05
1.196159e-05
1.162471e-05
1.128481e-05
1.094195e-05
1.059631e-05
1.02478e-05
9.896472e-06
9.542379e-06
9.185536e-06
8.826024e-06
8.463782e-06
8.098933e-06
7.731488e-06
7.361512e-06
6.988999e-06
6.613805e-06
6.236074e-06
5.855834e-06
5.473142e-06
5.088056e-06
4.700672e-06
4.310856e-06
3.918691e-06
3.524179e-06
3.127308e-06
2.728061e-06
2.326451e-06
1.922364e-06
1.515747e-06
1.106094e-06
6.882601e-07
2.666693e-07
1.730617e-05
1.714652e-05
1.688658e-05
1.661916e-05
1.63333e-05
1.6045e-05
1.575128e-05
1.545383e-05
1.515256e-05
1.484792e-05
1.453992e-05
1.422847e-05
1.391383e-05
1.359575e-05
1.327422e-05
1.294958e-05
1.262198e-05
1.229142e-05
1.195771e-05
1.162088e-05
1.128101e-05
1.09382e-05
1.059262e-05
1.02442e-05
9.892957e-06
9.53895e-06
9.182219e-06
8.822791e-06
8.460588e-06
8.095775e-06
7.728407e-06
7.358558e-06
6.986116e-06
6.610987e-06
6.233282e-06
5.85307e-06
5.470385e-06
5.085333e-06
4.697982e-06
4.308207e-06
3.91608e-06
3.521608e-06
3.124785e-06
2.725611e-06
2.324042e-06
1.92e-06
1.513677e-06
1.105241e-06
6.943724e-07
2.772297e-07
1.720689e-05
1.709321e-05
1.686017e-05
1.660207e-05
1.632213e-05
1.603541e-05
1.5743e-05
1.544612e-05
1.514538e-05
1.484126e-05
1.453375e-05
1.422281e-05
1.390865e-05
1.359105e-05
1.326996e-05
1.294572e-05
1.261852e-05
1.22883e-05
1.195493e-05
1.161838e-05
1.127875e-05
1.093619e-05
1.059079e-05
1.024256e-05
9.891481e-06
9.537623e-06
9.181043e-06
8.821718e-06
8.459614e-06
8.094852e-06
7.727571e-06
7.357816e-06
6.985426e-06
6.610356e-06
6.232714e-06
5.852569e-06
5.46995e-06
5.08498e-06
4.697613e-06
4.307855e-06
3.915774e-06
3.521378e-06
3.124665e-06
2.725665e-06
2.324328e-06
1.920708e-06
1.515074e-06
1.108348e-06
6.991177e-07
2.84353e-07
1.718906e-05
1.708306e-05
1.685512e-05
1.659955e-05
1.632079e-05
1.603389e-05
1.574105e-05
1.544378e-05
1.514278e-05
1.483845e-05
1.453087e-05
1.421999e-05
1.390589e-05
1.358849e-05
1.326773e-05
1.294381e-05
1.261679e-05
1.228672e-05
1.195351e-05
1.161718e-05
1.127781e-05
1.093544e-05
1.059016e-05
1.024203e-05
9.891066e-06
9.537296e-06
9.180769e-06
8.821496e-06
8.459477e-06
8.094783e-06
7.727507e-06
7.357685e-06
6.985301e-06
6.610287e-06
6.232723e-06
5.852741e-06
5.470273e-06
5.085329e-06
4.697831e-06
4.307963e-06
3.915762e-06
3.521409e-06
3.124938e-06
2.726171e-06
2.325229e-06
1.922244e-06
1.517431e-06
1.111385e-06
7.015067e-07
2.86036e-07
1.724309e-05
1.711185e-05
1.686972e-05
1.660954e-05
1.632728e-05
1.603916e-05
1.574505e-05
1.54471e-05
1.514558e-05
1.484075e-05
1.453273e-05
1.42215e-05
1.390706e-05
1.35894e-05
1.326864e-05
1.294473e-05
1.261757e-05
1.228732e-05
1.195395e-05
1.161761e-05
1.127831e-05
1.093597e-05
1.059066e-05
1.024248e-05
9.891487e-06
9.537693e-06
9.181114e-06
8.821772e-06
8.459763e-06
8.095104e-06
7.727776e-06
7.357797e-06
6.985322e-06
6.610324e-06
6.232823e-06
5.852964e-06
5.470584e-06
5.085796e-06
4.698058e-06
4.307923e-06
3.915404e-06
3.521292e-06
3.125215e-06
2.726601e-06
2.325928e-06
1.923319e-06
1.518795e-06
1.112024e-06
7.013362e-07
2.829463e-07
1.738474e-05
1.717407e-05
1.690318e-05
1.663175e-05
1.634265e-05
1.605269e-05
1.575692e-05
1.545823e-05
1.515603e-05
1.485059e-05
1.454196e-05
1.423006e-05
1.391501e-05
1.359676e-05
1.327545e-05
1.295102e-05
1.262336e-05
1.229263e-05
1.195883e-05
1.162213e-05
1.128252e-05
1.09399e-05
1.059429e-05
1.024589e-05
9.894666e-06
9.540673e-06
9.183938e-06
8.824425e-06
8.462259e-06
8.097481e-06
7.730006e-06
7.359866e-06
6.987273e-06
6.612198e-06
6.234634e-06
5.854736e-06
5.472481e-06
5.087883e-06
4.699807e-06
4.309654e-06
3.917334e-06
3.523615e-06
3.12727e-06
2.728538e-06
2.32782e-06
1.924969e-06
1.519621e-06
1.110569e-06
6.956128e-07
2.745176e-07
1.767267e-05
1.722426e-05
1.69581e-05
1.664926e-05
1.635078e-05
1.605594e-05
1.575854e-05
1.545997e-05
1.515825e-05
1.485341e-05
1.454527e-05
1.423377e-05
1.391898e-05
1.36009e-05
1.327966e-05
1.295523e-05
1.262756e-05
1.229677e-05
1.196294e-05
1.162615e-05
1.128642e-05
1.094371e-05
1.059802e-05
1.024953e-05
9.89822e-06
9.544145e-06
9.187337e-06
8.82774e-06
8.4655e-06
8.100635e-06
7.73308e-06
7.362894e-06
6.990163e-06
6.615044e-06
6.237356e-06
5.857034e-06
5.476087e-06
5.092246e-06
4.705253e-06
4.312211e-06
3.917784e-06
3.52492e-06
3.129517e-06
2.731085e-06
2.33035e-06
1.927342e-06
1.521108e-06
1.110225e-06
6.917681e-07
2.65059e-07
1.762434e-05
1.725131e-05
1.696155e-05
1.666274e-05
1.636504e-05
1.606982e-05
1.577136e-05
1.547098e-05
1.516753e-05
1.486107e-05
1.455148e-05
1.423875e-05
1.392288e-05
1.360387e-05
1.328173e-05
1.295653e-05
1.262832e-05
1.229712e-05
1.196293e-05
1.162576e-05
1.128567e-05
1.094268e-05
1.059685e-05
1.024821e-05
9.896774e-06
9.542587e-06
9.185673e-06
8.826068e-06
8.463793e-06
8.098888e-06
7.731386e-06
7.361313e-06
6.988683e-06
6.613488e-06
6.235768e-06
5.855571e-06
5.472926e-06
5.087876e-06
4.700449e-06
4.310653e-06
3.918511e-06
3.524052e-06
3.1273e-06
2.728305e-06
2.327127e-06
1.923832e-06
1.518433e-06
1.110769e-06
6.989915e-07
2.755497e-07
1.730976e-05
1.714827e-05
1.688814e-05
1.662002e-05
1.63335e-05
1.604508e-05
1.575108e-05
1.54537e-05
1.515255e-05
1.484793e-05
1.453988e-05
1.422843e-05
1.391366e-05
1.359557e-05
1.32742e-05
1.294966e-05
1.262203e-05
1.229133e-05
1.195757e-05
1.162078e-05
1.128099e-05
1.093827e-05
1.059269e-05
1.024426e-05
9.893022e-06
9.539007e-06
9.182247e-06
8.822781e-06
8.460626e-06
8.095832e-06
7.728435e-06
7.358467e-06
6.985932e-06
6.610817e-06
6.233163e-06
5.853023e-06
5.470441e-06
5.08545e-06
4.698077e-06
4.308325e-06
3.916225e-06
3.521787e-06
3.125034e-06
2.726e-06
2.324694e-06
1.921119e-06
1.515219e-06
1.106824e-06
6.946892e-07
2.765935e-07
1.71565e-05
1.70512e-05
1.683688e-05
1.658849e-05
1.631553e-05
1.603325e-05
1.57432e-05
1.544754e-05
1.514727e-05
1.484309e-05
1.45353e-05
1.422404e-05
1.390944e-05
1.359152e-05
1.327032e-05
1.294596e-05
1.261853e-05
1.228805e-05
1.19545e-05
1.16179e-05
1.127829e-05
1.093574e-05
1.059031e-05
1.024204e-05
9.890949e-06
9.537071e-06
9.180444e-06
8.821096e-06
8.459041e-06
8.094339e-06
7.727038e-06
7.357171e-06
6.984724e-06
6.609686e-06
6.232099e-06
5.852016e-06
5.469512e-06
5.084597e-06
4.697271e-06
4.307562e-06
3.915515e-06
3.521108e-06
3.124381e-06
2.72538e-06
2.324051e-06
1.920405e-06
1.514265e-06
1.106134e-06
6.942997e-07
2.819744e-07
1.703811e-05
1.694293e-05
1.674405e-05
1.649582e-05
1.622913e-05
1.595024e-05
1.56611e-05
1.536495e-05
1.506409e-05
1.47593e-05
1.445085e-05
1.413892e-05
1.382369e-05
1.350519e-05
1.318345e-05
1.285858e-05
1.253062e-05
1.21996e-05
1.186551e-05
1.152838e-05
1.118824e-05
1.084515e-05
1.049918e-05
1.015035e-05
9.798697e-06
9.444249e-06
9.087046e-06
8.727114e-06
8.364479e-06
7.999193e-06
7.631306e-06
7.260842e-06
6.887805e-06
6.512172e-06
6.134052e-06
5.753236e-06
5.370356e-06
4.984942e-06
4.597012e-06
4.206708e-06
3.814315e-06
3.419274e-06
3.022028e-06
2.622644e-06
2.220712e-06
1.817001e-06
1.408748e-06
1.004641e-06
5.752233e-07
2.318068e-07
1.703759e-05
1.694276e-05
1.674409e-05
1.649606e-05
1.622926e-05
1.595027e-05
1.566112e-05
1.5365e-05
1.506416e-05
1.475939e-05
1.445093e-05
1.4139e-05
1.382376e-05
1.350526e-05
1.318356e-05
1.285871e-05
1.253075e-05
1.219972e-05
1.186562e-05
1.15285e-05
1.118839e-05
1.084533e-05
1.049937e-05
1.015054e-05
9.798893e-06
9.444447e-06
9.08724e-06
8.727303e-06
8.364669e-06
7.999381e-06
7.631478e-06
7.260988e-06
6.88794e-06
6.512337e-06
6.134275e-06
5.753854e-06
5.371088e-06
4.985444e-06
4.59723e-06
4.206732e-06
3.813654e-06
3.418946e-06
3.022073e-06
2.622975e-06
2.221265e-06
1.817774e-06
1.409702e-06
1.005692e-06
5.760342e-07
2.325457e-07
1.710658e-05
1.702227e-05
1.682355e-05
1.658042e-05
1.631166e-05
1.603081e-05
1.574104e-05
1.544522e-05
1.514488e-05
1.484066e-05
1.453286e-05
1.422163e-05
1.390708e-05
1.358926e-05
1.326825e-05
1.294407e-05
1.261675e-05
1.228632e-05
1.195282e-05
1.161632e-05
1.127684e-05
1.093439e-05
1.058902e-05
1.024079e-05
9.88973e-06
9.535877e-06
9.179261e-06
8.819908e-06
8.457866e-06
8.093171e-06
7.725843e-06
7.355911e-06
6.983432e-06
6.608449e-06
6.23097e-06
5.851324e-06
5.468665e-06
5.084196e-06
4.696396e-06
4.30639e-06
3.913466e-06
3.51988e-06
3.123442e-06
2.724833e-06
2.323967e-06
1.921014e-06
1.515046e-06
1.108378e-06
6.929373e-07
2.924033e-07
1.721597e-05
1.709312e-05
1.686054e-05
1.660414e-05
1.632401e-05
1.603888e-05
1.574721e-05
1.545114e-05
1.515091e-05
1.484688e-05
1.453919e-05
1.422795e-05
1.391328e-05
1.359526e-05
1.327399e-05
1.294951e-05
1.262184e-05
1.229105e-05
1.195721e-05
1.162038e-05
1.12806e-05
1.093787e-05
1.059223e-05
1.024374e-05
9.892451e-06
9.538384e-06
9.181574e-06
8.822039e-06
8.459829e-06
8.094984e-06
7.727504e-06
7.357419e-06
6.98481e-06
6.609722e-06
6.232204e-06
5.852448e-06
5.469817e-06
5.085395e-06
4.697302e-06
4.307179e-06
3.914486e-06
3.520588e-06
3.124619e-06
2.726061e-06
2.32527e-06
1.922172e-06
1.516524e-06
1.108181e-06
6.956835e-07
2.796326e-07
1.742724e-05
1.720126e-05
1.691488e-05
1.66277e-05
1.633544e-05
1.604579e-05
1.57522e-05
1.545583e-05
1.515567e-05
1.48518e-05
1.454424e-05
1.423305e-05
1.391838e-05
1.360031e-05
1.327895e-05
1.295434e-05
1.262654e-05
1.229562e-05
1.196164e-05
1.162468e-05
1.128477e-05
1.094191e-05
1.059615e-05
1.024756e-05
9.896157e-06
9.541989e-06
9.185085e-06
8.825459e-06
8.463161e-06
8.098229e-06
7.730661e-06
7.360487e-06
6.987771e-06
6.612577e-06
6.234962e-06
5.855185e-06
5.473229e-06
5.088599e-06
4.700682e-06
4.307929e-06
3.91588e-06
3.523264e-06
3.127596e-06
2.728915e-06
2.328116e-06
1.925064e-06
1.519504e-06
1.110931e-06
6.98324e-07
2.776735e-07
1.796214e-05
1.723392e-05
1.693342e-05
1.662556e-05
1.633934e-05
1.605099e-05
1.575802e-05
1.546205e-05
1.516188e-05
1.485791e-05
1.455021e-05
1.423892e-05
1.392416e-05
1.360602e-05
1.32846e-05
1.295996e-05
1.263213e-05
1.230118e-05
1.196719e-05
1.16302e-05
1.129025e-05
1.094737e-05
1.060159e-05
1.025296e-05
9.901528e-06
9.547322e-06
9.190375e-06
8.830708e-06
8.468363e-06
8.103374e-06
7.735748e-06
7.365502e-06
6.992678e-06
6.617339e-06
6.239497e-06
5.85987e-06
5.479071e-06
5.094282e-06
4.702432e-06
4.309199e-06
3.922278e-06
3.530442e-06
3.132807e-06
2.733729e-06
2.332818e-06
1.92995e-06
1.524831e-06
1.117434e-06
7.087234e-07
2.853052e-07
1.777056e-05
1.736897e-05
1.692137e-05
1.66212e-05
1.632211e-05
1.603385e-05
1.574232e-05
1.544808e-05
1.514983e-05
1.484765e-05
1.454159e-05
1.423177e-05
1.391828e-05
1.360124e-05
1.328075e-05
1.295691e-05
1.262979e-05
1.229946e-05
1.1966e-05
1.162943e-05
1.128983e-05
1.094725e-05
1.060174e-05
1.025334e-05
9.902098e-06
9.548055e-06
9.191251e-06
8.831721e-06
8.4695e-06
8.104624e-06
7.737124e-06
7.367032e-06
6.994372e-06
6.619166e-06
6.241443e-06
5.86124e-06
5.47859e-06
5.093524e-06
4.706067e-06
4.31625e-06
3.924103e-06
3.529665e-06
3.132989e-06
2.734174e-06
2.333405e-06
1.931075e-06
1.528198e-06
1.127625e-06
7.360594e-07
3.504765e-07
1.743116e-05
1.723887e-05
1.692274e-05
1.663011e-05
1.633033e-05
1.603792e-05
1.57426e-05
1.54457e-05
1.514565e-05
1.484225e-05
1.453537e-05
1.422499e-05
1.391115e-05
1.359389e-05
1.327327e-05
1.294937e-05
1.262226e-05
1.229198e-05
1.195858e-05
1.162211e-05
1.128261e-05
1.094013e-05
1.059474e-05
1.024646e-05
9.895337e-06
9.541415e-06
9.184729e-06
8.825315e-06
8.463207e-06
8.09844e-06
7.731049e-06
7.361063e-06
6.988506e-06
6.613395e-06
6.235762e-06
5.855645e-06
5.473081e-06
5.0881e-06
4.700724e-06
4.31098e-06
3.9189e-06
3.524512e-06
3.127859e-06
2.72902e-06
2.328108e-06
1.925341e-06
1.52113e-06
1.116241e-06
7.103345e-07
2.936412e-07
1.721402e-05
1.709861e-05
1.686369e-05
1.66038e-05
1.632284e-05
1.603573e-05
1.574299e-05
1.544617e-05
1.514555e-05
1.484141e-05
1.453384e-05
1.422287e-05
1.390855e-05
1.359091e-05
1.327e-05
1.294589e-05
1.261862e-05
1.228824e-05
1.195478e-05
1.161827e-05
1.127876e-05
1.093629e-05
1.059091e-05
1.024266e-05
9.891577e-06
9.5377e-06
9.181064e-06
8.821702e-06
8.459647e-06
8.094936e-06
7.727603e-06
7.357678e-06
6.98518e-06
6.610123e-06
6.232542e-06
5.852473e-06
5.469977e-06
5.085076e-06
4.697756e-06
4.308055e-06
3.916028e-06
3.521658e-06
3.124974e-06
2.726079e-06
2.324994e-06
1.921797e-06
1.516466e-06
1.109404e-06
6.990272e-07
2.840615e-07
1.704266e-05
1.694663e-05
1.674516e-05
1.649654e-05
1.622905e-05
1.595041e-05
1.566129e-05
1.536515e-05
1.506431e-05
1.475953e-05
1.445106e-05
1.41391e-05
1.382383e-05
1.350532e-05
1.318359e-05
1.285871e-05
1.253073e-05
1.219968e-05
1.186557e-05
1.152843e-05
1.11883e-05
1.084523e-05
1.049925e-05
1.015042e-05
9.798754e-06
9.444295e-06
9.087079e-06
8.727138e-06
8.364505e-06
7.999216e-06
7.631311e-06
7.260814e-06
6.887744e-06
6.512104e-06
6.13395e-06
5.753294e-06
5.37047e-06
4.985037e-06
4.597098e-06
4.206831e-06
3.814365e-06
3.419176e-06
3.021867e-06
2.622518e-06
2.220648e-06
1.816991e-06
1.408622e-06
1.004367e-06
5.746224e-07
2.302592e-07
1.698765e-05
1.690537e-05
1.672212e-05
1.647964e-05
1.621886e-05
1.594508e-05
1.56593e-05
1.536536e-05
1.506618e-05
1.476268e-05
1.445509e-05
1.414365e-05
1.382863e-05
1.351016e-05
1.318832e-05
1.286322e-05
1.253493e-05
1.220352e-05
1.186903e-05
1.15315e-05
1.119098e-05
1.084754e-05
1.05012e-05
1.015203e-05
9.800043e-06
9.445289e-06
9.087801e-06
8.727609e-06
8.364746e-06
7.999248e-06
7.631156e-06
7.26049e-06
6.887275e-06
6.511456e-06
6.133206e-06
5.751818e-06
5.369332e-06
4.984214e-06
4.596265e-06
4.20591e-06
3.814532e-06
3.4188e-06
3.021025e-06
2.621534e-06
2.219495e-06
1.815596e-06
1.406547e-06
1.002079e-06
5.685201e-07
2.356892e-07
1.698723e-05
1.690466e-05
1.672008e-05
1.648004e-05
1.621933e-05
1.594531e-05
1.565943e-05
1.536543e-05
1.50662e-05
1.476263e-05
1.445497e-05
1.414346e-05
1.382838e-05
1.350985e-05
1.318798e-05
1.286284e-05
1.253452e-05
1.220308e-05
1.186857e-05
1.153103e-05
1.119051e-05
1.084707e-05
1.050074e-05
1.015157e-05
9.799588e-06
9.444839e-06
9.087353e-06
8.727163e-06
8.364303e-06
7.998811e-06
7.630724e-06
7.260058e-06
6.886866e-06
6.511039e-06
6.132975e-06
5.752672e-06
5.368848e-06
4.983568e-06
4.59551e-06
4.204589e-06
3.81215e-06
3.417648e-06
3.020182e-06
2.621159e-06
2.219397e-06
1.815648e-06
1.40679e-06
1.002336e-06
5.69936e-07
2.372078e-07
1.703746e-05
1.694305e-05
1.674699e-05
1.649775e-05
1.623014e-05
1.595077e-05
1.566147e-05
1.536529e-05
1.506443e-05
1.475965e-05
1.445119e-05
1.413927e-05
1.382403e-05
1.350555e-05
1.318389e-05
1.285907e-05
1.253112e-05
1.220009e-05
1.1866e-05
1.15289e-05
1.118881e-05
1.084578e-05
1.049984e-05
1.015102e-05
9.799363e-06
9.444911e-06
9.087693e-06
8.727743e-06
8.3651e-06
7.999802e-06
7.631881e-06
7.261367e-06
6.888305e-06
6.512738e-06
6.134876e-06
5.754103e-06
5.373442e-06
4.986354e-06
4.597791e-06
4.206716e-06
3.81577e-06
3.419156e-06
3.022156e-06
2.623297e-06
2.221705e-06
1.818262e-06
1.409972e-06
1.005927e-06
5.752572e-07
2.320211e-07
1.71316e-05
1.704258e-05
1.683548e-05
1.658699e-05
1.631539e-05
1.60341e-05
1.574524e-05
1.545065e-05
1.515144e-05
1.484805e-05
1.454073e-05
1.422967e-05
1.391505e-05
1.359698e-05
1.327558e-05
1.295092e-05
1.262308e-05
1.229211e-05
1.195809e-05
1.162106e-05
1.128108e-05
1.093817e-05
1.059238e-05
1.024375e-05
9.89232e-06
9.538124e-06
9.181193e-06
8.821558e-06
8.459254e-06
8.094317e-06
7.726771e-06
7.356648e-06
6.98398e-06
6.608882e-06
6.231189e-06
5.852239e-06
5.46873e-06
5.083813e-06
4.696155e-06
4.305509e-06
3.913136e-06
3.520095e-06
3.123787e-06
2.725119e-06
2.324132e-06
1.921068e-06
1.514953e-06
1.108593e-06
6.925225e-07
2.92741e-07
1.730209e-05
1.716133e-05
1.689432e-05
1.662447e-05
1.633987e-05
1.605293e-05
1.576056e-05
1.546396e-05
1.51632e-05
1.485854e-05
1.455015e-05
1.423819e-05
1.392278e-05
1.360404e-05
1.328206e-05
1.295691e-05
1.262863e-05
1.22973e-05
1.196296e-05
1.162566e-05
1.128544e-05
1.094232e-05
1.059635e-05
1.024756e-05
9.89598e-06
9.541651e-06
9.184599e-06
8.824853e-06
8.462444e-06
8.097407e-06
7.729762e-06
7.359534e-06
6.986761e-06
6.611505e-06
6.233885e-06
5.854222e-06
5.471989e-06
5.087044e-06
4.698734e-06
4.308288e-06
3.916887e-06
3.522903e-06
3.126396e-06
2.727543e-06
2.326731e-06
1.923849e-06
1.519032e-06
1.112611e-06
7.036488e-07
2.862065e-07
1.758619e-05
1.732251e-05
1.696355e-05
1.668121e-05
1.638127e-05
1.608611e-05
1.578688e-05
1.548539e-05
1.518076e-05
1.487307e-05
1.45623e-05
1.424845e-05
1.393157e-05
1.361166e-05
1.328875e-05
1.296286e-05
1.263401e-05
1.23022e-05
1.196749e-05
1.162988e-05
1.128941e-05
1.09461e-05
1.059996e-05
1.025102e-05
9.899329e-06
9.544898e-06
9.187757e-06
8.827933e-06
8.465453e-06
8.100347e-06
7.732632e-06
7.362317e-06
6.989421e-06
6.614012e-06
6.23626e-06
5.856366e-06
5.475564e-06
5.090917e-06
4.706282e-06
4.311711e-06
3.918447e-06
3.524203e-06
3.128488e-06
2.729989e-06
2.329374e-06
1.926892e-06
1.523149e-06
1.119552e-06
7.18594e-07
3.09124e-07
1.780269e-05
1.732619e-05
1.69295e-05
1.661554e-05
1.631284e-05
1.60227e-05
1.573068e-05
1.54371e-05
1.513997e-05
1.483905e-05
1.453424e-05
1.422557e-05
1.391312e-05
1.3597e-05
1.327731e-05
1.295415e-05
1.262762e-05
1.22978e-05
1.196477e-05
1.162857e-05
1.128929e-05
1.094698e-05
1.06017e-05
1.025349e-05
9.902409e-06
9.548502e-06
9.191811e-06
8.832377e-06
8.470235e-06
8.105422e-06
7.737971e-06
7.367917e-06
6.99529e-06
6.620119e-06
6.242431e-06
5.86226e-06
5.479637e-06
5.094593e-06
4.707153e-06
4.317351e-06
3.925225e-06
3.530816e-06
3.134176e-06
2.735409e-06
2.334712e-06
1.9325e-06
1.529658e-06
1.128512e-06
7.333116e-07
3.362535e-07
1.741103e-05
1.722113e-05
1.691692e-05
1.662746e-05
1.632621e-05
1.603196e-05
1.573525e-05
1.543765e-05
1.513752e-05
1.483444e-05
1.452813e-05
1.421842e-05
1.39053e-05
1.358876e-05
1.326882e-05
1.294556e-05
1.261901e-05
1.228924e-05
1.195629e-05
1.162021e-05
1.128107e-05
1.09389e-05
1.059376e-05
1.024571e-05
9.894776e-06
9.541016e-06
9.184469e-06
8.825174e-06
8.463167e-06
8.098482e-06
7.731154e-06
7.36122e-06
6.988708e-06
6.613646e-06
6.236062e-06
5.855992e-06
5.473472e-06
5.088528e-06
4.701179e-06
4.311461e-06
3.919416e-06
3.52507e-06
3.128467e-06
2.729693e-06
2.328867e-06
1.926215e-06
1.522128e-06
1.11735e-06
7.112985e-07
2.937698e-07
1.719777e-05
1.70893e-05
1.685852e-05
1.660084e-05
1.632114e-05
1.603414e-05
1.57411e-05
1.544384e-05
1.514289e-05
1.483857e-05
1.453094e-05
1.422003e-05
1.390585e-05
1.358841e-05
1.326774e-05
1.294387e-05
1.261684e-05
1.228668e-05
1.195343e-05
1.161712e-05
1.127778e-05
1.093548e-05
1.059024e-05
1.024211e-05
9.891132e-06
9.537342e-06
9.180781e-06
8.821483e-06
8.459484e-06
8.094816e-06
7.727513e-06
7.357608e-06
6.98513e-06
6.610101e-06
6.232555e-06
5.852522e-06
5.470065e-06
5.085193e-06
4.697891e-06
4.308209e-06
3.916213e-06
3.521878e-06
3.125241e-06
2.726415e-06
2.325416e-06
1.922323e-06
1.517096e-06
1.110229e-06
7.000092e-07
2.858647e-07
1.704253e-05
1.694662e-05
1.674566e-05
1.649658e-05
1.6229e-05
1.595035e-05
1.566122e-05
1.536507e-05
1.506423e-05
1.475944e-05
1.445095e-05
1.413898e-05
1.38237e-05
1.350517e-05
1.318345e-05
1.285858e-05
1.25306e-05
1.219954e-05
1.186543e-05
1.15283e-05
1.118819e-05
1.084514e-05
1.049918e-05
1.015035e-05
9.798688e-06
9.444233e-06
9.087021e-06
8.727085e-06
8.364459e-06
7.999174e-06
7.631266e-06
7.260763e-06
6.887692e-06
6.512062e-06
6.133922e-06
5.753305e-06
5.370509e-06
4.985057e-06
4.597119e-06
4.206874e-06
3.814419e-06
3.419259e-06
3.022029e-06
2.622741e-06
2.220918e-06
1.817307e-06
1.408943e-06
1.004778e-06
5.74872e-07
2.31118e-07
1.698773e-05
1.690544e-05
1.672252e-05
1.647952e-05
1.621869e-05
1.594493e-05
1.565918e-05
1.536526e-05
1.506612e-05
1.476264e-05
1.445505e-05
1.414362e-05
1.38286e-05
1.351014e-05
1.318832e-05
1.286322e-05
1.253494e-05
1.220353e-05
1.186903e-05
1.153151e-05
1.119101e-05
1.084758e-05
1.050125e-05
1.015208e-05
9.800094e-06
9.445336e-06
9.087842e-06
8.727643e-06
8.364776e-06
7.999276e-06
7.63118e-06
7.260504e-06
6.887278e-06
6.511454e-06
6.133198e-06
5.751862e-06
5.369381e-06
4.984254e-06
4.596321e-06
4.20599e-06
3.814617e-06
3.418883e-06
3.021144e-06
2.621679e-06
2.219662e-06
1.815759e-06
1.40679e-06
1.002323e-06
5.706067e-07
2.380193e-07
1.698773e-05
1.690485e-05
1.671976e-05
1.648018e-05
1.621944e-05
1.594537e-05
1.565946e-05
1.536546e-05
1.506623e-05
1.476267e-05
1.4455e-05
1.414349e-05
1.382839e-05
1.350986e-05
1.318799e-05
1.286285e-05
1.253453e-05
1.220308e-05
1.186857e-05
1.153103e-05
1.119052e-05
1.084709e-05
1.050077e-05
1.015159e-05
9.799612e-06
9.444857e-06
9.087364e-06
8.727165e-06
8.364297e-06
7.998802e-06
7.630718e-06
7.260054e-06
6.886855e-06
6.510998e-06
6.132884e-06
5.753052e-06
5.36837e-06
4.983219e-06
4.59535e-06
4.204504e-06
3.811756e-06
3.418127e-06
3.020483e-06
2.621336e-06
2.219503e-06
1.815668e-06
1.406823e-06
1.002342e-06
5.716228e-07
2.394712e-07
1.703804e-05
1.694328e-05
1.674656e-05
1.649781e-05
1.623023e-05
1.595083e-05
1.566151e-05
1.536534e-05
1.506449e-05
1.475971e-05
1.445124e-05
1.41393e-05
1.382405e-05
1.350557e-05
1.31839e-05
1.285908e-05
1.253113e-05
1.220009e-05
1.1866e-05
1.15289e-05
1.118882e-05
1.084579e-05
1.049985e-05
1.015104e-05
9.79938e-06
9.444925e-06
9.087701e-06
8.727745e-06
8.365096e-06
7.999798e-06
7.631889e-06
7.261385e-06
6.888326e-06
6.512711e-06
6.134798e-06
5.754114e-06
5.372798e-06
4.985989e-06
4.59767e-06
4.206707e-06
3.815561e-06
3.419713e-06
3.022456e-06
2.623425e-06
2.221725e-06
1.818177e-06
1.40982e-06
1.005797e-06
5.75402e-07
2.326062e-07
1.711587e-05
1.703283e-05
1.683004e-05
1.658341e-05
1.631377e-05
1.603351e-05
1.574525e-05
1.545085e-05
1.515169e-05
1.484828e-05
1.454091e-05
1.422982e-05
1.391519e-05
1.359714e-05
1.327577e-05
1.295115e-05
1.262336e-05
1.229245e-05
1.195848e-05
1.16215e-05
1.128156e-05
1.093869e-05
1.059293e-05
1.024432e-05
9.892897e-06
9.538701e-06
9.181761e-06
8.822112e-06
8.459791e-06
8.094836e-06
7.727282e-06
7.357156e-06
6.984475e-06
6.609348e-06
6.231578e-06
5.852632e-06
5.469177e-06
5.08414e-06
4.696518e-06
4.30546e-06
3.91308e-06
3.520297e-06
3.124001e-06
2.725299e-06
2.324228e-06
1.921113e-06
1.514931e-06
1.108934e-06
6.923505e-07
2.954749e-07
1.728169e-05
1.714754e-05
1.688839e-05
1.662355e-05
1.634108e-05
1.605466e-05
1.57623e-05
1.546536e-05
1.516423e-05
1.485924e-05
1.455062e-05