/*--------------------------------*- C++ -*----------------------------------*\
| =========                 |                                                 |
| \\      /  F ield         | OpenFOAM: The Open Source CFD Toolbox           |
|  \\    /   O peration     | Version:  v1912                                 |
|   \\  /    A nd           | Website:  www.openfoam.com                      |
|    \\/     M anipulation  |                                                 |
\*---------------------------------------------------------------------------*/
FoamFile
{
    version     2.0;
    format      ascii;
    class       surfaceScalarField;
    location    "204";
    object      phi;
}
// * * * * * * * * * * * * * * * * * * * * * * * * * * * * * * * * * * * * * //

dimensions      [0 3 -1 0 0 0 0];
oriented        oriented;


internalField   nonuniform List<scalar> 
129352
(
-5.901703e-05
0.008004652
1.836133e-05
0.0001880845
-1.154865e-06
-1.720203e-06
-0.0079229
0.007903158
8.254735e-08
2.399928e-05
-2.619529e-06
-1.758028e-08
-0.007893162
0.007895067
-1.918068e-07
8.381388e-07
-2.533301e-06
-3.680607e-07
-0.00789605
0.007900377
2.915849e-07
-1.656977e-06
-2.593473e-06
-9.059314e-07
-0.007896942
0.007900877
5.339934e-07
-9.069082e-07
-2.656719e-06
-1.068718e-06
-0.007897547
0.007901527
6.702805e-07
-8.868416e-07
-2.695259e-06
-1.000735e-06
-0.007898253
0.007902322
4.571309e-07
-7.716178e-07
-2.754566e-06
-9.41588e-07
-0.007899189
0.007903328
2.801259e-07
-6.800652e-07
-2.797554e-06
-1.096415e-06
-0.007900186
0.007904304
4.725847e-07
-6.656528e-07
-2.828561e-06
-1.168875e-06
-0.007901115
0.007905209
5.557587e-07
-6.181751e-07
-2.862302e-06
-1.167028e-06
-0.007902049
0.007906171
5.215284e-07
-5.702544e-07
-2.906441e-06
-1.300069e-06
-0.007902985
0.007907048
7.098885e-07
-5.373537e-07
-2.935782e-06
-1.324741e-06
-0.00790383
0.0079079
7.263718e-07
-4.979527e-07
-2.973327e-06
-1.143497e-06
-0.007904762
0.00790894
4.115179e-07
-4.356107e-07
-3.010521e-06
-1.127214e-06
-0.007905858
0.007910057
3.613121e-07
-3.904434e-07
-3.04273e-06
-1.269366e-06
-0.007906958
0.007911109
5.813704e-07
-3.938836e-07
-3.068458e-06
-1.391146e-06
-0.007907936
0.007912031
7.737544e-07
-3.836919e-07
-3.094773e-06
-1.40506e-06
-0.007908823
0.007912936
7.859474e-07
-3.513388e-07
-3.142306e-06
-1.314716e-06
-0.007909754
0.007913911
6.281458e-07
-3.048305e-07
-3.165912e-06
-1.224742e-06
-0.007910818
0.007915009
4.702275e-07
-2.454862e-07
-3.19084e-06
-1.229607e-06
-0.007911944
0.007916155
4.618062e-07
-2.211391e-07
-3.222821e-06
-1.299956e-06
-0.007913055
0.007917247
5.692316e-07
-1.980164e-07
-3.26318e-06
-1.339007e-06
-0.007914137
0.007918307
6.288539e-07
-1.892078e-07
-3.27066e-06
-1.351356e-06
-0.007915192
0.007919361
6.468698e-07
-1.644175e-07
-3.300209e-06
-1.363931e-06
-0.00791625
0.00792042
6.619673e-07
-1.411864e-07
-3.327074e-06
-1.399191e-06
-0.007917303
0.007921452
7.184433e-07
-1.318546e-07
-3.336375e-06
-1.449724e-06
-0.007918318
0.007922455
7.946174e-07
-1.094745e-07
-3.372612e-06
-1.400613e-06
-0.007919325
0.007923511
7.093539e-07
-8.202005e-08
-3.412047e-06
-1.314478e-06
-0.007920412
0.007924635
5.662688e-07
-4.403004e-08
-3.430462e-06
-1.401289e-06
-0.007921542
0.007925725
7.017304e-07
-2.780782e-08
-3.455682e-06
-1.54052e-06
-0.007922592
0.00792671
9.346623e-07
-5.052075e-08
-3.461747e-06
-1.529579e-06
-0.007923526
0.007927659
9.084732e-07
-6.34352e-10
-3.511125e-06
-1.378711e-06
-0.007924545
0.007928766
6.594144e-07
3.004841e-08
-3.531923e-06
-1.323269e-06
-0.007925706
0.007929936
5.586658e-07
7.931875e-08
-3.544604e-06
-1.314021e-06
-0.007926903
0.007931169
5.381973e-07
7.770997e-08
-3.568177e-06
-1.243264e-06
-0.007928138
0.00793245
4.148413e-07
1.253228e-07
-3.608794e-06
-1.261948e-06
-0.007929462
0.007933774
4.391543e-07
1.422695e-07
-3.631241e-06
-1.345789e-06
-0.007930739
0.007935012
5.743546e-07
1.556454e-07
-3.657009e-06
-1.384839e-06
-0.007931964
0.007936212
6.410071e-07
1.593244e-07
-3.663451e-06
-1.39358e-06
-0.007933158
0.007937408
6.554361e-07
1.779914e-07
-3.689019e-06
-1.394827e-06
-0.007934357
0.007938611
6.568101e-07
1.962506e-07
-3.711729e-06
-1.402328e-06
-0.007935563
0.00793983
6.689836e-07
2.01657e-07
-3.734657e-06
-1.432274e-06
-0.007936779
0.00794101
7.23713e-07
2.168838e-07
-3.739814e-06
-1.479597e-06
-0.007937955
0.007942174
7.99355e-07
2.326763e-07
-3.771592e-06
-1.431664e-06
-0.007939123
0.007943396
7.271805e-07
2.271515e-07
-3.795677e-06
-1.412055e-06
-0.00794038
0.007944694
7.150827e-07
1.999571e-07
-3.817218e-06
-1.905016e-06
-0.007941661
0.007945814
1.576307e-06
-2.913279e-08
-3.79553e-06
-1.01018e-05
-0.007942601
0.007899132
7.30614e-06
5.006625e-05
-3.801598e-06
-1.136526e-05
-0.007857411
0.00782373
1.046691e-05
3.851408e-05
-3.934972e-06
5.872932e-06
-0.007814494
0.007870652
2.362421e-06
-5.998751e-05
-4.405547e-06
1.372356e-06
0.009264061
-2.022559e-05
0.0001722074
-1.159566e-06
9.515921e-07
-0.009176953
0.009154166
-1.671691e-06
2.594005e-05
-2.432583e-06
2.916683e-07
-0.009142157
0.009144072
-2.892403e-07
6.954335e-07
-2.612476e-06
-3.914921e-08
-0.009139243
0.009143441
-2.173077e-07
-1.241529e-06
-2.700127e-06
-2.257416e-07
-0.009139525
0.009144111
-1.462855e-07
-1.483379e-06
-2.730439e-06
-3.23684e-07
-0.009140407
0.009145102
-1.177106e-07
-1.483645e-06
-2.769605e-06
-1.523108e-08
-0.009141437
0.009146132
-4.29773e-07
-1.458583e-06
-2.791885e-06
2.401511e-07
-0.009142435
0.00914713
-6.874654e-07
-1.423105e-06
-2.824228e-06
4.379299e-08
-0.00914346
0.009148172
-5.473146e-07
-1.356377e-06
-2.852034e-06
-2.582736e-08
-0.009144511
0.009149233
-5.097776e-07
-1.312436e-06
-2.8732e-06
3.686932e-08
-0.00914559
0.009150321
-5.848709e-07
-1.267394e-06
-2.915112e-06
-1.698949e-07
-0.009146686
0.009151439
-4.215574e-07
-1.222085e-06
-2.939439e-06
-1.706937e-07
-0.009147822
0.00915258
-4.33722e-07
-1.182319e-06
-2.97064e-06
2.187997e-07
-0.009148953
0.009153686
-7.825055e-07
-1.163686e-06
-3.005333e-06
2.898612e-07
-0.009150031
0.009154774
-8.540848e-07
-1.129641e-06
-3.049177e-06
3.508688e-08
-0.00915113
0.009155888
-6.411034e-07
-1.093381e-06
-3.058441e-06
-1.888846e-07
-0.00915229
0.009157074
-4.537513e-07
-1.046792e-06
-3.094709e-06
-1.937882e-07
-0.009153475
0.009158276
-4.563062e-07
-1.015165e-06
-3.13594e-06
2.150432e-09
-0.00915468
0.009159459
-6.300796e-07
-9.85994e-07
-3.165278e-06
1.97174e-07
-0.009155844
0.009160611
-8.048616e-07
-9.743048e-07
-3.18474e-06
2.124587e-07
-0.009156998
0.009161791
-8.214238e-07
-9.574774e-07
-3.226149e-06
8.76772e-08
-0.009158173
0.009162964
-7.162931e-07
-9.107579e-07
-3.251208e-06
1.72875e-08
-0.009159367
0.009164177
-6.581215e-07
-8.878924e-07
-3.281181e-06
4.552456e-10
-0.009160585
0.009165403
-6.455926e-07
-8.618818e-07
-3.310559e-06
-1.568118e-08
-0.009161818
0.009166643
-6.342617e-07
-8.366584e-07
-3.338679e-06
-8.163416e-08
-0.009163077
0.009167897
-5.779831e-07
-7.904874e-07
-3.370373e-06
-1.719867e-07
-0.009164349
0.009169189
-5.023995e-07
-7.689268e-07
-3.397153e-06
-6.679408e-08
-0.009165633
0.009170466
-5.945937e-07
-7.390322e-07
-3.432376e-06
1.054798e-07
-0.009166921
0.009171743
-7.44816e-07
-7.336696e-07
-3.44916e-06
-5.741922e-08
-0.00916819
0.009173036
-6.065804e-07
-7.06129e-07
-3.475104e-06
-3.361568e-07
-0.009169495
0.009174376
-3.644323e-07
-6.694124e-07
-3.510864e-06
-3.029806e-07
-0.009170858
0.009175731
-3.922112e-07
-6.45214e-07
-3.532528e-06
-3.069376e-09
-0.009172211
0.00917707
-6.5311e-07
-6.343075e-07
-3.568311e-06
1.198791e-07
-0.009173512
0.009178382
-7.60473e-07
-6.186808e-07
-3.610708e-06
1.44345e-07
-0.009174834
0.009179695
-7.82744e-07
-5.967462e-07
-3.626589e-06
2.922415e-07
-0.009176135
0.009180861
-9.273895e-07
-4.406703e-07
-3.650368e-06
2.621917e-07
-0.009177293
0.00918216
-8.838685e-07
-5.658096e-07
-3.679907e-06
1.000316e-07
-0.009178624
0.009183504
-7.436561e-07
-5.408458e-07
-3.695756e-06
1.874226e-08
-0.009179988
0.00918489
-6.739158e-07
-5.24906e-07
-3.721615e-06
1.89688e-09
-0.00918137
0.009186279
-6.57442e-07
-5.063697e-07
-3.746295e-06
-1.723826e-09
-0.009182763
0.009187679
-6.545973e-07
-4.87444e-07
-3.771981e-06
-1.679375e-08
-0.009184306
0.009189228
-6.409429e-07
-4.685678e-07
-3.795929e-06
-8.185684e-08
-0.009185736
0.009190678
-5.836426e-07
-4.524152e-07
-3.823851e-06
-1.735331e-07
-0.009187206
0.009192144
-5.038116e-07
-4.137974e-07
-3.846707e-06
-8.949507e-08
-0.009188677
0.009193659
-5.7645e-07
-4.394099e-07
-3.875921e-06
-8.514019e-08
-0.00919022
0.009195247
-5.776746e-07
-4.749011e-07
-3.888776e-06
-1.142644e-06
-0.009191942
0.009197263
3.411705e-07
-6.042626e-07
-3.914992e-06
-4.417431e-06
-0.009194574
0.009145919
1.515768e-07
5.685715e-05
-3.937022e-06
-8.46784e-06
-0.009100352
0.009064758
3.918265e-06
4.426276e-05
-4.119412e-06
-6.736031e-06
-0.009057935
0.009116938
9.212334e-06
-5.764271e-05
-3.835968e-06
5.980743e-05
0.004974234
0.0001656604
-9.185299e-06
2.524659e-06
-0.004903308
0.004888737
1.485335e-05
-2.807117e-06
2.318853e-06
-0.004880815
0.004871832
1.071977e-05
-4.056151e-06
5.309518e-07
-0.004868913
0.004871682
1.241406e-06
-4.541537e-06
6.401889e-07
-0.004869197
0.004872169
1.176289e-06
-4.788723e-06
7.056621e-07
-0.004869774
0.004872777
1.194145e-06
-4.902993e-06
9.503945e-07
-0.004870374
0.004873344
1.109363e-06
-5.02906e-06
1.148568e-06
-0.004870868
0.004873796
1.059878e-06
-5.136413e-06
1.095878e-06
-0.00487133
0.004874281
1.1151e-06
-5.161799e-06
1.105605e-06
-0.004871872
0.004874849
1.14623e-06
-5.229429e-06
1.173091e-06
-0.004872417
0.004875373
1.154044e-06
-5.282747e-06
1.092833e-06
-0.004872967
0.00487598
1.223273e-06
-5.329808e-06
1.115228e-06
-0.004873597
0.004876606
1.26764e-06
-5.391416e-06
1.330494e-06
-0.004874183
0.004877123
1.176282e-06
-5.44657e-06
1.381594e-06
-0.004874653
0.004877584
1.186332e-06
-5.498295e-06
1.263809e-06
-0.004875117
0.004878119
1.269521e-06
-5.53473e-06
1.166366e-06
-0.004875704
0.004878742
1.364772e-06
-5.569526e-06
1.174654e-06
-0.004876365
0.0048794
1.393476e-06
-5.602548e-06
1.282987e-06
-0.004877011
0.004880005
1.383342e-06
-5.659861e-06
1.38907e-06
-0.004877561
0.004880528
1.353826e-06
-5.709863e-06
1.401494e-06
-0.004878089
0.004881031
1.389648e-06
-5.733167e-06
1.344938e-06
-0.004878614
0.004881587
1.454701e-06
-5.772177e-06
1.31746e-06
-0.004879175
0.004882176
1.498931e-06
-5.816864e-06
1.314286e-06
-0.004879775
0.004882783
1.529988e-06
-5.85218e-06
1.311721e-06
-0.004880389
0.004883404
1.562152e-06
-5.888889e-06
1.285251e-06
-0.004881021
0.004884062
1.603302e-06
-5.93003e-06
1.24074e-06
-0.004881684
0.004884746
1.661149e-06
-5.96389e-06
1.299235e-06
-0.004882373
0.004885418
1.659549e-06
-6.004076e-06
1.391603e-06
-0.004883006
0.004886035
1.644683e-06
-6.064873e-06
1.311199e-06
-0.004883639
0.004886674
1.728255e-06
-6.074792e-06
1.173297e-06
-0.004884332
0.004887427
1.811807e-06
-6.079728e-06
1.192379e-06
-0.004885114
0.004888203
1.835872e-06
-6.117088e-06
1.346158e-06
-0.00488586
0.004888915
1.775981e-06
-6.176545e-06
1.408265e-06
-0.004886512
0.004889532
1.79735e-06
-6.224869e-06
1.415294e-06
-0.004887143
0.004890161
1.790895e-06
-6.224733e-06
1.493157e-06
-0.004887741
0.004890756
1.776946e-06
-6.285308e-06
1.264646e-06
-0.004898926
0.004903023
9.403399e-07
-6.301954e-06
1.434166e-06
-0.00490082
0.004903677
2.034865e-06
-6.325517e-06
1.397283e-06
-0.004901496
0.00490437
2.090423e-06
-6.36132e-06
1.388585e-06
-0.004902204
0.004905102
2.102013e-06
-6.388624e-06
3.68074e-06
-0.004902925
0.004894103
1.156204e-05
-6.42081e-06
1.34665e-06
-0.004891769
0.004894852
2.020309e-06
-6.449795e-06
1.31662e-06
-0.004892523
0.004895632
2.057599e-06
-6.483256e-06
1.269279e-06
-0.004893325
0.004896456
2.110927e-06
-6.511259e-06
1.313248e-06
-0.004894141
0.004897279
2.095099e-06
-6.546204e-06
1.320648e-06
-0.004894974
0.004898116
2.113623e-06
-6.575465e-06
8.059515e-07
-0.004895925
0.004899359
2.317503e-06
-6.556813e-06
3.463639e-06
-0.004897721
0.004880805
1.983871e-05
-6.386233e-06
2.893642e-06
-0.004854169
0.004833566
2.406283e-05
-6.352663e-06
-1.280764e-05
-0.004830904
0.004885808
-3.554631e-05
-6.550212e-06
-0.00011362
0.00940559
-2.206184e-05
0.0001815293
6.139604e-06
-7.363131e-06
-0.009328859
0.009312435
7.36543e-06
1.887412e-05
-2.452743e-06
-9.121328e-07
-0.009299383
0.009304083
6.401697e-08
-1.83523e-06
-2.016837e-06
6.239523e-06
-0.009322531
0.009351782
-8.812995e-06
-2.478006e-05
-1.897593e-06
7.694199e-06
-0.009388735
0.009406109
-4.182038e-06
-1.901668e-05
-1.869469e-06
-1.198644e-06
-0.009401853
0.009407022
-6.51448e-07
-1.43153e-06
-1.886647e-06
-1.280116e-06
-0.009402836
0.009408043
-7.047776e-07
-1.312999e-06
-1.909044e-06
-1.351136e-06
-0.009403885
0.009409134
-7.46802e-07
-1.211743e-06
-1.938694e-06
-1.408931e-06
-0.00940499
0.009410237
-7.670048e-07
-1.101038e-06
-1.969612e-06
-1.456411e-06
-0.009406082
0.009411359
-7.856724e-07
-1.033071e-06
-2.00165e-06
-1.496683e-06
-0.00940721
0.009412483
-7.867453e-07
-9.550937e-07
-2.034875e-06
-1.529671e-06
-0.00940835
0.009413623
-7.669353e-07
-9.101783e-07
-2.066707e-06
-1.568776e-06
-0.0094095
0.009414796
-7.585234e-07
-8.632627e-07
-2.105421e-06
-1.572765e-06
-0.009410678
0.009415949
-7.480352e-07
-8.230316e-07
-2.127286e-06
-1.606187e-06
-0.009411837
0.009417136
-7.485936e-07
-7.794971e-07
-2.164159e-06
-1.626655e-06
-0.009413038
0.009418327
-7.173829e-07
-7.493597e-07
-2.195044e-06
-1.645416e-06
-0.009414234
0.009419527
-6.986332e-07
-7.245033e-07
-2.224947e-06
-1.662169e-06
-0.009415423
0.009420722
-6.804824e-07
-7.013688e-07
-2.255642e-06
-1.676598e-06
-0.009416638
0.009421954
-6.624258e-07
-6.91321e-07
-2.285627e-06
-1.691321e-06
-0.009417865
0.009423192
-6.581221e-07
-6.62763e-07
-2.315179e-06
-1.704445e-06
-0.009419118
0.009424435
-6.249621e-07
-6.43968e-07
-2.344119e-06
-1.717264e-06
-0.009420365
0.009425687
-6.047497e-07
-6.291765e-07
-2.371173e-06
-1.729314e-06
-0.009421621
0.009426965
-5.986926e-07
-6.161068e-07
-2.400141e-06
-1.74062e-06
-0.009422904
0.009428238
-5.642823e-07
-6.012067e-07
-2.427739e-06
-1.751444e-06
-0.00942418
0.009429519
-5.443199e-07
-5.885457e-07
-2.455086e-06
-1.761673e-06
-0.00942545
0.009430796
-5.246645e-07
-5.763758e-07
-2.482599e-06
-1.771386e-06
-0.009426746
0.009432096
-5.050318e-07
-5.656495e-07
-2.507908e-06
-1.780395e-06
-0.009428052
0.009433408
-4.863052e-07
-5.544169e-07
-2.534866e-06
-1.789024e-06
-0.009429367
0.009434728
-4.672158e-07
-5.442873e-07
-2.560769e-06
-1.79732e-06
-0.009430692
0.009436059
-4.484528e-07
-5.343087e-07
-2.586843e-06
-1.804626e-06
-0.00943201
0.009437393
-4.296687e-07
-5.360738e-07
-2.612198e-06
-1.801599e-06
-0.009433363
0.009438741
-4.115127e-07
-5.284518e-07
-2.637118e-06
-1.818862e-06
-0.009434723
0.009440109
-3.974111e-07
-5.060124e-07
-2.663501e-06
-1.814585e-06
-0.009436087
0.009441469
-3.807377e-07
-4.979358e-07
-2.688691e-06
-1.820459e-06
-0.009437452
0.009442864
-3.767294e-07
-5.016374e-07
-2.713079e-06
-1.837522e-06
-0.009438826
0.009444226
-3.455896e-07
-4.797218e-07
-2.737238e-06
-1.843372e-06
-0.009440219
0.009445641
-3.435915e-07
-4.733286e-07
-2.761335e-06
-1.849375e-06
-0.009441637
0.009447048
-3.115761e-07
-4.65748e-07
-2.783759e-06
-1.854884e-06
-0.009443048
0.00944848
-3.090393e-07
-4.598862e-07
-2.808596e-06
-1.860129e-06
-0.009444485
0.009449907
-2.780356e-07
-4.51667e-07
-2.832147e-06
-1.865267e-06
-0.009445915
0.009451343
-2.616506e-07
-4.451526e-07
-2.8555e-06
-1.869413e-06
-0.009447356
0.009452799
-2.454758e-07
-4.499362e-07
-2.87877e-06
-1.874155e-06
-0.009448806
0.009454256
-2.295617e-07
-4.439205e-07
-2.902228e-06
-1.878825e-06
-0.009450275
0.009455739
-2.105969e-07
-4.506167e-07
-2.923397e-06
-1.87289e-06
-0.009451774
0.009457251
-2.092844e-07
-4.494861e-07
-2.945611e-06
-1.877067e-06
-0.009453348
0.009458891
-1.94988e-07
-5.054626e-07
-2.965457e-06
-1.837636e-06
-0.009455087
0.00946082
-2.345291e-07
-6.769163e-07
-2.98377e-06
-5.37082e-06
-0.009457351
0.009447728
5.142067e-06
1.285177e-05
-3.000249e-06
-1.268821e-05
-0.009402702
0.009366944
1.398253e-05
3.752866e-05
-3.065126e-06
2.172731e-05
-0.00935609
0.009405135
-1.160603e-05
-5.582226e-05
-3.344131e-06
-0.000184353
-7.719723e-05
0.01085387
8.65963e-05
8.381146e-05
-2.131973e-05
-1.139343e-05
-0.01086821
0.01086925
1.012282e-05
2.154876e-05
8.932782e-07
1.07764e-06
-0.01085646
0.01085954
-1.20879e-06
-3.850127e-06
2.355488e-05
1.703698e-05
-0.0108764
0.01090371
-1.626802e-05
-5.163791e-05
1.916895e-06
1.906235e-06
-0.01089925
0.01090469
-1.836483e-06
-7.432492e-06
1.862205e-06
1.940995e-06
-0.01089976
0.01090546
-1.755565e-06
-7.743868e-06
1.719618e-06
1.944571e-06
-0.01090076
0.01090659
-1.695268e-06
-7.797713e-06
1.594554e-06
1.922299e-06
-0.01090197
0.01090787
-1.623774e-06
-7.787447e-06
1.520995e-06
1.828782e-06
-0.01090327
0.01090918
-1.477021e-06
-7.783598e-06
1.429965e-06
1.773724e-06
-0.01090457
0.01091051
-1.384131e-06
-7.760229e-06
1.359786e-06
1.735168e-06
-0.01090591
0.01091185
-1.305939e-06
-7.725974e-06
1.329376e-06
1.664283e-06
-0.01090724
0.01091316
-1.216776e-06
-7.695586e-06
1.26581e-06
1.634523e-06
-0.01090856
0.01091449
-1.162166e-06
-7.665073e-06
1.217182e-06
1.622132e-06
-0.01090993
0.01091588
-1.16472e-06
-7.622522e-06
1.167509e-06
1.588193e-06
-0.01091136
0.01091737
-1.151072e-06
-7.606645e-06
1.149471e-06
1.544557e-06
-0.01091281
0.01091877
-1.083634e-06
-7.571646e-06
1.135092e-06
1.492244e-06
-0.01091422
0.01092018
-1.021057e-06
-7.572222e-06
1.10668e-06
1.455643e-06
-0.01091558
0.01092154
-9.875258e-07
-7.537072e-06
1.078494e-06
1.458292e-06
-0.01091699
0.01092297
-1.005653e-06
-7.512309e-06
1.029662e-06
1.463591e-06
-0.01091846
0.01092448
-1.02801e-06
-7.488984e-06
1.029902e-06
1.445797e-06
-0.01091997
0.01092597
-1.028365e-06
-7.444408e-06
1.001501e-06
1.42971e-06
-0.01092148
0.01092747
-9.842445e-07
-7.43637e-06
9.833728e-07
1.402561e-06
-0.01092299
0.01092899
-9.646771e-07
-7.42924e-06
9.655614e-07
1.389114e-06
-0.01092448
0.0109305
-9.707749e-07
-7.409851e-06
9.489486e-07
1.376735e-06
-0.01092598
0.010932
-9.549475e-07
-7.391521e-06
9.340338e-07
1.353167e-06
-0.0109275
0.01093351
-9.404728e-07
-7.361965e-06
9.31536e-07
1.331027e-06
-0.01092899
0.01093502
-9.26742e-07
-7.367714e-06
8.906784e-07
1.322522e-06
-0.01093048
0.01093654
-9.387091e-07
-7.337569e-06
8.757049e-07
1.338006e-06
-0.01093202
0.0109381
-9.747914e-07
-7.320092e-06
8.865383e-07
1.32901e-06
-0.01093361
0.01093963
-9.279977e-07
-7.304096e-06
8.763281e-07
1.29681e-06
-0.01093512
0.01094112
-8.814974e-07
-7.288831e-06
8.625022e-07
1.290451e-06
-0.01093663
0.01094265
-8.950956e-07
-7.283534e-06
8.449957e-07
1.308604e-06
-0.01093814
0.0109442
-9.572661e-07
-7.253767e-06
8.071638e-07
1.291469e-06
-0.01093974
0.01094586
-9.847001e-07
-7.236216e-06
8.053211e-07
1.31047e-06
-0.0109414
0.01094748
-1.000042e-06
-7.196424e-06
7.92522e-07
1.316927e-06
-0.01094307
0.01094919
-1.027907e-06
-7.203518e-06
7.82022e-07
1.299782e-06
-0.01094477
0.01095089
-1.032112e-06
-7.166158e-06
7.747832e-07
1.270789e-06
-0.01094646
0.01095259
-1.012499e-06
-7.165376e-06
7.643357e-07
1.277593e-06
-0.01094814
0.01095425
-9.925531e-07
-7.163462e-06
7.541992e-07
1.272797e-06
-0.01094981
0.01095593
-9.966918e-07
-7.149742e-06
7.448142e-07
1.268606e-06
-0.0109515
0.0109576
-9.893747e-07
-7.124772e-06
7.350266e-07
1.263292e-06
-0.01095315
0.01095928
-9.939224e-07
-7.135029e-06
7.387336e-07
1.246407e-06
-0.01095483
0.01096097
-9.867297e-07
-7.134086e-06
7.434195e-07
1.243135e-06
-0.01095655
0.01096267
-9.682371e-07
-7.145888e-06
7.467385e-07
1.250648e-06
-0.01095827
0.01096448
-9.858753e-07
-7.215398e-06
8.157794e-07
1.268013e-06
-0.01096017
0.0109665
-1.002301e-06
-7.41658e-06
1.064707e-06
1.313666e-06
-0.01096239
0.01096903
-9.045385e-07
-8.120567e-06
-4.009293e-05
-1.434446e-05
-0.01096545
0.01097925
1.585246e-05
2.479274e-05
-4.64465e-05
-2.904964e-05
-0.01093068
0.01088706
3.287132e-05
8.625342e-05
5.318128e-05
2.167052e-05
-0.0108499
0.01080052
-1.640801e-05
-9.065425e-06
-9.066206e-05
-2.468529e-05
0.01061739
1.954426e-05
3.574385e-05
-2.701778e-05
-6.387211e-06
-0.0106439
0.01065656
3.214701e-06
1.753041e-05
1.005729e-06
9.78343e-07
-0.01064987
0.01065334
-3.833446e-07
-5.079167e-06
8.267843e-06
3.464711e-06
-0.01064765
0.0106526
-9.796823e-07
-1.57024e-05
6.797352e-06
1.964961e-06
-0.01064694
0.01065247
-1.042108e-06
-1.325088e-05
7.073236e-06
1.982661e-06
-0.01064732
0.01065313
-1.053296e-06
-1.381773e-05
7.115533e-06
2.035715e-06
-0.01064819
0.01065419
-1.161032e-06
-1.399451e-05
7.096404e-06
2.060223e-06
-0.01064933
0.01065541
-1.23973e-06
-1.399852e-05
7.093019e-06
1.983357e-06
-0.01065061
0.01065669
-1.180014e-06
-1.398114e-05
7.078489e-06
1.91459e-06
-0.01065186
0.01065795
-1.12874e-06
-1.395872e-05
7.04998e-06
1.872268e-06
-0.01065316
0.01065926
-1.103521e-06
-1.391637e-05
7.039549e-06
1.795711e-06
-0.01065445
0.01066053
-1.032257e-06
-1.387955e-05
7.011577e-06
1.780441e-06
-0.01065571
0.0106618
-1.040104e-06
-1.384328e-05
6.951901e-06
1.850799e-06
-0.01065702
0.01066319
-1.158258e-06
-1.380638e-05
6.925945e-06
1.853387e-06
-0.01065846
0.01066463
-1.184733e-06
-1.376428e-05
6.921103e-06
1.768011e-06
-0.01065987
0.01066601
-1.08309e-06
-1.375232e-05
6.915272e-06
1.682909e-06
-0.01066124
0.01066736
-9.816424e-07
-1.374172e-05
6.889807e-06
1.668226e-06
-0.01066258
0.0106687
-9.698704e-07
-1.370551e-05
6.848255e-06
1.7152e-06
-0.01066393
0.01067009
-1.044489e-06
-1.367972e-05
6.818758e-06
1.766144e-06
-0.01066537
0.01067156
-1.124538e-06
-1.36435e-05
6.79608e-06
1.768089e-06
-0.01066685
0.01067305
-1.135678e-06
-1.363469e-05
6.77607e-06
1.729777e-06
-0.01066834
0.01067454
-1.088645e-06
-1.361685e-05
6.756597e-06
1.696895e-06
-0.01066982
0.01067602
-1.048652e-06
-1.360012e-05
6.734907e-06
1.6773e-06
-0.01067129
0.01067749
-1.025584e-06
-1.35831e-05
6.713625e-06
1.662029e-06
-0.01067276
0.01067896
-1.006347e-06
-1.356663e-05
6.693524e-06
1.635964e-06
-0.01067423
0.01068043
-9.725652e-07
-1.355104e-05
6.672718e-06
1.61643e-06
-0.01067569
0.01068188
-9.445953e-07
-1.353533e-05
6.647859e-06
1.640361e-06
-0.01067716
0.01068337
-9.811273e-07
-1.351817e-05
6.62421e-06
1.67214e-06
-0.01067868
0.0106849
-1.025248e-06
-1.349041e-05
6.619552e-06
1.62462e-06
-0.01068021
0.01068641
-9.608324e-07
-1.348938e-05
6.605051e-06
1.554162e-06
-0.0106817
0.01068788
-8.633334e-07
-1.347776e-05
6.581959e-06
1.563349e-06
-0.01068313
0.01068934
-8.760439e-07
-1.347421e-05
6.541839e-06
1.644238e-06
-0.01068463
0.01069087
-9.864492e-07
-1.344472e-05
6.505194e-06
1.700845e-06
-0.0106862
0.01069249
-1.065578e-06
-1.34282e-05
6.49546e-06
1.728931e-06
-0.01068782
0.01069412
-1.10646e-06
-1.341368e-05
6.46161e-06
1.765489e-06
-0.0106895
0.01069581
-1.156681e-06
-1.33882e-05
6.456565e-06
1.756843e-06
-0.01069119
0.01069751
-1.144361e-06
-1.338875e-05
6.4429e-06
1.712251e-06
-0.01069288
0.01069918
-1.080326e-06
-1.337961e-05
6.439281e-06
1.679954e-06
-0.01069455
0.01070083
-1.032636e-06
-1.336983e-05
6.409815e-06
1.666942e-06
-0.01069618
0.01070248
-1.013947e-06
-1.335926e-05
6.392179e-06
1.660933e-06
-0.01069784
0.01070413
-1.002158e-06
-1.334854e-05
6.375152e-06
1.651548e-06
-0.0106995
0.01070581
-9.857796e-07
-1.335012e-05
6.371662e-06
1.628625e-06
-0.01070116
0.01070746
-9.498477e-07
-1.335236e-05
6.39218e-06
1.606368e-06
-0.01070281
0.01070914
-9.128965e-07
-1.341348e-05
6.435587e-06
1.609942e-06
-0.01070456
0.01071094
-8.983887e-07
-1.353346e-05
6.620789e-06
1.540766e-06
-0.01070645
0.01071298
-7.514537e-07
-1.394032e-05
7.303583e-06
1.172035e-06
-0.01070867
0.01071546
-9.615783e-08
-1.516607e-05
-6.886616e-05
-1.324032e-05
-0.01071159
0.01074978
8.688563e-06
3.523093e-05
-8.954644e-05
-2.939938e-05
-0.01070017
0.01064815
1.860768e-05
0.0001523558
1.24368e-05
-5.72788e-07
-0.01059284
0.01052644
3.237916e-06
5.129917e-05
-7.714946e-05
3.512952e-07
0.01074865
-2.010492e-05
2.685617e-05
-2.732863e-05
4.74544e-07
-0.01077439
0.01078869
-3.981055e-06
1.653661e-05
9.42008e-07
2.425932e-07
-0.01078202
0.01078643
5.892248e-08
-5.65143e-06
6.377028e-06
3.558803e-08
-0.01077883
0.01078441
9.836509e-07
-1.297896e-05
7.627111e-06
-8.784945e-08
-0.01077799
0.01078437
1.270023e-06
-1.519063e-05
7.94588e-06
-1.149636e-07
-0.01077845
0.01078517
1.337036e-06
-1.588659e-05
8.04723e-06
1.126234e-08
-0.01077943
0.01078627
1.213155e-06
-1.610829e-05
8.063414e-06
1.173831e-07
-0.01078059
0.01078745
1.097199e-06
-1.61422e-05
8.052388e-06
7.117063e-08
-0.01078181
0.0107887
1.124527e-06
-1.613855e-05
8.04278e-06
3.110641e-08
-0.01078309
0.01078998
1.143564e-06
-1.611692e-05
8.020132e-06
2.076684e-08
-0.01078438
0.0107913
1.137431e-06
-1.609799e-05
7.986436e-06
-4.45465e-08
-0.0107857
0.01079262
1.186446e-06
-1.604562e-05
7.96259e-06
-2.195682e-08
-0.01078704
0.01079398
1.153927e-06
-1.604225e-05
7.946659e-06
1.24115e-07
-0.01078838
0.01079532
1.004535e-06
-1.601485e-05
7.923577e-06
1.622825e-07
-0.01078972
0.01079668
9.589689e-07
-1.600233e-05
7.901727e-06
5.557177e-08
-0.01079107
0.01079803
1.052777e-06
-1.596745e-05
7.856334e-06
-5.27889e-08
-0.01079246
0.01079945
1.149182e-06
-1.594568e-05
7.843654e-06
-5.861201e-08
-0.01079388
0.01080086
1.149371e-06
-1.591126e-05
7.816658e-06
3.274219e-08
-0.0107953
0.01080229
1.057841e-06
-1.590067e-05
7.815448e-06
1.284118e-07
-0.01079674
0.01080372
9.634805e-07
-1.589119e-05
7.803446e-06
1.452255e-07
-0.01079817
0.01080514
9.439328e-07
-1.585861e-05
7.75693e-06
9.556903e-08
-0.0107996
0.0108066
9.862916e-07
-1.58392e-05
7.72287e-06
5.195041e-08
-0.01080105
0.01080807
1.025582e-06
-1.58205e-05
7.699916e-06
3.03241e-08
-0.01080253
0.01080955
1.043149e-06
-1.580193e-05
7.676981e-06
1.023428e-08
-0.01080402
0.01081105
1.059813e-06
-1.578357e-05
7.666565e-06
-2.617315e-08
-0.01080553
0.01081257
1.09136e-06
-1.576564e-05
7.620264e-06
-5.412506e-08
-0.01080706
0.01081411
1.116502e-06
-1.573591e-05
7.620295e-06
-1.079134e-08
-0.0108086
0.01081565
1.073646e-06
-1.572998e-05
7.597117e-06
3.989997e-08
-0.01081014
0.01081719
1.025951e-06
-1.571249e-05
7.576859e-06
-3.079702e-08
-0.01081169
0.01081875
1.089578e-06
-1.569619e-05
7.532908e-06
-1.413057e-07
-0.01081325
0.01082034
1.192869e-06
-1.566821e-05
7.510897e-06
-1.253628e-07
-0.01081486
0.01082194
1.178033e-06
-1.563983e-05
7.51048e-06
2.895517e-09
-0.01081646
0.01082353
1.056614e-06
-1.564662e-05
7.487376e-06
9.156453e-08
-0.01081805
0.01082513
9.721921e-07
-1.562979e-05
7.478511e-06
1.393868e-07
-0.01081963
0.01082671
9.258557e-07
-1.562628e-05
7.265955e-06
1.957655e-07
-0.01082124
0.01082835
8.309254e-07
-1.539505e-05
7.438822e-06
1.826674e-07
-0.01082287
0.01082996
8.847805e-07
-1.559731e-05
7.409208e-06
1.108679e-07
-0.01082446
0.01083157
9.519342e-07
-1.55839e-05
7.391132e-06
5.791288e-08
-0.01082611
0.01083321
1.000933e-06
-1.555849e-05
7.372584e-06
3.639954e-08
-0.01082776
0.01083487
1.018842e-06
-1.554501e-05
7.353091e-06
2.547173e-08
-0.01082942
0.01083655
1.03004e-06
-1.554353e-05
7.333479e-06
5.726461e-09
-0.01083106
0.0108382
1.051136e-06
-1.553013e-05
7.338527e-06
-3.577956e-08
-0.01083278
0.01083991
1.090596e-06
-1.552856e-05
7.320355e-06
-8.362679e-08
-0.01083451
0.0108417
1.140282e-06
-1.557546e-05
7.397619e-06
-1.147431e-07
-0.01083635
0.01084362
1.184101e-06
-1.573053e-05
7.586132e-06
-3.31327e-07
-0.01083839
0.01084587
1.422643e-06
-1.61625e-05
8.24791e-06
-1.211374e-06
-0.01084099
0.01084908
2.361519e-06
-1.748195e-05
-7.597825e-05
-3.059969e-06
-0.01084512
0.01088808
-3.098763e-06
3.918179e-05
-0.0001013534
-4.705098e-06
-0.01083081
0.0107703
-9.984772e-06
0.0001765475
8.692116e-07
-3.528328e-06
-0.01070711
0.0106358
3.279246e-06
7.069297e-05
-0.0001399736
2.516733e-05
0.01088232
-8.774017e-05
5.617301e-05
-2.874278e-05
7.139106e-06
-0.01091799
0.01092587
-1.492906e-05
2.865737e-05
-3.112166e-05
1.140166e-05
-0.0109132
0.0108913
-1.459624e-05
5.62234e-05
5.170462e-06
-2.078347e-06
-0.01088299
0.01088873
2.409027e-06
-1.123795e-05
5.945545e-06
-2.394377e-06
-0.01088204
0.01088875
2.586479e-06
-1.284133e-05
6.192327e-06
-2.449276e-06
-0.01088265
0.01088966
2.543226e-06
-1.329806e-05
6.331802e-06
-2.341269e-06
-0.01088375
0.01089082
2.389565e-06
-1.345142e-05
6.433423e-06
-2.226134e-06
-0.01088491
0.01089199
2.21201e-06
-1.350306e-05
6.467057e-06
-2.213636e-06
-0.0108861
0.01089323
2.137551e-06
-1.352215e-05
6.492363e-06
-2.197251e-06
-0.01088737
0.01089453
2.057114e-06
-1.35197e-05
6.523748e-06
-2.163998e-06
-0.01088869
0.01089586
1.979125e-06
-1.350691e-05
6.505681e-06
-2.175085e-06
-0.01089003
0.01089723
1.950289e-06
-1.348033e-05
6.508881e-06
-2.134457e-06
-0.01089144
0.01089865
1.896288e-06
-1.347793e-05
6.539876e-06
-2.011452e-06
-0.01089282
0.01089996
1.792653e-06
-1.346618e-05
6.537523e-06
-1.966086e-06
-0.01089409
0.01090125
1.743106e-06
-1.347595e-05
6.51958e-06
-2.01924e-06
-0.01089541
0.01090259
1.746772e-06
-1.343303e-05
6.475808e-06
-2.073883e-06
-0.01089681
0.01090406
1.756169e-06
-1.341369e-05
6.457284e-06
-2.066631e-06
-0.01089829
0.01090555
1.734917e-06
-1.338317e-05
6.454856e-06
-1.994168e-06
-0.01089977
0.01090699
1.694313e-06
-1.337922e-05
6.453473e-06
-1.923258e-06
-0.01090118
0.0109084
1.633789e-06
-1.337632e-05
6.433163e-06
-1.904636e-06
-0.01090257
0.01090978
1.610504e-06
-1.33466e-05
6.393925e-06
-1.930512e-06
-0.01090395
0.01091119
1.636271e-06
-1.333879e-05
6.367462e-06
-1.954297e-06
-0.01090541
0.01091266
1.641199e-06
-1.330703e-05
6.329919e-06
-1.964247e-06
-0.01090688
0.01091416
1.647666e-06
-1.328845e-05
6.304576e-06
-1.972633e-06
-0.01090838
0.01091569
1.632122e-06
-1.326987e-05
6.288613e-06
-1.99299e-06
-0.01090994
0.01091725
1.64106e-06
-1.325105e-05
6.2479e-06
-2.008321e-06
-0.01091151
0.01091884
1.663213e-06
-1.323174e-05
6.236489e-06
-1.978046e-06
-0.01091311
0.01092043
1.638843e-06
-1.321493e-05
6.213703e-06
-1.94251e-06
-0.01091467
0.01092198
1.61575e-06
-1.319771e-05
6.171613e-06
-1.987544e-06
-0.01091623
0.01092357
1.651906e-06
-1.317882e-05
6.13719e-06
-2.059859e-06
-0.01091787
0.01092525
1.700262e-06
-1.31586e-05
6.087827e-06
-2.049665e-06
-0.01091958
0.01092697
1.703492e-06
-1.312898e-05
6.092549e-06
-1.963895e-06
-0.01092127
0.01092863
1.6359e-06
-1.312686e-05
6.081462e-06
-1.907186e-06
-0.01092289
0.0109302
1.627842e-06
-1.311187e-05
6.06978e-06
-1.878285e-06