/*--------------------------------*- C++ -*----------------------------------*\
| =========                 |                                                 |
| \\      /  F ield         | OpenFOAM: The Open Source CFD Toolbox           |
|  \\    /   O peration     | Version:  v1912                                 |
|   \\  /    A nd           | Website:  www.openfoam.com                      |
|    \\/     M anipulation  |                                                 |
\*---------------------------------------------------------------------------*/
FoamFile
{
    version     2.0;
    format      ascii;
    class       volVectorField;
    location    "204";
    object      U;
}
// * * * * * * * * * * * * * * * * * * * * * * * * * * * * * * * * * * * * * //

dimensions      [0 1 -1 0 0 0 0];


internalField   nonuniform List<vector> 
44200
(
(0.05024069 -5.730027e-07 3.170279e-06)
(0.05024879 7.425964e-07 1.136042e-05)
(0.05025724 1.758575e-06 1.491167e-05)
(0.05026336 2.142286e-06 1.713973e-05)
(0.05026919 2.364285e-06 1.843594e-05)
(0.05027486 2.500774e-06 1.925788e-05)
(0.05028056 2.600245e-06 1.983688e-05)
(0.05028636 2.654877e-06 2.022342e-05)
(0.05029221 2.6862e-06 2.046064e-05)
(0.05029808 2.703503e-06 2.064602e-05)
(0.05030404 2.73021e-06 2.080239e-05)
(0.05031006 2.743125e-06 2.089872e-05)
(0.05031611 2.768007e-06 2.100201e-05)
(0.05032225 2.797343e-06 2.112192e-05)
(0.0503285 2.822919e-06 2.118623e-05)
(0.05033476 2.835428e-06 2.122273e-05)
(0.05034106 2.859169e-06 2.126519e-05)
(0.0503474 2.890366e-06 2.1338e-05)
(0.05035381 2.924867e-06 2.14074e-05)
(0.05036031 2.961017e-06 2.147627e-05)
(0.05036686 2.992937e-06 2.151912e-05)
(0.05037345 3.015758e-06 2.156903e-05)
(0.05038009 3.041294e-06 2.160421e-05)
(0.05038678 3.073069e-06 2.165584e-05)
(0.05039354 3.103392e-06 2.170284e-05)
(0.05040034 3.134642e-06 2.174645e-05)
(0.05040718 3.164987e-06 2.18027e-05)
(0.0504141 3.198694e-06 2.186099e-05)
(0.05042108 3.224356e-06 2.191122e-05)
(0.05042811 3.251084e-06 2.194576e-05)
(0.05043517 3.27525e-06 2.198078e-05)
(0.05044227 3.311691e-06 2.204729e-05)
(0.05044945 3.343909e-06 2.211189e-05)
(0.05045671 3.377606e-06 2.21659e-05)
(0.05046401 3.402412e-06 2.221642e-05)
(0.05047137 3.431449e-06 2.226541e-05)
(0.05047881 3.447498e-06 2.229709e-05)
(0.05048627 3.459245e-06 2.233239e-05)
(0.05049379 3.478271e-06 2.236562e-05)
(0.05050137 3.502736e-06 2.240979e-05)
(0.05050902 3.525017e-06 2.245121e-05)
(0.05051672 3.54523e-06 2.249021e-05)
(0.05052448 3.560961e-06 2.252288e-05)
(0.05053229 3.570314e-06 2.256572e-05)
(0.05054019 3.57058e-06 2.260076e-05)
(0.05054818 3.540885e-06 2.260755e-05)
(0.05055624 3.453148e-06 2.249774e-05)
(0.05056433 3.325139e-06 2.220505e-05)
(0.05057281 3.102336e-06 2.243788e-05)
(0.05058059 3.096606e-06 2.439277e-05)
(0.05024098 -5.392551e-08 3.769488e-06)
(0.05024974 -1.14936e-06 1.04203e-05)
(0.0502575 -1.701922e-06 1.447947e-05)
(0.0502638 -2.060583e-06 1.680182e-05)
(0.05026976 -2.484897e-06 1.80452e-05)
(0.0502755 -2.904052e-06 1.877011e-05)
(0.05028123 -3.254153e-06 1.921407e-05)
(0.05028701 -3.562287e-06 1.950764e-05)
(0.05029285 -3.871223e-06 1.966863e-05)
(0.05029873 -4.140566e-06 1.979163e-05)
(0.05030469 -4.35803e-06 1.98814e-05)
(0.05031071 -4.556494e-06 1.994417e-05)
(0.05031677 -4.707835e-06 2.000554e-05)
(0.05032294 -4.793712e-06 2.007908e-05)
(0.05032917 -4.868551e-06 2.010547e-05)
(0.05033545 -4.972284e-06 2.013951e-05)
(0.05034177 -5.064219e-06 2.017258e-05)
(0.05034816 -5.115331e-06 2.020971e-05)
(0.05035461 -5.135278e-06 2.027113e-05)
(0.05036112 -5.127696e-06 2.031436e-05)
(0.0503677 -5.136745e-06 2.034646e-05)
(0.05037433 -5.15212e-06 2.038681e-05)
(0.05038101 -5.168326e-06 2.042031e-05)
(0.05038774 -5.169728e-06 2.046477e-05)
(0.05039453 -5.168308e-06 2.050756e-05)
(0.05040138 -5.167925e-06 2.054667e-05)
(0.05040827 -5.159398e-06 2.058858e-05)
(0.05041523 -5.135278e-06 2.064616e-05)
(0.05042225 -5.106119e-06 2.06903e-05)
(0.05042932 -5.092171e-06 2.072224e-05)
(0.05043644 -5.092995e-06 2.075763e-05)
(0.0504436 -5.065326e-06 2.080564e-05)
(0.05045082 -5.015503e-06 2.086426e-05)
(0.05045812 -4.968526e-06 2.091073e-05)
(0.05046547 -4.920738e-06 2.095534e-05)
(0.05047287 -4.875371e-06 2.09997e-05)
(0.05048034 -4.850671e-06 2.102889e-05)
(0.05048785 -4.837232e-06 2.106381e-05)
(0.05049542 -4.821386e-06 2.109687e-05)
(0.05050304 -4.795925e-06 2.113855e-05)
(0.05051072 -4.765321e-06 2.117759e-05)
(0.05051846 -4.740539e-06 2.121784e-05)
(0.05052625 -4.731492e-06 2.125232e-05)
(0.0505341 -4.721872e-06 2.128733e-05)
(0.05054201 -4.717727e-06 2.133445e-05)
(0.05054999 -4.753027e-06 2.134722e-05)
(0.050558 -4.926959e-06 2.131846e-05)
(0.05056615 -5.330726e-06 2.116731e-05)
(0.05057499 -5.790608e-06 2.157587e-05)
(0.05058322 -5.964912e-06 2.380783e-05)
(0.05024025 7.86928e-07 -1.486052e-07)
(0.0502462 -7.521988e-07 1.069825e-05)
(0.05025503 -3.273384e-06 1.598517e-05)
(0.05026147 -5.389353e-06 1.800906e-05)
(0.05026739 -6.916051e-06 1.89431e-05)
(0.05027302 -8.024341e-06 1.944491e-05)
(0.0502786 -8.784377e-06 1.968063e-05)
(0.05028411 -9.322527e-06 1.983382e-05)
(0.05028967 -9.74861e-06 2.001089e-05)
(0.05029528 -1.008236e-05 2.01515e-05)
(0.05030092 -1.032613e-05 2.023721e-05)
(0.0503066 -1.05375e-05 2.036576e-05)
(0.05031235 -1.069507e-05 2.044531e-05)
(0.05031815 -1.07778e-05 2.045554e-05)
(0.05032395 -1.085704e-05 2.05006e-05)
(0.05032981 -1.09519e-05 2.061467e-05)
(0.05033572 -1.103897e-05 2.071517e-05)
(0.05034172 -1.110284e-05 2.077529e-05)
(0.05034775 -1.112725e-05 2.080765e-05)
(0.0503538 -1.113565e-05 2.082554e-05)
(0.05035991 -1.114304e-05 2.086142e-05)
(0.05036606 -1.117155e-05 2.094931e-05)
(0.0503723 -1.11955e-05 2.10226e-05)
(0.05037857 -1.120714e-05 2.107569e-05)
(0.0503849 -1.121656e-05 2.113332e-05)
(0.05039128 -1.122881e-05 2.12025e-05)
(0.05039774 -1.123736e-05 2.12618e-05)
(0.05040425 -1.122815e-05 2.130137e-05)
(0.05041082 -1.121117e-05 2.133283e-05)
(0.05041743 -1.12085e-05 2.139845e-05)
(0.05042413 -1.12237e-05 2.149288e-05)
(0.05043092 -1.121499e-05 2.152856e-05)
(0.05043776 -1.117842e-05 2.153949e-05)
(0.05044466 -1.11338e-05 2.156353e-05)
(0.05045164 -1.110063e-05 2.160224e-05)
(0.05045868 -1.105406e-05 2.162204e-05)
(0.05046574 -1.101994e-05 2.167006e-05)
(0.05047291 -1.101085e-05 2.173557e-05)
(0.05048021 -1.099601e-05 2.179899e-05)
(0.05048759 -1.0974e-05 2.184107e-05)
(0.05049502 -1.095897e-05 2.187631e-05)
(0.05050272 -1.094238e-05 2.19168e-05)
(0.05051035 -1.093323e-05 2.197747e-05)
(0.05051807 -1.09253e-05 2.20298e-05)
(0.05052585 -1.091447e-05 2.207305e-05)
(0.05053368 -1.093033e-05 2.214003e-05)
(0.05054147 -1.104237e-05 2.238411e-05)
(0.05054922 -1.138515e-05 2.296573e-05)
(0.05055762 -1.178021e-05 2.39435e-05)
(0.05056531 -1.213751e-05 2.641848e-05)
(0.05024189 5.759989e-06 6.809945e-06)
(0.05025605 7.93042e-06 9.611073e-06)
(0.05026198 9.260929e-06 1.240893e-05)
(0.05026819 9.072138e-06 1.447925e-05)
(0.05027391 8.731149e-06 1.611719e-05)
(0.05027964 8.425578e-06 1.746349e-05)
(0.05028544 8.186679e-06 1.852397e-05)
(0.05029129 8.031008e-06 1.936307e-05)
(0.05029722 7.944378e-06 2.00165e-05)
(0.0503032 7.915458e-06 2.052917e-05)
(0.05030925 7.92513e-06 2.093922e-05)
(0.05031536 7.964853e-06 2.125729e-05)
(0.05032153 8.026905e-06 2.151775e-05)
(0.05032776 8.101036e-06 2.172655e-05)
(0.05033406 8.186946e-06 2.188746e-05)
(0.05034041 8.282655e-06 2.201222e-05)
(0.05034682 8.384996e-06 2.210865e-05)
(0.05035327 8.489534e-06 2.219181e-05)
(0.05035979 8.593305e-06 2.225859e-05)
(0.05036636 8.698869e-06 2.231024e-05)
(0.05037299 8.801678e-06 2.234936e-05)
(0.05037968 8.905793e-06 2.237161e-05)
(0.05038641 9.013651e-06 2.239346e-05)
(0.0503932 9.11699e-06 2.240763e-05)
(0.05040003 9.220336e-06 2.24169e-05)
(0.05040693 9.321803e-06 2.242327e-05)
(0.05041387 9.419556e-06 2.242005e-05)
(0.05042086 9.516714e-06 2.242013e-05)
(0.05042791 9.612365e-06 2.241395e-05)
(0.05043501 9.70663e-06 2.240727e-05)
(0.05044216 9.798958e-06 2.239703e-05)
(0.05044936 9.888887e-06 2.238561e-05)
(0.0504566 9.977224e-06 2.237977e-05)
(0.05046391 1.006155e-05 2.236998e-05)
(0.05047127 1.014182e-05 2.235832e-05)
(0.05047867 1.022362e-05 2.234325e-05)
(0.05048614 1.030302e-05 2.232556e-05)
(0.05049365 1.038337e-05 2.230028e-05)
(0.05050121 1.04652e-05 2.228312e-05)
(0.05050882 1.054297e-05 2.226295e-05)
(0.05051648 1.062065e-05 2.224207e-05)
(0.0505242 1.069689e-05 2.222064e-05)
(0.05053197 1.077207e-05 2.219896e-05)
(0.0505398 1.084469e-05 2.216843e-05)
(0.05054768 1.09181e-05 2.213778e-05)
(0.05055563 1.09938e-05 2.209364e-05)
(0.05056364 1.106831e-05 2.203267e-05)
(0.05057176 1.10877e-05 2.192644e-05)
(0.05058057 1.10744e-05 2.184257e-05)
(0.05059 1.085777e-05 2.158556e-05)
(0.05024081 1.590246e-06 2.967128e-06)
(0.05024779 4.323224e-06 8.097174e-06)
(0.05025373 5.030518e-06 8.663204e-06)
(0.05025962 6.218649e-06 8.751462e-06)
(0.0502655 7.119155e-06 8.75983e-06)
(0.05027138 7.977656e-06 8.835935e-06)
(0.0502773 8.71377e-06 8.958196e-06)
(0.05028329 9.3563e-06 9.096352e-06)
(0.05028933 9.916753e-06 9.226951e-06)
(0.05029543 1.040004e-05 9.350462e-06)
(0.05030158 1.081626e-05 9.48444e-06)
(0.05030779 1.117303e-05 9.606433e-06)
(0.05031406 1.147796e-05 9.739591e-06)
(0.0503204 1.173357e-05 9.882001e-06)
(0.0503268 1.1952e-05 1.00096e-05)
(0.05033326 1.214407e-05 1.012528e-05)
(0.05033977 1.230728e-05 1.023935e-05)
(0.05034633 1.244591e-05 1.036645e-05)
(0.05035296 1.255978e-05 1.049978e-05)
(0.05035964 1.265257e-05 1.062896e-05)
(0.05036639 1.273469e-05 1.075521e-05)
(0.05037319 1.280294e-05 1.087059e-05)
(0.05038003 1.286268e-05 1.098796e-05)
(0.05038693 1.291295e-05 1.110794e-05)
(0.05039388 1.295445e-05 1.122576e-05)
(0.05040088 1.299031e-05 1.134272e-05)
(0.05040793 1.301722e-05 1.145852e-05)
(0.05041504 1.303742e-05 1.158133e-05)
(0.05042219 1.305265e-05 1.169622e-05)
(0.0504294 1.30677e-05 1.180861e-05)
(0.05043664 1.308199e-05 1.191859e-05)
(0.05044393 1.308809e-05 1.203388e-05)
(0.05045127 1.308936e-05 1.215624e-05)
(0.05045866 1.308728e-05 1.227603e-05)
(0.0504661 1.3085e-05 1.239207e-05)
(0.05047358 1.307806e-05 1.250439e-05)
(0.05048112 1.307335e-05 1.261009e-05)
(0.05048869 1.306632e-05 1.270653e-05)
(0.05049629 1.306018e-05 1.28102e-05)
(0.05050395 1.305356e-05 1.291393e-05)
(0.05051164 1.304503e-05 1.301566e-05)
(0.05051938 1.303622e-05 1.311589e-05)
(0.05052716 1.302687e-05 1.321354e-05)
(0.05053498 1.301235e-05 1.330636e-05)
(0.05054285 1.299376e-05 1.339774e-05)
(0.05055077 1.297133e-05 1.346392e-05)
(0.0505587 1.294407e-05 1.349045e-05)
(0.05056638 1.288985e-05 1.348615e-05)
(0.05057341 1.267156e-05 1.360347e-05)
(0.05058083 1.222847e-05 1.39513e-05)
(0.05024056 3.848757e-07 1.517672e-06)
(0.05024449 1.069878e-06 6.618656e-06)
(0.05025049 1.372898e-06 8.748936e-06)
(0.05025633 1.638991e-06 1.019705e-05)
(0.05026225 1.797274e-06 1.125194e-05)
(0.05026807 1.916089e-06 1.208145e-05)
(0.05027392 1.996018e-06 1.275742e-05)
(0.05027984 2.048029e-06 1.329924e-05)
(0.05028582 2.077655e-06 1.372359e-05)
(0.05029185 2.09274e-06 1.407131e-05)
(0.05029795 2.102005e-06 1.436451e-05)
(0.05030412 2.106069e-06 1.460178e-05)
(0.05031035 2.11112e-06 1.481058e-05)
(0.05031665 2.117793e-06 1.49996e-05)
(0.05032304 2.125062e-06 1.514656e-05)
(0.05032948 2.130074e-06 1.525998e-05)
(0.05033598 2.137725e-06 1.536173e-05)
(0.05034253 2.148714e-06 1.546509e-05)
(0.05034915 2.164419e-06 1.556377e-05)
(0.05035584 2.182275e-06 1.565252e-05)
(0.05036259 2.200593e-06 1.572324e-05)
(0.0503694 2.217165e-06 1.578538e-05)
(0.05037626 2.235022e-06 1.584134e-05)
(0.05038317 2.255253e-06 1.589892e-05)
(0.05039014 2.276058e-06 1.595278e-05)
(0.05039717 2.29782e-06 1.600319e-05)
(0.05040424 2.319617e-06 1.605489e-05)
(0.05041137 2.34335e-06 1.610998e-05)
(0.05041856 2.366085e-06 1.615904e-05)
(0.0504258 2.389312e-06 1.619898e-05)
(0.05043309 2.411505e-06 1.623654e-05)
(0.05044041 2.43605e-06 1.628699e-05)
(0.0504478 2.462742e-06 1.634233e-05)
(0.05045524 2.489645e-06 1.639258e-05)
(0.05046273 2.514798e-06 1.64364e-05)
(0.05047027 2.539086e-06 1.647717e-05)
(0.05047786 2.560041e-06 1.650961e-05)
(0.05048549 2.577797e-06 1.65377e-05)
(0.05049316 2.59781e-06 1.656924e-05)
(0.05050088 2.619424e-06 1.660393e-05)
(0.05050865 2.641091e-06 1.663899e-05)
(0.05051646 2.662289e-06 1.66725e-05)
(0.05052432 2.679781e-06 1.670385e-05)
(0.05053222 2.691978e-06 1.673523e-05)
(0.05054017 2.696998e-06 1.676415e-05)
(0.05054817 2.684463e-06 1.677268e-05)
(0.05055618 2.638915e-06 1.674936e-05)
(0.05056419 2.528934e-06 1.682764e-05)
(0.05057214 2.381878e-06 1.703787e-05)
(0.05057954 2.252624e-06 1.756581e-05)
(0.05024055 -1.12207e-07 1.534763e-06)
(0.05024435 -5.332355e-07 6.258832e-06)
(0.05025012 -7.721985e-07 8.481651e-06)
(0.0502559 -8.640222e-07 1.018976e-05)
(0.05026184 -9.414821e-07 1.141071e-05)
(0.05026772 -1.052278e-06 1.231727e-05)
(0.0502736 -1.185747e-06 1.299772e-05)
(0.05027952 -1.337792e-06 1.351584e-05)
(0.05028549 -1.50485e-06 1.390875e-05)
(0.05029152 -1.669251e-06 1.421656e-05)
(0.05029761 -1.820993e-06 1.446655e-05)
(0.05030377 -1.961098e-06 1.466873e-05)
(0.05030999 -2.081465e-06 1.484009e-05)
(0.05031628 -2.179147e-06 1.499193e-05)
(0.05032264 -2.26636e-06 1.511201e-05)
(0.05032907 -2.350456e-06 1.521334e-05)
(0.05033556 -2.422462e-06 1.530125e-05)
(0.05034211 -2.477622e-06 1.538686e-05)
(0.05034872 -2.516551e-06 1.546916e-05)
(0.0503554 -2.544372e-06 1.554145e-05)
(0.05036213 -2.570551e-06 1.560659e-05)
(0.05036893 -2.593946e-06 1.566489e-05)
(0.05037579 -2.613103e-06 1.571891e-05)
(0.0503827 -2.625362e-06 1.577263e-05)
(0.05038966 -2.633809e-06 1.582508e-05)
(0.05039669 -2.639371e-06 1.587522e-05)
(0.05040376 -2.641017e-06 1.592489e-05)
(0.05041089 -2.636497e-06 1.597701e-05)
(0.05041807 -2.630379e-06 1.602674e-05)
(0.05042531 -2.625973e-06 1.607043e-05)
(0.05043259 -2.622325e-06 1.611379e-05)
(0.05043993 -2.610216e-06 1.616084e-05)
(0.05044731 -2.591477e-06 1.621342e-05)
(0.05045475 -2.571961e-06 1.626358e-05)
(0.05046223 -2.553238e-06 1.630773e-05)
(0.05046977 -2.535214e-06 1.635026e-05)
(0.05047735 -2.522688e-06 1.638935e-05)
(0.05048498 -2.516294e-06 1.642603e-05)
(0.05049266 -2.506827e-06 1.646285e-05)
(0.05050038 -2.494869e-06 1.650118e-05)
(0.05050815 -2.481096e-06 1.654262e-05)
(0.05051596 -2.463477e-06 1.658419e-05)
(0.05052381 -2.455218e-06 1.662611e-05)
(0.0505317 -2.451919e-06 1.666626e-05)
(0.05053963 -2.456062e-06 1.670754e-05)
(0.0505476 -2.481057e-06 1.674477e-05)
(0.05055557 -2.543447e-06 1.678864e-05)
(0.05056356 -2.637137e-06 1.700091e-05)
(0.05057152 -2.710191e-06 1.735263e-05)
(0.05057896 -2.719981e-06 1.789209e-05)
(0.05024071 -9.972642e-07 1.594276e-06)
(0.05024548 -3.029956e-06 6.497781e-06)
(0.05025131 -3.420669e-06 8.823573e-06)
(0.05025724 -4.126954e-06 1.042946e-05)
(0.05026326 -4.766343e-06 1.144581e-05)
(0.05026919 -5.418631e-06 1.212717e-05)
(0.05027512 -6.003071e-06 1.258176e-05)
(0.05028107 -6.523089e-06 1.290725e-05)
(0.05028705 -6.976393e-06 1.316301e-05)
(0.05029309 -7.366392e-06 1.33659e-05)
(0.05029919 -7.700327e-06 1.352833e-05)
(0.05030536 -7.980956e-06 1.366944e-05)
(0.05031159 -8.216534e-06 1.378838e-05)
(0.05031789 -8.410645e-06 1.388032e-05)
(0.05032424 -8.574741e-06 1.396278e-05)
(0.05033067 -8.715751e-06 1.405479e-05)
(0.05033716 -8.831194e-06 1.413735e-05)
(0.05034371 -8.924749e-06 1.421286e-05)
(0.05035034 -8.996062e-06 1.427288e-05)
(0.05035701 -9.052362e-06 1.43241e-05)
(0.05036375 -9.099962e-06 1.438198e-05)
(0.05037054 -9.138729e-06 1.44446e-05)
(0.0503774 -9.166227e-06 1.450458e-05)
(0.05038432 -9.186499e-06 1.455923e-05)
(0.05039129 -9.200265e-06 1.461384e-05)
(0.05039831 -9.208742e-06 1.46692e-05)
(0.05040539 -9.212548e-06 1.47249e-05)
(0.05041253 -9.210324e-06 1.477411e-05)
(0.05041971 -9.204298e-06 1.482313e-05)
(0.05042695 -9.197967e-06 1.487644e-05)
(0.05043424 -9.189266e-06 1.493686e-05)
(0.05044159 -9.173498e-06 1.498723e-05)
(0.05044898 -9.15384e-06 1.503139e-05)
(0.05045642 -9.131625e-06 1.507632e-05)
(0.05046391 -9.110497e-06 1.512221e-05)
(0.05047145 -9.088493e-06 1.51627e-05)
(0.050479 -9.030007e-06 1.520506e-05)
(0.05048663 -9.02427e-06 1.526499e-05)
(0.05049431 -9.016018e-06 1.531524e-05)
(0.05050205 -9.0222e-06 1.536654e-05)
(0.05050988 -9.009754e-06 1.539033e-05)
(0.05051768 -8.972615e-06 1.543762e-05)
(0.05052553 -8.951916e-06 1.549385e-05)
(0.05053343 -8.937383e-06 1.554955e-05)
(0.05054136 -8.927734e-06 1.560469e-05)
(0.05054931 -8.923867e-06 1.567669e-05)
(0.05055726 -8.917387e-06 1.580646e-05)
(0.05056524 -8.877188e-06 1.608737e-05)
(0.05057338 -8.752887e-06 1.642131e-05)
(0.05058094 -8.423342e-06 1.695455e-05)
(0.05024122 -2.118443e-06 2.91596e-06)
(0.05025102 -4.672081e-06 5.428516e-06)
(0.05025627 -4.112102e-06 6.281734e-06)
(0.05026249 -3.707708e-06 5.635506e-06)
(0.05026859 -3.26475e-06 4.727531e-06)
(0.05027462 -2.978726e-06 3.876898e-06)
(0.05028065 -2.785313e-06 3.156958e-06)
(0.05028668 -2.660508e-06 2.605153e-06)
(0.05029275 -2.583904e-06 2.194568e-06)
(0.05029886 -2.548022e-06 1.900573e-06)
(0.05030501 -2.540347e-06 1.713182e-06)
(0.05031123 -2.554178e-06 1.594908e-06)
(0.0503175 -2.585647e-06 1.544569e-06)
(0.05032383 -2.631074e-06 1.540669e-06)
(0.05033021 -2.684086e-06 1.575199e-06)
(0.05033666 -2.74042e-06 1.655441e-06)
(0.05034316 -2.805852e-06 1.755289e-06)
(0.05034973 -2.873016e-06 1.878992e-06)
(0.05035636 -2.945061e-06 2.010407e-06)
(0.05036303 -3.019997e-06 2.148875e-06)
(0.05036976 -3.091784e-06 2.309192e-06)
(0.05037655 -3.165176e-06 2.483528e-06)
(0.05038341 -3.239397e-06 2.654688e-06)
(0.05039031 -3.313246e-06 2.831497e-06)
(0.05039726 -3.386877e-06 3.011394e-06)
(0.05040427 -3.459137e-06 3.194213e-06)
(0.05041132 -3.533895e-06 3.382347e-06)
(0.05041844 -3.61047e-06 3.570988e-06)
(0.05042559 -3.682916e-06 3.757727e-06)
(0.0504328 -3.75345e-06 3.947271e-06)
(0.05044006 -3.824419e-06 4.143408e-06)
(0.05044737 -3.898189e-06 4.325251e-06)
(0.05045473 -3.966708e-06 4.513034e-06)
(0.05046213 -4.033442e-06 4.699032e-06)
(0.05046957 -4.103634e-06 4.884473e-06)
(0.05047706 -4.170584e-06 5.06274e-06)
(0.05048461 -4.255023e-06 5.263744e-06)
(0.05049221 -4.352021e-06 5.466354e-06)
(0.05049986 -4.416259e-06 5.617209e-06)
(0.05050747 -4.434395e-06 5.807956e-06)
(0.05051504 -4.465169e-06 6.04059e-06)
(0.05052275 -4.565052e-06 6.262665e-06)
(0.05053055 -4.655644e-06 6.456134e-06)
(0.05053838 -4.734896e-06 6.640004e-06)
(0.05054625 -4.809897e-06 6.823597e-06)
(0.05055414 -4.869423e-06 7.016006e-06)
(0.05056207 -4.899806e-06 7.241077e-06)
(0.05057007 -4.851111e-06 7.532356e-06)
(0.05057813 -4.669539e-06 7.867047e-06)
(0.05058609 -4.370252e-06 8.086866e-06)
(0.05024214 -3.003548e-06 5.506772e-06)
(0.05025602 -4.853061e-06 9.418523e-06)
(0.05026217 -9.337889e-06 1.26093e-05)
(0.05026863 -1.185037e-05 1.330444e-05)
(0.05027434 -1.361278e-05 1.353276e-05)
(0.05027995 -1.481353e-05 1.357366e-05)
(0.05028552 -1.566471e-05 1.359016e-05)
(0.05029111 -1.627459e-05 1.361513e-05)
(0.05029674 -1.671864e-05 1.36537e-05)
(0.0503024 -1.704313e-05 1.370363e-05)
(0.05030811 -1.728196e-05 1.376424e-05)
(0.05031386 -1.746243e-05 1.382948e-05)
(0.05031966 -1.759558e-05 1.389769e-05)
(0.0503255 -1.769845e-05 1.396726e-05)
(0.05033138 -1.777652e-05 1.403579e-05)
(0.05033731 -1.783566e-05 1.411228e-05)
(0.05034329 -1.787647e-05 1.418296e-05)
(0.05034931 -1.790551e-05 1.424906e-05)
(0.05035538 -1.793567e-05 1.431723e-05)
(0.0503615 -1.795877e-05 1.438199e-05)
(0.05036766 -1.797348e-05 1.444768e-05)
(0.05037387 -1.798535e-05 1.451891e-05)
(0.05038014 -1.799005e-05 1.458008e-05)
(0.05038646 -1.799603e-05 1.464292e-05)
(0.05039283 -1.799875e-05 1.470444e-05)
(0.05039925 -1.800001e-05 1.476522e-05)
(0.05040573 -1.79984e-05 1.48295e-05)
(0.05041227 -1.799019e-05 1.488852e-05)
(0.05041887 -1.798757e-05 1.494959e-05)
(0.05042552 -1.798397e-05 1.501329e-05)
(0.05043224 -1.797178e-05 1.507465e-05)
(0.05043903 -1.79674e-05 1.513889e-05)
(0.05044588 -1.795234e-05 1.519034e-05)
(0.05045279 -1.793926e-05 1.524518e-05)
(0.05045977 -1.792832e-05 1.53084e-05)
(0.05046682 -1.791871e-05 1.537121e-05)
(0.05047404 -1.788118e-05 1.544048e-05)
(0.05048138 -1.780664e-05 1.551875e-05)
(0.05048844 -1.780769e-05 1.556378e-05)
(0.05049593 -1.781724e-05 1.552811e-05)
(0.05050392 -1.782486e-05 1.554881e-05)
(0.05051175 -1.779529e-05 1.563761e-05)
(0.05051936 -1.776348e-05 1.571488e-05)
(0.05052703 -1.773507e-05 1.578383e-05)
(0.05053478 -1.770404e-05 1.584857e-05)
(0.05054261 -1.767592e-05 1.5919e-05)
(0.05055055 -1.762555e-05 1.599558e-05)
(0.05055865 -1.752951e-05 1.608304e-05)
(0.05056704 -1.743282e-05 1.623467e-05)
(0.05057589 -1.765106e-05 1.655462e-05)
(0.0502419 6.884071e-06 5.79582e-06)
(0.05025614 9.66916e-06 7.965566e-06)
(0.05026205 1.247522e-05 9.317256e-06)
(0.05026825 1.454296e-05 9.145114e-06)
(0.05027397 1.615725e-05 8.841099e-06)
(0.05027969 1.747655e-05 8.556907e-06)
(0.05028549 1.852378e-05 8.341588e-06)
(0.05029134 1.934331e-05 8.200822e-06)
(0.05029726 1.998713e-05 8.124904e-06)
(0.05030324 2.049349e-05 8.098914e-06)
(0.05030929 2.089217e-05 8.111765e-06)
(0.0503154 2.120666e-05 8.152843e-06)
(0.05032157 2.145482e-05 8.215369e-06)
(0.0503278 2.165078e-05 8.293432e-06)
(0.05033409 2.180613e-05 8.381153e-06)
(0.05034044 2.192952e-05 8.475086e-06)
(0.05034685 2.20271e-05 8.573498e-06)
(0.05035331 2.210358e-05 8.675725e-06)
(0.05035982 2.2163e-05 8.780289e-06)
(0.05036639 2.220896e-05 8.885249e-06)
(0.05037302 2.224424e-05 8.989858e-06)
(0.0503797 2.2271e-05 9.092715e-06)
(0.05038643 2.22906e-05 9.194367e-06)
(0.05039322 2.230411e-05 9.295101e-06)
(0.05040005 2.231261e-05 9.394163e-06)
(0.05040694 2.231692e-05 9.491701e-06)
(0.05041389 2.231765e-05 9.587258e-06)
(0.05042088 2.231529e-05 9.681406e-06)
(0.05042792 2.231044e-05 9.773748e-06)
(0.05043502 2.230351e-05 9.86441e-06)
(0.05044217 2.229461e-05 9.953522e-06)
(0.05044937 2.228372e-05 1.004134e-05)
(0.05045662 2.227088e-05 1.012918e-05)
(0.05046392 2.225645e-05 1.021548e-05)
(0.05047128 2.224121e-05 1.029938e-05)
(0.05047868 2.222521e-05 1.038124e-05)
(0.05048614 2.220875e-05 1.046078e-05)
(0.05049365 2.219175e-05 1.053766e-05)
(0.05050121 2.217402e-05 1.061337e-05)
(0.05050882 2.215565e-05 1.068785e-05)
(0.05051648 2.213686e-05 1.076045e-05)
(0.0505242 2.211785e-05 1.083114e-05)
(0.05053197 2.209899e-05 1.089918e-05)
(0.05053979 2.208101e-05 1.096292e-05)
(0.05054766 2.206526e-05 1.102073e-05)
(0.05055559 2.205555e-05 1.107135e-05)
(0.05056359 2.204126e-05 1.109538e-05)
(0.0505717 2.203145e-05 1.110161e-05)
(0.05058019 2.204717e-05 1.106899e-05)
(0.05058957 2.178445e-05 1.079985e-05)
(0.05024067 1.661684e-06 1.638639e-06)
(0.05024631 5.258902e-06 5.206752e-06)
(0.05025211 6.337163e-06 6.262191e-06)
(0.05025793 7.113952e-06 6.996488e-06)
(0.05026371 7.350471e-06 7.194639e-06)
(0.05026949 7.483827e-06 7.298122e-06)
(0.05027534 7.544669e-06 7.335102e-06)
(0.05028124 7.589256e-06 7.362624e-06)
(0.05028722 7.639168e-06 7.396392e-06)
(0.05029327 7.700882e-06 7.44249e-06)
(0.05029938 7.773443e-06 7.50352e-06)
(0.05030557 7.855133e-06 7.575336e-06)
(0.05031182 7.942831e-06 7.65741e-06)
(0.05031814 8.033946e-06 7.746682e-06)
(0.05032452 8.128185e-06 7.83792e-06)
(0.05033097 8.224262e-06 7.928895e-06)
(0.05033749 8.320119e-06 8.019848e-06)
(0.05034406 8.414155e-06 8.112392e-06)
(0.05035069 8.505803e-06 8.205444e-06)
(0.05035738 8.595763e-06 8.296896e-06)
(0.05036413 8.683982e-06 8.38633e-06)
(0.05037094 8.770797e-06 8.471624e-06)
(0.0503778 8.85592e-06 8.555038e-06)
(0.05038472 8.938609e-06 8.637211e-06)
(0.0503917 9.019333e-06 8.717297e-06)
(0.05039872 9.097997e-06 8.79581e-06)
(0.05040581 9.174585e-06 8.872035e-06)
(0.05041294 9.249166e-06 8.947553e-06)
(0.05042013 9.322332e-06 9.021107e-06)
(0.05042737 9.394176e-06 9.093173e-06)
(0.05043465 9.46439e-06 9.163752e-06)
(0.05044199 9.532564e-06 9.233735e-06)
(0.05044938 9.59882e-06 9.304957e-06)
(0.05045682 9.663747e-06 9.37535e-06)
(0.0504643 9.727174e-06 9.443237e-06)
(0.05047184 9.789919e-06 9.508976e-06)
(0.05047942 9.851934e-06 9.572336e-06)
(0.05048705 9.913342e-06 9.632259e-06)
(0.05049473 9.973748e-06 9.692045e-06)
(0.05050245 1.003307e-05 9.751188e-06)
(0.05051021 1.009169e-05 9.808848e-06)
(0.05051803 1.014955e-05 9.865193e-06)
(0.05052588 1.020676e-05 9.919482e-06)
(0.05053379 1.026353e-05 9.96956e-06)
(0.05054173 1.032037e-05 1.001431e-05)
(0.05054973 1.037816e-05 1.004935e-05)
(0.05055777 1.043373e-05 1.007188e-05)
(0.05056587 1.048282e-05 1.009723e-05)
(0.0505741 1.056506e-05 1.012638e-05)
(0.05058184 1.043088e-05 9.966892e-06)
(0.05024053 7.696623e-07 1.123502e-06)
(0.05024378 3.013443e-06 4.553428e-06)
(0.05024879 3.860825e-06 6.081194e-06)
(0.0502541 4.471073e-06 6.8756e-06)
(0.05025973 4.828239e-06 7.20307e-06)
(0.05026547 5.131295e-06 7.394918e-06)
(0.05027132 5.385397e-06 7.521742e-06)
(0.05027723 5.617082e-06 7.630874e-06)
(0.05028323 5.832826e-06 7.734958e-06)
(0.05028929 6.033966e-06 7.84024e-06)
(0.05029541 6.220935e-06 7.950681e-06)
(0.0503016 6.393764e-06 8.063077e-06)
(0.05030786 6.552624e-06 8.179418e-06)
(0.05031418 6.697378e-06 8.298825e-06)
(0.05032057 6.829507e-06 8.414185e-06)
(0.05032703 6.950775e-06 8.523245e-06)
(0.05033354 7.061192e-06 8.629361e-06)
(0.0503401 7.16103e-06 8.735795e-06)
(0.05034673 7.250904e-06 8.842466e-06)
(0.05035342 7.331898e-06 8.946159e-06)
(0.05036017 7.405975e-06 9.045498e-06)
(0.05036698 7.473529e-06 9.139141e-06)
(0.05037384 7.535501e-06 9.229239e-06)
(0.05038076 7.592433e-06 9.317812e-06)
(0.05038773 7.644418e-06 9.403801e-06)
(0.05039476 7.692319e-06 9.487568e-06)
(0.05040184 7.736119e-06 9.569429e-06)
(0.05040897 7.776158e-06 9.651119e-06)
(0.05041616 7.813372e-06 9.730011e-06)
(0.05042339 7.848627e-06 9.806078e-06)
(0.05043068 7.882116e-06 9.880094e-06)
(0.05043801 7.912852e-06 9.955089e-06)
(0.0504454 7.940963e-06 1.003186e-05)
(0.05045284 7.967203e-06 1.010772e-05)
(0.05046032 7.991884e-06 1.018073e-05)
(0.05046786 8.015049e-06 1.0251e-05)
(0.05047544 8.037046e-06 1.031736e-05)
(0.05048307 8.057686e-06 1.037936e-05)
(0.05049075 8.077686e-06 1.044101e-05)
(0.05049847 8.097452e-06 1.05023e-05)
(0.05050623 8.116326e-06 1.056233e-05)
(0.05051404 8.134335e-06 1.062088e-05)
(0.0505219 8.151155e-06 1.06775e-05)
(0.0505298 8.165839e-06 1.07308e-05)
(0.05053775 8.177746e-06 1.077982e-05)
(0.05054575 8.186062e-06 1.081893e-05)
(0.05055379 8.188121e-06 1.084808e-05)
(0.05056185 8.175026e-06 1.087472e-05)
(0.05056998 8.027828e-06 1.095287e-05)
(0.05057761 7.825747e-06 1.100241e-05)
(0.05024048 2.801879e-07 9.026838e-07)
(0.05024285 1.124786e-06 3.962121e-06)
(0.05024735 1.509374e-06 5.683785e-06)
(0.05025248 1.757672e-06 6.678859e-06)
(0.05025803 1.914021e-06 7.314594e-06)
(0.05026373 2.038838e-06 7.766898e-06)
(0.05026955 2.139773e-06 8.124439e-06)
(0.05027545 2.223005e-06 8.423021e-06)
(0.05028143 2.290827e-06 8.676676e-06)
(0.05028748 2.345939e-06 8.896322e-06)
(0.05029359 2.391345e-06 9.090876e-06)
(0.05029977 2.429085e-06 9.262945e-06)
(0.05030601 2.461499e-06 9.418875e-06)
(0.05031233 2.490178e-06 9.562322e-06)
(0.05031871 2.515247e-06 9.688718e-06)
(0.05032515 2.536962e-06 9.798568e-06)
(0.05033165 2.556936e-06 9.89839e-06)
(0.05033821 2.576351e-06 9.993753e-06)
(0.05034483 2.59588e-06 1.008549e-05)
(0.05035152 2.614898e-06 1.017146e-05)
(0.05035826 2.633019e-06 1.024964e-05)
(0.05036506 2.649957e-06 1.032098e-05)
(0.05037192 2.666337e-06 1.038744e-05)
(0.05037883 2.68295e-06 1.045144e-05)
(0.0503858 2.699346e-06 1.051295e-05)
(0.05039282 2.715645e-06 1.057205e-05)
(0.0503999 2.731783e-06 1.062991e-05)
(0.05040702 2.748052e-06 1.068759e-05)
(0.05041421 2.764046e-06 1.074286e-05)
(0.05042144 2.779901e-06 1.079464e-05)
(0.05042873 2.795685e-06 1.084444e-05)
(0.05043606 2.811923e-06 1.089646e-05)
(0.05044344 2.828789e-06 1.09508e-05)
(0.05045087 2.845591e-06 1.100418e-05)
(0.05045836 2.861652e-06 1.105468e-05)
(0.05046589 2.876401e-06 1.110299e-05)
(0.05047347 2.890037e-06 1.114743e-05)
(0.0504811 2.902416e-06 1.11879e-05)
(0.05048877 2.915415e-06 1.122766e-05)
(0.05049649 2.929551e-06 1.126761e-05)
(0.05050426 2.944189e-06 1.130688e-05)
(0.05051206 2.957781e-06 1.134471e-05)
(0.05051992 2.968384e-06 1.138163e-05)
(0.05052781 2.975631e-06 1.141735e-05)
(0.05053576 2.97817e-06 1.145175e-05)
(0.05054374 2.972063e-06 1.148043e-05)
(0.05055176 2.952685e-06 1.151184e-05)
(0.0505598 2.912453e-06 1.155303e-05)
(0.05056788 2.829697e-06 1.169888e-05)
(0.05057545 2.734984e-06 1.182827e-05)
(0.05024047 -8.938445e-08 8.813587e-07)
(0.0502427 -3.638672e-07 3.856039e-06)
(0.0502471 -5.162002e-07 5.53307e-06)
(0.05025219 -6.05606e-07 6.570159e-06)
(0.05025771 -6.483492e-07 7.27154e-06)
(0.05026342 -6.783599e-07 7.780156e-06)
(0.05026924 -7.089164e-07 8.178804e-06)
(0.05027515 -7.474561e-07 8.505866e-06)
(0.05028113 -7.962582e-07 8.780067e-06)
(0.05028718 -8.511896e-07 9.012234e-06)
(0.0502933 -9.07747e-07 9.212868e-06)
(0.05029948 -9.636375e-07 9.387628e-06)
(0.05030572 -1.015769e-06 9.542195e-06)
(0.05031203 -1.062239e-06 9.680907e-06)
(0.0503184 -1.105141e-06 9.802745e-06)
(0.05032484 -1.145913e-06 9.910244e-06)
(0.05033133 -1.181994e-06 1.000676e-05)
(0.05033789 -1.211556e-06 1.009662e-05)
(0.05034451 -1.234522e-06 1.018091e-05)
(0.05035119 -1.252888e-06 1.025907e-05)
(0.05035792 -1.269086e-06 1.033126e-05)
(0.05036472 -1.283466e-06 1.039769e-05)
(0.05037158 -1.295406e-06 1.045945e-05)
(0.05037849 -1.304379e-06 1.051809e-05)
(0.05038545 -1.311115e-06 1.057447e-05)
(0.05039247 -1.316083e-06 1.062866e-05)
(0.05039955 -1.319197e-06 1.06814e-05)
(0.05040667 -1.320097e-06 1.073325e-05)
(0.05041386 -1.319942e-06 1.078357e-05)
(0.05042109 -1.31958e-06 1.083143e-05)
(0.05042837 -1.318616e-06 1.087782e-05)
(0.0504357 -1.31499e-06 1.092439e-05)
(0.05044309 -1.308867e-06 1.097225e-05)
(0.05045052 -1.302212e-06 1.101965e-05)
(0.050458 -1.296153e-06 1.106483e-05)
(0.05046553 -1.291995e-06 1.11062e-05)
(0.05047311 -1.287284e-06 1.114415e-05)
(0.05048074 -1.287868e-06 1.118112e-05)
(0.05048841 -1.287114e-06 1.121943e-05)
(0.05049613 -1.283598e-06 1.125809e-05)
(0.0505039 -1.276041e-06 1.129841e-05)
(0.05051171 -1.268038e-06 1.133737e-05)
(0.05051956 -1.266106e-06 1.137555e-05)
(0.05052745 -1.268432e-06 1.141348e-05)