/*--------------------------------*- C++ -*----------------------------------*\
| =========                 |                                                 |
| \\      /  F ield         | OpenFOAM: The Open Source CFD Toolbox           |
|  \\    /   O peration     | Version:  v1912                                 |
|   \\  /    A nd           | Website:  www.openfoam.com                      |
|    \\/     M anipulation  |                                                 |
\*---------------------------------------------------------------------------*/
FoamFile
{
    version     2.0;
    format      ascii;
    class       surfaceScalarField;
    location    "1.58";
    object      meshPhi;
}
// * * * * * * * * * * * * * * * * * * * * * * * * * * * * * * * * * * * * * //

dimensions      [0 3 -1 0 0 0 0];
oriented        oriented;


internalField   nonuniform List<scalar> 
25162
(
0
0
0
0
0
0
0
0
0
0
0
0
0
0
0
0
0
0
0
0
0
0
0
0
0
0
0
0
0
0
0
0
0
0
0
0
0
0
0
0
0
0
0
0
0
0
0
0
0
0
0
0
0
0
0
0
0
0
0
0
0
0
0
0
0
0
0
0
0
0
0
0
0
0
0
0
0
0
0
0
0
0
0
0
0
0
0
0
0
0
0
0
0
0
0
0
0
0
0
0
0
0
0
0
5.771826091e-09
8.881939078e-08
-9.94600471e-07
0
-1.027467666e-08
8.455754692e-07
0
0
0
0
0
0
0
0
0
0
0
0
0
0
0
0
0
0
0
0
0
0
0
0
0
0
0
0
0
0
0
0
0
0
0
0
0
0
0
0
0
0
0
0
0
0
0
0
0
0
0
0
0
0
0
0
0
0
0
0
0
0
0
0
0
0
-2.684446292e-08
-1.536521121e-06
2.514545882e-06
9.66867302e-06
-9.843001066e-06
-8.423421631e-05
2.297429671e-05
0.0001189394652
-1.176059729e-05
-0.0002211791788
1.920957969e-05
0.0002484346628
3.297878169e-06
-0.000290670091
-7.625520823e-06
0.0002887586901
1.245912516e-05
-0.0002342360614
-2.316580898e-05
0.0002024026175
5.646873868e-06
-9.068879183e-05
-1.497475306e-05
5.650804037e-05
0
-1.661077045e-06
-3.697474759e-07
0
0
0
0
0
0
0
0
0
0
0
0
0
0
0
0
0
0
0
0
0
0
0
0
0
0
0
0
0
0
0
0
0
0
0
0
0
0
0
0
0
0
0
0
0
0
0
0
0
0
0
-1.320471598e-06
-3.434794518e-06
6.985640818e-06
2.425568241e-05
-5.186227881e-05
-0.0002065917072
8.19888002e-05
0.0002940567515
-8.737011805e-05
-0.0005868212358
0.0001128578804
0.0006841975819
-3.688647025e-05
-0.000938166161
3.763494534e-05
0.001002521591
4.176068275e-05
-0.001110427985
-6.153730842e-05
0.001114085906
7.845168089e-05
-0.001020188187
-0.0001049813643
0.000954530279
6.33070671e-05
-0.000673923611
-8.484209743e-05
0.0005622337813
2.462420897e-05
-0.000234531368
-3.900952421e-05
0.000145266043
0
-3.537897105e-06
-1.04266461e-06
0
0
0
0
0
0
0
0
0
0
0
0
0
0
0
0
0
0
0
0
0
0
0
0
0
0
0
0
0
0
0
0
0
0
0
0
0
0
0
0
0
0
0
0
0
4.339855033e-07
1.364668898e-06
-6.207607051e-05
-0.000161495007
9.283963771e-05
0.0002737549194
-0.000197977206
-0.0007132817728
0.0002398203906
0.0008785231404
-0.0001807952365
-0.001366679195
0.0001968233353
0.001513533259
-1.930087348e-05
-0.001864235198
7.953530846e-06
0.001945531781
0.000138286376
-0.002077382232
-0.0001646243682
0.002084760131
0.0002037047775
-0.00199195372
-0.0002398938932
0.001918794494
0.000162539122
-0.001560355082
-0.0001922220848
0.001397601234
0.0001093855657
-0.0008706725076
-0.0001290214196
0.0006837982921
2.467180893e-05
-0.0002032082233
-3.628161977e-05
0.0001003462084
0
0
0
0
0
0
0
0
0
0
0
0
0
0
0
0
0
0
0
0
0
0
0
0
0
0
0
0
0
0
0
0
0
0
0
0
0
0
0
0
0
0
-1.435336051e-05
-1.998308318e-05
2.398100993e-05
8.547384211e-05
-0.0002050602197
-0.0005070866353
0.0002434260531
0.000701446513
-0.0003715129506
-0.00137714615
0.0003919366229
0.001610587617
-0.0002196710116
-0.002182111194
0.0002426917378
0.002305105516
2.671652331e-05
-0.00257750036
-3.193210364e-05
0.002616476145
0.000219553076
-0.002656030218
-0.0002248078
0.002657509476
0.000350053732
-0.002642277219
-0.0003768601905
0.002606798483
0.0003570379831
-0.002401852807
-0.0003878068545
0.002239221939
0.0001629483928
-0.001572862369
-0.0001807652787
0.001327406455
6.998179644e-05
-0.0006031398504
-7.981550795e-05
0.0004007337613
-2.68895111e-05
2.945295195e-06
-5.026411626e-06
4.091744605e-07
0
0
0
0
0
0
0
0
0
0
0
0
0
0
0
0
0
0
0
0
0
0
0
0
0
0
0
0
0
0
0
0
0
0
0
3.809908139e-07
1.547368593e-08
5.918428788e-07
-5.754977522e-05
-0.0001033488137
7.049632196e-05
0.0002314186822
-0.0003507580723
-0.0008444716988
0.0003654741652
0.001121739546
-0.0004428346416
-0.001920302871
0.0004558775471
0.00215993448
-0.0002230455569
-0.002708842498
0.0001893802519
0.002828061743
-2.057998226e-06
-0.002932779276
6.127807082e-05
7.326013151e-06
0.001411416351
0.001454816839
-0.001403389226
0.000107357154
-0.0001078381619
0.001403870234
-0.001448019867
0.0004785534105
0.002916460875
-0.00148174706
-0.0002225249967
-0.0002427223615
-0.002775920729
0.0004243775703
-0.0004523057034
0.00267627203
0.0002392017529
-0.002110752148
-0.0002616151479
0.001856080237
0.0001043008717
-0.0009980186495
-0.0001099862006
0.0007322387718
-0.0001451545759
1.982559283e-05
-2.484532605e-05
4.587217527e-05
0
0
0
0
0
0
0
0
0
0
0
0
0
0
0
0
0
0
0
0
0
0
0
0
0
0
0
0
0
0
0
0
0
-1.598239983e-06
0
3.42448931e-06
5.540505586e-06
8.520179868e-06
-9.794242084e-05
-0.0001801710834
0.0001013227879
0.0003521312886
-0.0004222357258
-0.001113446566
0.000429329422
0.00141369206
-0.0004701135545
-0.002286166803
0.0004701190955
0.002530208504
-0.0001512829569
-0.002986565818
0.0001430671347
0.003023693861
1.132374639e-05
-0.001527715732
-8.808669889e-06
0.001525200656
-0.001513709072
0.0002030832779
-0.0002007409989
0.001511366793
-0.003000892786
0.000509486181
-0.0005208244431
0.0029443894
0.0002936681649
-0.002433500584
-0.0003010675448
0.002172630401
0.0001235856646
-0.001266314998
-0.0001271562722
0.0009673552349
-0.0002638602258
3.546381962e-05
-3.990862869e-05
0.0001153494524
0
0
0
0
0
0
0
0
0
0
0
0
0
0
0
0
0
0
0
0
0
0
0
0
0
0
0
0
0
0
0
0
0
-4.444647995e-06
0
5.621524404e-06
1.561211107e-05
1.772007167e-05
-0.0001184219082
-0.000232333813
0.0001220852616
0.0004277365606
-0.0004525594032
-0.001258243924
0.0004572875114
0.001578201184
-0.0004710453403
-0.002485192206
0.000471426986
0.002727818934
-0.0001323444489
-0.003136670667
0.0001309328646
0.00315113733
1.724888289e-05
-0.00157199787
-1.724880844e-05
0.001571997796
-0.001581173841
0.0001959527083
-0.0001951271368
0.00158034827
-0.003163685141
0.000536120569
-0.0005384710466
0.003127032743
0.0003285816281
-0.002654211208
-0.0003344557247
0.002395176591
0.000135982446
-0.001459331486
-0.0001384767582
0.001138451797
-0.0003384632633
4.497911286e-05
-4.662302832e-05
0.0001643998249
0
0
0
0
0
0
0
0
0
0
0
0
0
0
0
0
0
0
0
0
0
0
0
0
0
0
0
0
0
0
0
0
0
-6.777215042e-06
0
8.372115833e-06
2.436182913e-05
2.730954285e-05
-0.0001312233356
-0.0002713396467
0.0001349235417
0.000484256424
-0.0004691619081
-0.001368300142
0.0004737744696
0.001703852164
-0.0004728554599
-0.002641784188
0.0004732049519
0.00288792202
-0.0001280395662
-0.003284745969
0.0001272069538
0.003293179442
1.742111145e-05
-0.001641060806
-1.689115596e-05
0.0008187499627
0.0008217808875
-0.001650805015
0.0001926590797
-0.0001920617854
0.001650207721
-0.003301441837
0.0005338825917
-0.0005304259169
0.0032554174
0.0003318777194
-0.002741994484
-0.0003300389847
0.002468605265
0.0001371674102
-0.001494832309
-0.0001367574375
0.001164931099
-0.0003453372462
4.543435615e-05
-4.49326079e-05
0.0001671172528
0
0
0
0
0
0
0
0
0
0
0
0
0
0
0
0
0
0
0
0
0
0
0
0
0
0
0
0
0
0
0
0
0
-1.011747432e-05
0
1.213417916e-05
3.736456947e-05
4.121897171e-05
-0.0001465155966
-0.0003195360098
0.0001506030477
0.0005521306574
-0.0004877151587
-0.001493990663
0.0004924819062
0.00184574325
-0.0004739472263
-0.002813833986
0.0004740853143
0.003062340176
-0.0001246155699
-0.003441868131
0.0001239319697
0.003445503119
1.715971021e-05
-0.00171780097
-1.700756285e-05
0.0008575693087
0.0008600795135
-0.001723744648
0.0001902142734
-0.0001896160108
0.001723146386
-0.00343473612
0.000509854363
-0.0004996503985
0.003349962446
0.0003069950465
-0.002714374983
-0.0003089576221
0.002433006136
0.0001266031252
-0.001414935384
-0.000124448117
0.001081651166
-0.0002838032108
3.721809905e-05
-3.542956071e-05
0.0001221018473
0
0
0
0
0
0
0
0
0
0
0
0
0
0
0
0
0
0
0
0
0
0
0
0
0
0
0
0
0
0
0
0
0
-1.459790743e-05
0
1.55200925e-05
5.543154519e-05
5.774688875e-05
-0.0001639689292
-0.0003763902021
0.0001691980283
0.0006297671032
-0.0005074490601
-0.00162963791
0.0005130628393
0.001996710268
-0.0004740682964
-0.00299029149
0.0004738202883
0.003239216756
-0.0001223575036
-0.003594768991
0.0001223365796
0.003595071386
1.667508576e-05
-0.001792835837
-1.668961079e-05
0.0008949166757
0.0008979336861
-0.001792863561
0.0001874976398
-0.0001873229816
0.001792688903
-0.003517146473
0.0004686898939
-0.0004554509086
0.003376973927
0.0002783753376
-0.002633263741
-0.0002532225226
0.002295788744
0.0001110656942
-0.001232667287
-0.0001032503167
0.0009061407803
-0.0001908309808
2.523728338e-05
-2.202302867e-05
6.237177806e-05
0
0
0
0
0
0
0
0
0
0
0
0
0
0
0
0
0
0
0
0
0
0
0
0
0
0
0
0
0
0
0
0
0
-2.20358687e-05
0
2.959124615e-05
8.751798981e-05
0.0001005377182
-0.0001843720645
-0.0004535249748
0.0001982026914
0.0007255291755
-0.0005315604351
-0.001790251291
0.0005362720046
0.002172024906
-0.0004720270488
-0.003186636989
0.0004799634971
0.003428283263
-0.0001219212545
-0.003745192606
0.0001230520811
0.001867415272
0.001876646507
7.041157648e-06
-0.0009316208385
-6.786987355e-06
0.0009313666682
4.171746438e-05
-0.0004640456123
-4.086712306e-05
0.0009280754188
-0.0004648801479
-0.001858815201
0.0001866539214
-0.0003848012669
0.00372787323
-0.001867547418
0.0001966367358
0.0004210127425
-0.003519318067
-0.0003943428224
0.003304868451
0.0002161330976
-0.002428170215
-0.0002067420887
0.002072609006
8.7964086e-05
-0.001005922673
-8.444356337e-05
0.0006970641139
-7.972712002e-05
9.746278776e-06
-7.786284935e-06
7.879788711e-06
0
0
0
0
0
0
0
0
0
0
0
0
0
0
0
0
0
0
0
0
0
0
0
0
0
0
0
0
0
0
0
0
0
-3.318871988e-05
0
2.705053945e-05
0.0001208249876
0.0001114001867
-0.0002191261415
-0.0005451721584
0.0002119815981
0.0008525560504
-0.0005568503344
-0.001994607826
0.0005486093142
0.002393901942
-0.0004603003578
-0.003412180799
0.0004624427172
0.003643774482
-0.0001165711028
-0.003896712054
0.0001165711028
0.00194410818
0.001952603874
9.484489648e-06
-0.00194410818
-2.163276075e-05
1.214827111e-05
0.0009704269496
0.0009736812308
0.0001068796656
-0.0009704270345
-0.0001068795383
0.00194410818
-0.0009736812733
-0.003896712054
0.0003939679398
-0.0003904092124
0.003884667464
0.0003498316744
-0.00341622183
-0.0003370876968
0.003153707099
0.0001803851392
-0.002122918052
-0.0001588202513
0.001746862992
6.668801537e-05
-0.0007092071531
-6.424043568e-05
0.0004555565793
-1.11359498e-05
1.633489124e-06
-7.494559033e-07
0
0
0
0
0
0
0
0
0
0
0
0
0
0
0
0
0
0
0
0
0
0
0
0
0
0
0
0
0
0
0
0
0
0
-1.654359151e-05
0
5.94241675e-06
5.680684905e-05
3.573363867e-05
-0.0001622546014
-0.0004013926958
0.0001389386816
0.0006778249395
-0.0004833358424
-0.00177917672
0.0004484725121
0.002183927959
-0.0004638083379
-0.003275511472
0.0004573248519
0.003551514531
-0.0001413363381
-0.004012013317
0.0001621487557
0.004047541198
2.163276075e-05
-0.004048087649
-5.392228881e-05
0.004048087649
3.228952808e-05
0.0002244142806
-0.004048087649
-0.0002244142806
0.004048087649
0.0003641446598
-0.0039704863
-0.0003476644784
0.003853813882
0.0002779475862
-0.003162046596
-0.0002578091823
0.002836115547
0.000121963161
-0.001721018671
-0.0001139548143
0.001347854184
4.315129176e-05
-0.0004144860342
-3.453852388e-05
0.0002165468164
0
0
0
0
0
0
0
0
0
0
0
0
0
0
0
0
0
0
0
0
0
0
0
0
0
0
0
0
0
0
0
0
0
0
0
0
0
-1.432095109e-07
0
0
3.173346228e-07
0
-6.511191018e-05
-0.0001388152763
4.360224774e-05
0.0003134306502
-0.0003135520805
-0.00116771019
0.0002628365033
0.001521971185
-0.0003988677039
-0.002593101712
0.000365311974
0.002909210819
-0.0002032832586
-0.003617564927
0.0002061816597
0.003766511036
3.490831704e-05
-0.00399544747
-2.215115987e-05
0.004016886319
0.0002082274308
-0.003955241603
-0.0001900003452
0.003886703679
0.0002730241626
-0.003479984623
-0.0002413786684
0.003268764788
0.000187041809
-0.00243251739
-0.0001624026818
0.002106618
8.426745707e-05
-0.001113867933
-7.294019019e-05
0.000813064331
1.620152234e-05
-0.0001501618264
-1.011575455e-05
4.130202734e-05
0
0
0
0
0
0
0
0
0
0
0
0
0
0
0
0
0
0
0
0
0
0
0
0
0
0
0
0
0
0
0
0
0
0
0
0
0
0
0
0
0
0
-4.114439676e-06
-3.17167321e-07
6.535545695e-07
2.398402602e-05
-0.0001188074204
-0.0004201627457
7.976028488e-05
0.0006419285331
-0.0002353155041
-0.001436949689
0.0001884203988
0.001708725703
-0.0001780629709
-0.002415057027
0.000158180179
0.002593826407
-1.677514591e-05
-0.002921086225
2.590923507e-05
0.002959051408
0.0001127874011
-0.002865512092
-8.618533594e-05
0.002767344198
0.0001421649725
-0.002289276057
-0.0001121169687
0.002077450644
9.376199916e-05
-0.001348562784
-7.387749158e-05
0.00109584225
3.686252675e-05
-0.0004159875411
-2.522983328e-05
0.0002434494949
1.635306987e-07
-1.052356919e-06
0
0
0
0
0
0
0
0
0
0
0
0
0
0
0
0
0
0
0
0
0
0
0
0
0
0
0
0
0
0
0
0
0
0
0
0
0
0
0
0
0
0
0
0
0
0
0
0
-8.287480127e-06
-1.086452718e-05
1.235651387e-06
5.063616205e-05
-6.64113303e-05
-0.0003545110164
3.777612353e-05
0.0004939111456
-8.380981346e-05
-0.0009222436078
5.937563831e-05
0.001046520885
-3.20435639e-05
-0.001297879017
2.755439546e-05
0.001332390243
2.620317565e-05
-0.001277830403
-1.485272277e-05
0.001210028388
4.336231922e-05
-0.00089103824
-2.82314006e-05
0.0007585729442
2.578991275e-05
-0.0003513502044
-1.431604464e-05
0.0002319194949
1.469891058e-06
-1.340128638e-05
-4.239333636e-09
1.446227003e-07
0
0
0
0
0
0
0
0
0
0
0
0
0
0
0
0
0
0
0
0
0
0
0
0
0
0
0
0
0
0
0
0
0
0
0
0
0
0
0
0
0
0
0
0
0
0
0
0
0
0
0
0
0
0
-1.875743009e-07
0
0
1.821437205e-06
-7.856364816e-06
-4.9999151e-05
1.220492665e-06
7.749596194e-05
-7.455700745e-06
-0.0001508570884
2.57317684e-06
0.0001636738789
1.065234778e-06
-0.0001516267538
-2.270168293e-07
0.0001321210549
2.810156827e-06
-5.241565757e-05
-2.385265922e-07
2.888768163e-05
0
0
0
0
0
0
0
0
0
0
0
0
0
0
0
0
0
0
0
0
0
0
0
0
0
0
0
0
0
0
0
0
0
0
0
0
0
0
0
0
0
0
0
0
0
0
0
0
0
0
0
0
0
0
0
0
0
0
0
0
0
0
0
0
0
0
0
0
0
0
0
0
0
0
0
0
0
0
0
0
0
0
0
0
0
0
0
0
0
0
0
0
0
0
0
0
0
0
0
0
0
0
0
0
0
0
0
0
0
0
0
0
0
0
0
0
0
0
0
0
0
0
0
0
0
0
0
0
0
0
0
0
0
0
0
0
0
0
0
0
0
0
0
0
0
0
0
0
0
0
0
0
0
0
0
0
0
0
0
0
0
0
0
0
0
0
0
0
0
0
0
0
0
0
0
0
0
0
0
0
0
0
0
0
0
0
0
0
0
0
0
0
0
0
0
0
0
0
0
0
0
0
0
0
0
0
0
0
0
0
0
0
0
0
0
0
0
0
0
0
0
0
0
0
0
0
0
0
0
0
0
0
0
0
0
0
0
0
0
0
0
0
0
0
0
0
0
0
0
0
0
0
0
0
0
0
0
0
0
0
0
0
0
0
0
0
0
0
0
0
0
0
0
0
0
0
0
0
0
0
0
0
0
0
0
0
0
0
0
0
0
0
0
0
0
0
0
0
0
0
0
0
0
0
0
0
0
0
0
0
0
0
0
0
0
0
0
0
0
0
0
0
0
0
0
0
0
0
0
0
0
0
0
0
0
0
0
0
0
0
0
0
0
0
0
0
0
0
0
0
0
0
0
0
0
0
0
0
0
0
0
0
0
0
0
0
0
0
0
0
0
0
0
0
0
0
0
0
0
0
0
0
0
0
0
0
0
0
0
0
0
0
0
0
0
0
0
0
0
0
0
0
0
0
0
0
0
0
0
0
0
0
0
0
0
0
0
0
0
0
0
0
0
0
0
0
0
0
0
0
0
0
0
0
0
0
0
0
0
0
0
0
0
0
0
0
0
0
0
0
0
0
0
0
0
0
0
0
0
0
0
0
0
0
0
0
0
0
0
0
0
0
0
0
0
0
0
0
0
0
0
0
0
0
0
0
0
0
0
0
0
0
0
0
0
0
0
0
0
0
0
0
0
0
0
0
0
0
0
0
0
0
0
0
0
0
0
0
0
0
0
0
0
0
0
0
0
0
0
0
0
0
0
0
0
0
0
0
0
0
0
0
0
0
0
0
0
0
0
0
0
0
0
0
0
0
0
0
0
0
0
0
0
0
0
0
0
0
0
0
0
0
0
0
0
0
0
0
0
0
0
0
0
0
0
0
0
0
0
0
0
0
0
0
0
0
0
0
0
0
0
0
0
0
0
0
0
0
0
0
0
0
0
0
0
0
0
0
0
0
0
0
0
0
0
0
0
0
0
0
0
0
0
0
0
0
0
0
0
0
0
0
0
0
0
0
0
0
0
0
0
0
0
0
0
0
0
0
0
0
0
0
0
0
0
0
0
0
0
0
0
0
0
0
0
0
0
0
0
0
0
0
0
0
0
0
0
0
0
0
0
0
0
0
0
0
0
0
0
0
0
0
0
0
0
0
0
0
0
0
0
0
0
0
0
0
0
0
0
0
0
0
0
0
0
0
0
0
0
0
0
0
0
0
0
0
0
0
0
0
0
0
0
0
0
0
0
0
0
0
0
0
0
0
0
0
0
0
0
0
0
0
0
0
0
0
0
0
0
0
0
0
0
0
0
0
0
0
0
0
0
0
0
0
0
0
0
0
0
0
0
0
0
0
0
0
0
0
0
0
0
0
0
0
0
0
0
0
0
0
0
0
0
0
0
0
0
0
0
0
0
0
0
0
0
0
0
0
0
0
0
0
0
0
0
0
0
0
0
0
0
0
0
0
0
0
0
0
0
0
0
0
0
0
0
0
0
0
0
0
0
0
0
0
0
0
0
0
0
0
0
0
0
0
0
0
0
0
0
0
0
0
0
0
0
0
0
0
0
0
0
0
0
0
0
0
0
0
0
0
0
0
0
0
0
0
0
0
0
0
0
0
0
0
0
0
0
0
0
0
0
0
0
0
0
0
0
0
0
0
0
0
0
0
0
0
0
0
0
0
0
0
0
0
0
0
0
0
0
0
0
0
0
0
0
0
0
0
0
0
0
0
0
0
0
0
0
0
0
0
0
0
0
0
0
0
0
0
0
0
0
0
0
0
0
0
0
0
0
0
0
0
0
0
0
0
0
0
0
0
0
0
0
0
0
0
0
0
0
0
0
0
0
0
0
0
0
0
0
0
0
0
0
0
0
0
0
0
0
0
0
0
0
0
0
0
0
0
0
0
0
0
0
0
0
0
0
0
0
0
0
0
0
0
0
0
0
0
0
0
0
0
0
0
0
0
0
0
0
0
0
0
0
0
0
0
0
0
0
0
0
0
0
0
0
0
0
0
0
0
0
0
0
0
0
0
0
0
0
0
0
0
0
0
0
0
0
0
0
0
0
0
0
0
0
0
0
0
0
0
0
0
0
0
0
0
0
0
0
0
0
0
0
0
0
0
0
0
0
0
0
0
0
0
0
0
0
0
0
0
0
0
0
0
0
0
0
0
0
0
0
0
0
0
0
0
0
0
0
0
0
0
0
0
0
0
0
0
0
0
0
0
0
0
0
0
0
0
0
0
0
0
0
0
0
0
0
0
0
0
0
0
0
0
0
0
0
0
0
0
0
0
0
0
0
0
0
0
0
0
0
0
0
0
0
0
0
0
0
0
0
0
0
0
0
0
0
0
0
0
0
0
0
0
0
0
0
0
0
0
0
0
0
0
0
0
0
0
0
0
0
0
0
0
0
0
0
0
0
0
0
0
0
0
0
0
0
0
0
0
0
0
0
0
0
0
0
0
0
0
0
0
0
0
0
0
0
0
0
0
0
0
0
0
0
0
0
0
0
0
0
0
0
0
0
0
0
0
0
0
0
0
0
0
0
0
0
0
0
0
0
0
0
0
0
0
0
0
0
0
0
0
0
0
0
0
0
0
0
0
0
0
0
0
0
0
0
0
0
0
0
0
0
0
0
0
0
0
0
0
0
0
0
0
0
0
0
0
0
0
0
0
0
0
0
0
0
0
0
0
0
0
0
0
0
0
0
0
0
0
0
0
0
0
0
0
0
0
0
0
0
0
0
0
0
0
0
0
0
-0.001564920415
0.001564990188
1.717910954e-05
-0.000187437322
0.00156918635
0.0001883153532
-0.0007875881253
-0.000782476256
0.000201727671
-0.001520230022
-0.0001952067208
-0.00163175393
1.779363738e-05
0.0008149735845
0.0008164078192
-0.000181304316
0.001643310271
0.0001821301205
-0.000823133318
-0.000821002758
-0.000184762734
-0.0007932254973
-0.0007906229321
-0.001708241522
1.738914928e-05
0.0008530300135
0.0008549820692
-0.0001795987925
0.001712898947
0.0001784976057
-0.00085674152
-0.0008550562405
-0.0001807132526
-0.0008258209944
-0.0008255750842
-0.001782940511
1.699204811e-05
0.0008902204275
0.0008924031212
-0.0001753675846
0.001782711759
0.0001765458824
-0.001783890057
-0.001724563249
-0.000178780192
-0.0009301415271
0.0009301479638
7.034720963e-06
0.0004643798332
-2.016010341e-05
2.031353125e-05
-0.0004645332611
-0.0004637757533
0.0009270714995
4.280155138e-05
-0.0001744750147
0.001851799961
0.0001744055545
-0.001851730501
-0.001793319179
-0.0001749119663
-0.000968976436
0.000968976436
9.484489637e-06
0.000968976672
-4.944432782e-05
4.944493152e-05
-0.0009689772757
-0.0004646067065
-1.959900916e-05
0.001934702959
-0.0008825985167
3.318752218e-06
2.043314299e-05
-0.0003157642612
0.003810999922
-0.001928620415
-0.001907892626
0.0001665872883
0.0001746900917
-0.001858727065
-0.000174563151
-0.001517733512
0.001517011938
1.204532044e-05
9.513560083e-05
-0.001403735438
-9.478938863e-05
0.001511625055
0.0001992139654
-0.001509111349
0.0002120794906
-0.001436380852
-0.0002237185055
-3.680263909e-05
0.000388393126
3.696193001e-05
-0.0003885524169
0.000767164207
8.364242285e-05
-0.000769286789
-8.151984088e-05
0.001568553669
0.0001965853897
-0.000528185178
0.003120533651
0.0005320772119
-0.00312528425
0.0005323996956
-0.003017018258
-0.0005280267018
-0.003246245571
0.00325591487
-0.0001288363567
-6.878490318e-06
6.945021423e-06
-0.001631820461
6.753956254e-06
-0.001571849004
-6.902822675e-06
-4.0949697e-05
0.0004026836456
4.066840601e-05
-0.0004024023546
3.64481377e-05
0.000395166824
-0.0003950770289
-3.653793274e-05
0.001642881067
0.0001930882837
-0.0005230752459
0.003270885506
0.0005245680827
-0.003272550788
-0.003165518388
-0.0005266536788
-0.003403453339
0.00340813446
-0.0001253603545
-6.807782719e-06
6.873650215e-06
-0.001708307389
-0.001641128312
-6.810983666e-06
-1.705518443e-05
-0.001671326219
1.712968978e-05
0.0008342954675
0.0008369562458
-2.548384789e-05
0.0004188501042
2.539018253e-05
-0.0008369830451
0.0004182266063
2.556809308e-05
0.0004084632988
-0.0008184337436
-2.5243229e-05
0.0004096455807
-3.547065328e-05
0.0004212079841
3.567186181e-05
-0.0004214091926
3.803402406e-05
0.0004119914388
-0.0004110436342
-3.898182863e-05
0.001713003814
0.0001901094063
-0.0005118379319
0.003400936223
0.0005166104141
-0.003412226891
-0.003303723702
-0.0005213629851
-0.003555873405
0.003556977521
-0.0001226285822
-6.618486648e-06
6.680897455e-06
-0.001783002922
-0.001717786874
-6.821878111e-06
-1.752418508e-05
-0.001746090701
1.71867185e-05
0.000872159698
0.0008742684691
-1.318390106e-05
0.000437309832
1.330654728e-05
-0.0004374324782
2.489232156e-05
0.0004283735645
-0.0008575572713
-2.494948405e-05
0.0004292408694
-6.788545499e-05
0.0008751590236
6.822905651e-05
-0.0008755026251
6.958660264e-05
0.0008610539818
-6.773128344e-05
-0.0004321932146
-0.0004307160864
-0.003707894334
-0.0001223662185
0.001849473146
0.001858866151
-6.293776193e-06
0.0009285701094
6.527246686e-06
-0.001858945107
-0.001792898095
-6.556228062e-06
-7.079964092e-06
-0.0009121986218
0.0009122882646
6.990321341e-06
-1.569151252e-05
0.0004573862089
1.513172601e-05
-0.0004568264224
1.445727823e-05
0.0004462814575
-0.0004465427963
-1.419593944e-05
-0.0004598315856
-2.379961047e-05
0.0004583965197
2.523467637e-05
-6.600214488e-05
0.0009112977377
6.576031746e-05
-0.0009110559103
6.71866822e-05
0.0008956039453
-0.0008956045078
-6.718611973e-05
-0.003799149256
-0.0001144244543
0.001862299648
0.001934702959
-1.097788144e-05
0.0009657265232
1.097788143e-05
-0.001934702959
0.0009357892225
-0.001867389761
-6.314076256e-06
-7.074417784e-06
-0.0009490054656
0.0009489186251
7.161258206e-06
-1.351406143e-05
0.0004709510358
1.49849833e-05
-0.0004724219577
1.662237577e-05
0.00046274976
-0.0004634939705
-1.587816526e-05
-0.002009935992
0.002009935992
2.163276075e-05
0.002009935992
-9.622374311e-05
9.622374311e-05
-0.002009935992
-0.0009704273695
-4.944399282e-05
2.8184524e-05
-0.0007693539553
-2.757945767e-05
0.0003836241991
0.0003851246898
-2.882843132e-05
-0.0007830476533
2.867903758e-05
0.0003918856891
0.0003913113579
-0.000767354018
1.402980624e-05
-1.239935178e-05
0.0007657235636
-0.000769121767
0.0007697081657
2.759812525e-05
0.0003947658452
3.63152464e-05
-0.0003946329539
0.0003878551313
-0.0003882018994
-3.645587104e-05
0.0001910444249
0.001547450041
-0.0001893632831
-0.0007771862599
-0.0007719449229
7.884109854e-05
-0.0003874199699
-7.74416977e-05
0.0007738757004
-3.724462944e-05
0.0003948365924
3.717388226e-05
0.0004077155249
2.596228724e-05
-0.0008160933465
0.0004079836275
0.0008010094144
2.560240019e-05
-0.0008010913663
-2.552044828e-05
1.747596341e-05
-0.00160551348
-1.740610532e-05
0.001605443622
2.82990752e-05
-2.774380032e-05
0.0004000249605
0.000400429179
-1.395110102e-05
0.0004077070324
1.395959344e-05
-0.0007843716946
-2.8460057e-05
0.0003916445787
0.0003923587416
-0.0007994645874
2.819054173e-05
0.0003997409751
0.0003998321458
0.0004106866141
3.700393838e-05
-0.0004096565284
0.0004045613786
-0.0004040138404
-4.149723511e-05
9.313589476e-05
0.0008083336899
-0.0008085022311
-9.296735353e-05
4.091630206e-05
-4.10487613e-05
0.0004046938378
-3.792172846e-05
0.0004112951844
3.731315818e-05
-3.725684264e-05
0.0003951790372
0.0004029601209
4.063982675e-05
0.0008048549362
9.31465187e-05
-0.0008048655601
0.0004275552686
2.525783362e-05
-0.0008547188918
0.0004267981111
0.0004198559061
-0.0008400182097
-2.583098177e-05
0.0004205094375
-0.001681359126
-1.745197541e-05
0.0008398568948
0.0008418990224
1.437299254e-05
-1.448013801e-05
0.0004199630515
-1.329008441e-05
0.0004274330865
1.341226654e-05
-1.38541448e-05
0.0004083663426
0.0004191165468
1.410654997e-05
0.0008576040161
6.941664123e-05
-0.0004290096017
-0.0004284244529
0.0004215863035
-0.0004214920419
-3.556491486e-05
0.0001786056318
0.001685285412
-0.000178815129
-0.0008430482657
-0.0008420276488
7.296955968e-05
-0.0004209431159
-7.230047299e-05
0.0008418603327
-7.20353989e-05
0.0008574870449
7.215237011e-05
-3.85189944e-05
0.0004125887047
-0.000419993476
0.0008403308605
3.637310634e-05
3.746705287e-05
0.001676708891
0.000180064836
-0.0008400868261
-0.0008380812692
0.0004457240338
1.461899105e-05
-0.0004458857467
0.00043781614
-0.000437861886
-1.313815505e-05
-0.001754184944
-1.696701838e-05
0.0008760480293
0.000877579748
1.421691086e-05
-1.388401785e-05
0.000437483247
-1.619857072e-05
0.0004453297629
1.659284167e-05
-1.326716847e-05
0.0004283506485
0.0004371404802
1.438626263e-05
0.0008938524496
6.727321517e-05
-0.0008939389825
0.0008781216447
-0.0008781200182
-6.788708142e-05
0.0004643614579
1.709680775e-05
-0.0004648358899
0.0004569035458
-0.0004571051102
-1.548994812e-05
-0.0009142956817
-7.085804229e-06
0.0009143015219
2.023334115e-05
0.0004569949631
-0.0004553687036
-2.185960069e-05
1.745431085e-05
-1.708752851e-05
0.0004565367634
-1.665689678e-05
0.0004633782843
1.764007038e-05
-1.570177647e-05
0.0004457846633
0.0004577915665
1.704895323e-05
2.294381086e-05
-0.0004625420553
-0.0001298140313
0.001850828245
0.0001294058329
-0.0009257849793
-0.0009246350675
0.0009128023384
-0.0009125096183
-6.629486499e-05
-2.37851548e-05
0.0004569805074
0.0009771048395
-2.5369581e-05
-0.0009725104648
9.205615182e-06
1.156959104e-05
0.0004714827166
-0.0004723733338
-1.26234442e-05
-0.0009509972039
-6.898500413e-06
0.0009508212865
3.206380469e-05
0.00093844285
-0.0009390844584
-3.142219629e-05
1.064036593e-05
-1.014733913e-05
0.0004709896898
-3.071302363e-05
0.0009773089406
1.214474388e-05
1.836417869e-05
-1.566592415e-05
0.0004617587874
1.169389793e-05
0.0004698975038
0.0009368078362
3.329805478e-05
-0.0009380420863
-0.003099614302
0.003117411296
-0.0001348682187
6.60925086e-06
-0.001564775709
1.311098728e-06
-0.001525648414
-3.378417268e-06
-1.541758575e-05
-0.001537033331
0.001536892025
1.555889217e-05
-2.525357269e-05
2.515410188e-05
-0.0007690222962
2.124927457e-05
-0.0007695936125
-1.900968016e-05
-7.172945108e-05
0.0003796806234
9.103744501e-06
-0.0003170549168
0.0003939815413
4.119242406e-05
-0.0003994141973
-3.575976814e-05
-0.001596993755
0.001597145026
1.732469255e-05
2.56196195e-05
-0.0007994818067
2.564896396e-05
-0.0007843725582
-2.564810038e-05
-0.0001450718735
0.0004381040227
6.5487904e-05
-0.0003585200531
0.001782180699
0.0001880286998
-0.0004872179586
0.003504554768
0.0004959400723
-0.003556493
-0.003449905869
-0.0005086927547
-0.000142717909
0.0004534191658
5.965979883e-05
-0.0003703610557
-5.537508684e-05
0.0009024121378
5.597908398e-05
-0.0004517547114
-0.0004512614236
2.850448199e-05
0.0004476153774
-0.0004475380449
-2.858181454e-05
-3.831492831e-05
0.0009362476055
3.887515904e-05
-0.0001390422198
0.001881024055
0.0001349342561
-0.001876916091
0.001858215017
-0.0001303732147
-0.0009295868329
-0.0009280690006
2.563015565e-05
-0.0007830288449
-0.0007693962737
-2.521125426e-05
-0.001537063398
-1.640869429e-05
0.001538054507
1.586240273e-05
-0.0003872567259
-1.651386104e-05
0.0003879081842
-0.0003957256388
3.951738469e-06
-9.241664991e-06
0.0004010155653
-0.0003861420499
-1.415843273e-05
0.0003865286969
1.377178573e-05
9.094159362e-05
-8.455196347e-05
0.0007607745769
-0.0003864598901
0.0007732186169
8.047549773e-05
0.001537154701
0.0001881505156
-0.0007687207187
-0.0007655400727
0.0004478301037
2.886780276e-05
-0.0004481934245
3.376459088e-05
0.000444180679
-0.0004455488581
-3.239641174e-05
0.00017789012
0.001755801945
-0.00175641706
-0.000177275005
7.116042483e-05
-7.083249211e-05
0.0008777937119
-7.017632831e-05
0.0008936223376
7.040644028e-05
-7.146193045e-05
0.0008604805134
0.0008751731389
7.114630951e-05
0.001749023204
0.0001780930768
-0.001749226161
2.522469761e-05
0.0004620693388
-0.000463761994
-2.353204236e-05
-0.0004649619414
-2.354459906e-05
0.0004650218414
2.3484699e-05
-3.508207604e-05
0.0009324584093
3.543230633e-05
-0.0004661805218
-0.0004666281178
0.0007196519131
4.655226168e-05
-0.0007196620084
-4.654216635e-05
-0.001546700683
2.543995872e-05
9.204088635e-06
-8.195798843e-06
0.0007529225444
0.0007673298896
-0.0007582416753
0.0007736375864
-1.366104814e-06
0.0007631233625
8.474571277e-05
-0.0007642266525
0.001517016885
0.0001948979064
-0.0007616805562
-0.0007294198751
-9.801137474e-05
-0.0001228029857
6.428363173e-05
-6.539758907e-05
0.0007207658705
0.0004810010608
-0.0005527305118
7.751446159e-05
0.00077125724
-7.597091866e-05
-0.0003863884974
-0.0003864122855
4.016035797e-05
5.112529171e-05
0.0003897154111
3.741870339e-05
-3.472483458e-05
0.0003912876725
0.0003885884204
3.125256093e-05
0.0007662714013
7.517111182e-05
-0.0003828078967
-0.0003811201548
3.57772922e-05
0.0003990604012
-0.0003991112978
-3.572639559e-05
0.0003991542628
3.592329698e-05
-0.0003993002676
3.493785753e-05
0.0004179669569
-0.0004177782032
-3.512661121e-05
0.0004186855379
3.555584776e-05
-0.0004193035282
0.0004372145682
-3.381634385e-05
3.052558047e-05
-0.0004339238048
0.0004456816255
-0.0005680809937
-2.267250535e-05
6.874776685e-05
0.0008679796467
-0.0008679624056
-6.876500796e-05
3.848505843e-05
-3.205241855e-05
0.0004392489856
-3.421758471e-05
0.0004381310601
3.330109279e-05
3.445577055e-05
-6.480186136e-05
0.0004254444434
-0.0003950983526
0.0004355229687
4.106611236e-05
0.0008663406644
6.884527053e-05
-0.0004333730567
-0.0004330651113
0.0004517462666
1.206710485e-05
-0.0004520020909
-1.181128056e-05
1.707620373e-05
-0.0009042379182
-1.698869168e-05
0.0009041504062
-1.699223679e-05
-0.0009121283043
0.0009122132471
1.690729399e-05
-5.376954997e-05
0.0009108574474
5.406238006e-05
-0.0009111502775
0.0009043988881
-5.472538364e-05
-0.0004529560149
-0.0004520925764
-0.0005871290357
-1.751372371e-05
0.0004619248504
9.506939651e-06
0.0004691362148
-0.0004699832497
-8.659904718e-06
1.642260766e-05
-0.0009415431937
-1.634580454e-05
0.0009414663906
-1.634911834e-05
-0.0009488282024
1.679969512e-05
0.0004738619432
0.0004745156824
1.674198419e-05
-0.0009312019116
-1.646940332e-05
0.0009309293307
-0.0009391083804
0.0009390110382
1.651994993e-05
0.0004670236178
1.055568131e-05
-0.0004680723595
-0.000396164451
1.2652654e-05
-0.0001182297241
0.0005017415211
-0.0003849753845
1.628265011e-05
0.0003845551371
-2.778841714e-05
-0.0007756525491
2.810828929e-05
0.0003867993844
0.0003885332925
-1.759973304e-05
1.855706026e-05
-0.0003859327117
1.790989347e-05
-0.0003915418848
-2.253245963e-05
-2.254546963e-05
4.687398241e-05
-0.0003927748739
0.0003684463611
-0.0003879890739
-1.686738508e-05
-0.0007786902805
-2.862664493e-05
0.0003899238581
0.0003896046501
-2.581929253e-05
-0.0007743113666
0.0007748207777
2.530988144e-05
-1.656888863e-05
1.698899002e-05
-0.0003865621513
-4.926189404e-06
-0.0003837955283
-7.003921092e-06
0.0003905556779
1.619027819e-05
-0.0003888360626
0.0003863872906
-0.0003863097588
-1.664642049e-05
-0.0007704985308
-2.63209079e-05
0.0007710001462
-1.668002432e-05
0.0003889088822
0.0003898581759
1.335015595e-05
3.746184401e-05
0.0003919485108
-0.0003911074673
-3.830288747e-05
0.0003903879498
3.756271388e-05
-0.0003904888196
-1.406314333e-05
-0.0004042661302