/*--------------------------------*- C++ -*----------------------------------*\
| =========                 |                                                 |
| \\      /  F ield         | OpenFOAM: The Open Source CFD Toolbox           |
|  \\    /   O peration     | Version:  v1912                                 |
|   \\  /    A nd           | Website:  www.openfoam.com                      |
|    \\/     M anipulation  |                                                 |
\*---------------------------------------------------------------------------*/
FoamFile
{
    version     2.0;
    format      ascii;
    class       volScalarField;
    location    "1.58";
    object      nut;
}
// * * * * * * * * * * * * * * * * * * * * * * * * * * * * * * * * * * * * * //

dimensions      [0 2 -1 0 0 0 0];


internalField   nonuniform List<scalar> 
12556
(
1.155897571
1.155869726
1.155837916
1.155809175
1.15602981
1.156022973
1.156031423
1.156058038
1.156113237
1.15621527
1.156369648
1.156538913
1.131527611
1.101748993
1.15666284
1.156471981
1.156317265
1.156201256
1.15610337
1.156063403
1.155823007
1.155825376
1.155848132
1.155874055
1.155175048
1.155088181
1.15499943
1.154926993
1.155122046
1.155122231
1.155186131
1.155408287
1.155676495
1.156161335
1.156910079
1.157898661
1.04388116
1.012009838
1.05591089
1.157666229
1.156812682
1.156134662
1.15559853
1.155330387
1.154979291
1.154973869
1.155030322
1.155108319
1.154413512
1.154268447
1.154117545
1.15400873
1.154222207
1.154270442
1.15444235
1.154860827
1.155544818
1.1567377
1.081569339
0.8788559238
0.8015953843
0.7893405057
0.8401562567
0.9598282748
1.158106313
1.156580939
1.155398344
1.154771074
1.154212332
1.15415211
1.154215661
1.154337438
1.153642723
1.153438856
1.15324572
1.15313345
1.153348858
1.153502001
1.153900612
1.154692248
1.156156369
1.019430056
0.755978163
0.6073947774
0.5365202804
0.5408905641
0.5962213534
0.6991315312
0.8684818256
1.141136576
1.155789067
1.154531552
1.153576381
1.153398157
1.153432844
1.153582368
1.152837553
1.152582609
1.152348776
1.152243182
1.152540283
1.152870359
1.153695343
1.155070662
1.083549756
0.7245042517
0.5003067844
0.3713046209
0.3167374527
0.3337122551
0.3963973367
0.4934221837
0.6381486974
0.8717861725
1.157128469
1.154744282
1.153158438
1.152708896
1.15266139
1.152813875
1.152048982
1.151747351
1.151496614
1.151446461
1.151824285
1.152430249
1.1538683
1.156246424
0.8496261505
0.532245245
0.3284057861
0.206317417
0.1601805145
0.1859234504
0.2557296064
0.3514680204
0.4810304578
0.679062816
1.002470651
1.155510502
1.152940093
1.152094896
1.151904887
1.152030767
1.151230479
1.150895902
1.150651247
1.150660485
1.151235421
1.152226245
1.154541706
1.123193987
0.7040829844
0.419499815
0.2301011823
0.1040335721
0.05865543022
0.09245271823
0.1690124299
0.2624691434
0.3808584898
0.5506074617
0.8500265815
1.156856099
1.15293145
1.15154732
1.151139643
1.151205842
1.150481109
1.150117768
1.149893811
1.15003945
1.150837845
1.152309922
1.155713878
1.017623331
0.6367946574
0.383754488
0.2118021162
0.08677580935
0.05269747362
0.1284956812
0.2157876123
0.3243508615
0.4761854243
0.7464907321
1.116662203
1.153178931
1.151108445
1.150395948
1.150369252
1.149749215
1.149377254
1.149209592
1.149565109
1.150541992
1.152706121
1.157257219
0.9549970187
0.6248935643
0.4099018297
0.2754583331
0.1983453508
0.0639361121
0.1254871226
0.2030685155
0.3012170288
0.4396421801
0.6907484091
1.030395478
1.153641813
1.150795005
1.149718698
1.149571756
1.149153464
1.148772462
1.148672341
1.149243074
1.150442853
1.153406454
1.158898916
0.9335387907
0.6454523681
0.4638959694
0.3727062394
0.3802023021
0.08957488144
0.1423524918
0.2119580184
0.3068067139
0.4380016637
0.6678066342
0.9775811436
1.154362496
1.15069847
1.149204717
1.148912963
1.148634437
1.148263606
1.148267066
1.149108806
1.150606356
1.154372227
1.160682026
0.9333070208
0.6780418843
0.5202243014
0.4556311064
0.5271475872
0.1222056778
0.1720324838
0.2388919638
0.3265427825
0.4492211923
0.6723672314
0.9521080965
1.155261387
1.150830524
1.14892202
1.148476343
1.1482689
1.147917359
1.148027835
1.149139265
1.150974932
1.155557823
1.16247039
0.949127564
0.7154671076
0.5655402089
0.4949011469
0.4630885297
0.159796182
0.2138102388
0.2820070084
0.3684634398
0.4880461995
0.7017082387
0.9560540324
1.15637783
1.151241151
1.148929832
1.148327519
1.148003209
1.14767788
1.147947519
1.149383153
1.151500358
1.156904861
1.164113194
0.9827246058
0.7605278964
0.6062542434
0.5046106433
0.415403344
0.05709410207
0.2083551072
0.2756321716
0.3487546757
0.4339400932
0.555956421
0.7525588018
0.9843328826
1.157570591
1.151868026
1.14921049
1.148477564
1.147897818
1.147603347
1.148018296
1.149730633
1.152330618
1.158383678
1.16619236
1.028660673
0.8257980568
0.6654329808
0.5405811855
0.2786516397
0.1136572822
0.310336483
0.3872556361
0.4540670231
0.5299508924
0.6453647706
0.8237869024
1.029629792
1.158791739
1.152687784
1.14972634
1.14889381
1.147854499
1.147586879
1.148142828
1.150148481
1.153136973
1.159787174
1.167729424
1.116173683
0.928753121
0.7762971015
0.6471228359
0.0889439973
0.1601686713
0.4233110999
0.5948648668
0.619532629
0.6721945924
0.7717681874
0.9315448044
1.109087714
1.1599523
1.153560415
1.150395399
1.149480859
1.147930588
1.147691079
1.148371268
1.150640834
1.153978118
1.161097752
1.169018501
1.168231911
1.082918876
0.9672678499
0.8196753625
0.05293436247
0.1769469175
0.4392092006
0.7042494568
0.8677136853
0.8666660472
0.9369619955
1.074553099
1.16859835
1.160990094
1.154435026
1.15114157
1.15019219
1.148002146
1.147781452
1.148568514
1.151103913
1.154793181
1.162253508
1.169979731
1.168361027
1.144410436
1.064066205
0.7475113525
0.03804775108
0.195976562
0.4568733442
0.7218791375
0.9343807942
1.06633366
1.133874173
1.165526935
1.169665835
1.161828914
1.155220284
1.151860236
1.15089002
1.148147958
1.147945896
1.148816944
1.151567251
1.155535231
1.163218879
1.170580372
1.167894135
1.139714751
1.040681774
0.6271265046
0.03020994316
0.2227276774
0.4796011518
0.7415355193
0.9449573409
1.071318775
1.136632962
1.166745834
1.170334688
1.162445528
1.15588336
1.152542987
1.151569843
1.148234017
1.148043055
1.148980386
1.151936431
1.156176376
1.163973612
1.170840548
1.166863113
1.134382551
1.01248606
0.4893164729
0.03111323063
0.2488831703
0.500484955
0.7559677915
0.952162939
1.07483062
1.138353156
1.167379478
1.170630664
1.162807917
1.156355662
1.153074933
1.152116068
1.148371778
1.148197008
1.149184058
1.152284835
1.156701131
1.164516991
1.170753505
1.165337703
1.127979478
0.9824978488
0.4067459911
0.03371797813
0.2640426728
0.5118128819
0.7649645044
0.9577879893
1.077333238
1.13934768
1.167566338
1.170623269
1.163017657
1.156742429
1.15354238
1.152598819
1.148414092
1.148254712
1.149285767
1.152527339
1.157114395
1.16486471
1.170376264
1.163383869
1.120481847
0.9458405593
0.3501003648
0.03734056722
0.2761222393
0.5214962195
0.771272806
0.962068232
1.079110214
1.139842646
1.167420154
1.170385891
1.16302658
1.156944606
1.153835423
1.152910176
1.148507043
1.148373787
1.149446128
1.152776693
1.157431356
1.165045962
1.169753698
1.161050305
1.111782834
0.8995229814
0.3076216149
0.04221858022
0.2869586528
0.5300355109
0.7758282744
0.9650207392
1.080300679
1.139982903
1.167035189
1.169983656
1.16296713
1.157110143
1.15408893
1.153173579
1.14848243
1.148378138
1.149497965
1.152932859
1.157674783
1.165091327
1.168922491
1.158354057
1.101442727
0.847384398
0.2748000312
0.04853346758
0.2967603622
0.5376268993
0.7793884121
0.9667790623
1.080948105
1.139845355
1.166480562
1.169468524
1.162759926
1.157109554
1.154170798
1.15326449
1.148521576
1.148457902
1.149629648
1.153127863
1.1578582
1.165024693
1.167903555
1.155248937
1.088501536
0.7976779236
0.248935524
0.05631880757
0.3057008438
0.5444382451
0.7823443928
0.9676563028
1.081093306
1.13946995
1.165802253
1.16887773
1.162552392
1.15712477
1.154257166
1.153349704
1.148428041
1.148406563
1.149638397
1.153226251
1.15799418
1.1648597
1.166696933
1.151619273
1.072134492
0.7533997001
0.227963533
0.06542831328
0.3139296819
0.5506135877
0.7848863501
0.9679705179
1.080822262
1.138889999
1.16503246
1.168237329
1.162219438
1.156980161
1.154175821
1.15326713
1.14841836
1.148449338
1.14974641
1.153384444
1.15808383
1.164602961
1.165291862
1.147304418
1.052576749
0.714142785
0.2104097598
0.07540613795
0.3215615511
0.5562732262
0.7871218883
0.967944283
1.080240885
1.138143338
1.164196511
1.167565009
1.161936866
1.1569012
1.154149293
1.15323049
1.148266087
1.148347545
1.149713686
1.153429206
1.158133662
1.164257761
1.163668456
1.142124019
1.030902825
0.6791633352
0.1957166511
0.08586378175
0.3287128599
0.561522088
0.789130522
0.9677158837
1.07944305
1.137268442
1.163314949
1.16687364
1.161528921
1.156657826
1.153954146
1.153027735
1.148217849
1.148359363
1.14980017
1.153554434
1.158139965
1.163825266
1.161795868
1.135943842
1.008228977
0.6478545011
0.1833730967
0.09650896821
0.3355018777
0.5664600732
0.7909815248
0.9673722909
1.078500072
1.136298542
1.162403521
1.166171911
1.161214554
1.156525431
1.153860692
1.152919403
1.14802553
1.148220646
1.149732879
1.153547017
1.158109342
1.163304219
1.159641556
1.128716577
0.9853250933
0.6196035356
0.1728123326
0.1070078444
0.3420299641
0.5711704137
0.7927312821
0.96696957
1.07746308
1.135260176
1.161474097
1.165466082
1.16076203
1.156218071
1.153591518
1.152639638
1.14794605
1.148205798
1.149798117
1.153640499
1.158035633
1.162690756
1.157163271
1.120481446
0.9626366246
0.5939373667
0.1637473372
0.1170903546
0.3483593242
0.5757144555
0.7944218961
0.9665445827
1.076369021
1.13417477
1.160536077
1.164761351
1.160438233
1.156052987
1.153455567
1.152486369
1.147740429
1.148052616
1.149712651
1.153589113
1.157926172
1.161976329
1.15432066
1.111339193
0.9404024517
0.5705931084
0.1560695247
0.1266198476
0.3545366437
0.5801462661
0.796083313
0.9661223944
1.075246305
1.133061474
1.159598023
1.164060941
1.159967817
1.155715609
1.153149181
1.152168346
1.147625137
1.148005426
1.149748225
1.153644454
1.157772439
1.161151488
1.151023594
1.101414032
0.9187589548
0.5492651529
0.1490687632
0.1355568131
0.3606056592
0.5845056062
0.7977382485
0.9657221279
1.074118978
1.131938308
1.158668191
1.1633711
1.159633524
1.155513458
1.15297037
1.151971419
1.147445921
1.147873395
1.149674591
1.15357052
1.157581203
1.160202884
1.147369141
1.090826901
0.8977602303
0.5296141199
0.1424033091
0.1439599927
0.3666091439
0.5888302033
0.7994059679
0.965360164
1.073008482
1.130822044
1.157754247
1.162690992
1.159192606
1.155197984
1.152679405
1.151669976
1.147272793
1.147772319
1.149657527
1.153559924
1.157343593
1.159121933
1.143247668
1.079694052
0.8774133902
0.5113560664
0.1362227227
0.1519127046
0.3725851729
0.5931497879
0.8010972967
0.9650483569
1.071933646
1.129729852
1.156865297
1.162033087
1.158798626
1.154917873
1.152422509
1.151395223
1.14716362
1.147701426
1.149629354
1.15350519
1.157067097
1.15790495
1.138740609
1.068131499
0.8577148625
0.4943451747
0.1305876027
0.1595483318
0.3785373066
0.5974459333
0.8028036233
0.9647902721
1.070908956
1.128675006
1.156020153
1.161399269
1.158500938
1.154709099
1.152228533
1.151192943
1.146954726
1.147579878
1.149600116
1.153431186
1.15676471
1.156570331
1.134006664
1.056322889
0.8388533433
0.4786528492
0.125506679
0.1669031354
0.3843839408
0.6016333958
0.8044757596
0.964574151
1.069939663
1.127663663
1.155287435
1.16086205
1.157994136
1.154338534
1.151884977
1.150828726
0.1760184549
0.05698362462
0.04555102401
0.3615642571
0.08221600113
0.05994112923
0.5118565642
0.1154816055
0.08611535475
0.470112618
0.1465271393
0.1204110839
0.4199648977
0.04265265411
0.05350921661
0.183362395
0.1505119817
0.3242804645
0.08389108359
0.04382577851
0.1079099933
0.2509598721
0.1866051629
0.08422587523
0.05892393593
0.04705195342
0.08775732639
0.02905953193
0.01959761548
0.06141294718
0.1065822885
0.1090901168
0.3481840488
0.3503691634
0.203802263
0.0317580454
0.04695527066
0.08615598684
0.1222449093
0.1089641019
0.438240405
0.489749608
0.3679946617
0.4330496224
0.2074713783
0.2360393702
0.05504301198
0.03941405537
0.1180252843
0.1503071531
0.1283063865
0.4894076959
0.5293597178
0.5046298234
0.503415004
0.1323508127
0.1734021846
0.1012051708
0.07467679839
0.4996246878
0.4762873304
0.5253719759
0.4513482566
0.07697308811
0.1022701962
0.01824419442
0.1376849846
0.1327762215
0.5277573592
0.3988839852
0.4681132312
0.382348215
0.02973235787
0.04921596249
0.2704607054
0.1159488412
0.08586557311
0.06888875801
0.1648502825
0.03284031567
0.06252562682
0.04820131572
0.03028600071
0.04892348716
0.03215558576
0.04762743278
0.2399947566
0.2690206541
0.2964379898
0.2084859797
0.1915333481
0.1900897913
0.2118287617
0.03902768031
0.03158569656
0.07152614232
0.04649276206
0.05257922305
0.04898456821
0.04672801619
0.07002901561
0.1763493242
0.2032912629
0.453355143
0.1576080464
0.1318415459
0.1895896792
0.1597571396
0.07115985159
0.05637703149
0.1028539121
0.07674537484
0.09810749464
0.0530878967
0.07397304678
0.09844904953
0.1037112951
0.1306368987
0.4954866959
0.1044764065
0.07874034976
0.1303693635
0.1058672585
0.1315637543
0.1053315415
0.05018486449
0.07519453806
0.4495227772
0.01336281347
0.05256632341
0.03145257339
0.07766720114
0.05412821427
0.01225036191
0.1443404374
0.1395520315
0.02069583783
0.004694841193
0.02942040859
0.3773971776
0.06808863108
0.018484358
0.01083668098
0.03110319917
0.01881918045
0.06526478755
0.2538276198
0.1835882564
0.1009722397
0.1091882904
0.06832736981
0.03863481606
0.01812110518
0.008456747933
0.2724242821
0.2727915305
0.1815170746
0.009297332867
0.1527444572
0.1874214895
0.1587757546
0.01092194247
0.05958409776
0.05175548124
0.08128464566
0.1611445616
0.1482203713
0.1634773608
0.0761779887
0.1225262526
0.04164485659
0.0133741728
0.02316888087
0.02246547057
0.03045932978
0.04738239048
0.05015739443
0.03610294765
0.1350957956
0.1260618247
0.1341334035
0.1015361948
0.1247020719
0.1318787914
0.02953430645
0.01237262956
0.05166009868
0.02332469102
0.03978459543
0.03203136173
0.01979045025
0.03057992547
0.02217621726
0.01664652659
0.02319999679
0.02082195369
0.01006919134
0.01685175842
0.02195260001
0.04039754642
0.04105877912
0.04730847438
0.04620840042
0.0184409495
0.01001735699
0.08935694457
0.01555368378
0.0282954147
0.009383981376
0.01325961258
0.08546186085
0.0912657162
0.2582248655
0.2450458546
0.07571653063
0.06373296165
0.01070864328
0.04428865671
0.1878333634
0.1749791172
0.2055790456
0.1930356286
0.04464467609
0.05071730046
0.04199594087
0.1018970987
0.06665686654
0.05958783685
0.04000186676
0.06614269637
0.1150321983
0.03995089651
0.02412218468
0.01523305628
0.0542657182
0.02692572447
0.04417328863
0.02577404029
0.06119352435
0.03925607263
0.03850560836
0.2047899338
0.03090699995
0.2040462722
0.2290463996
0.03469600305
0.03895206706
0.03133222563
0.03418684055
0.2248500022
0.03739223556
0.03710229117
0.05001979319
0.06894661367
0.06424455476
0.07535537303
0.07062206429
0.05031012859
0.05572895913
0.0564768609
0.05132314214
0.06258406248
0.05790928058
0.0546967457
0.1449650098
0.143299247
0.1758627892
0.1740030624
0.06726598894
0.009222580169
0.06594637255
0.09490710719
0.09306578862
0.1175365545
0.1158827122
0.03013179064
0.04436342944
0.1171492692
0.03364411158
0.01984348348
0.06616461363
0.2231918554
0.2101466862
0.2406021328
0.2275211604
0.06747895886
0.02684933153
0.04809025506
0.04708358693
0.07054173016
0.06968575344
0.007244558795
0.03544051452
0.09242594271
0.07995152128
0.1699564609
0.1604676881
0.02351971351
0.01185595871
0.0208291052
0.01427356918
0.02964458035
0.01217209374
0.0137050238
0.01252888168
0.02967699603
0.05529905381
0.01250934082
0.01752833916
0.003505763362
0.01923119141
0.01457142924
0.6074779198
0.3715719509
0.3877481579
0.2498499554
0.008506274807
0.005310546827
0.1547361184
0.3522009845
0.2827559047
0.005896197972
0.01297628439
0.01076859022
0.108898581
0.09692132022
0.03801029438
0.2005261624
0.1676588291
0.08457224596
0.00963925721
0.01636184469
0.01309297513
0.008676510273
0.01283138559
0.009023097264
0.03429366597
0.01465089909
0.01370904779
0.04392929326
0.05128967409
0.01498491166
0.02053245803
0.009835450618
0.009898765086
0.04119870921
0.1469345741
0.3262878154
0.3135430397
0.343250106
0.3305319378
0.1502793845
0.2753565066
0.2623904348
0.09256998283
0.03271507645
0.09499770327
0.08973168462
0.01163186846
0.01659633926
0.09322889421
0.04584795083
0.01665056057
0.01476729752
0.03784335915
0.04319213941
0.03891098316
0.04969541135
0.04471346819
0.03931668249
0.03819361585
0.01012429056
0.009882788765
0.0329865989
0.1878329862
0.3600410311
0.3474321488
0.05944413589
0.06141513262
0.1367280437
0.02178690332
0.0237766219
0.06012679013
0.08529335494
0.1030302221
0.09524946833
0.05948524135
0.08308141969
0.07732080511
0.0924216088
0.08534573772
0.0606422829
0.1172835823
0.2923814457
0.2795800079
0.3093118029
0.2966375563
0.1191193284
0.1004566594
0.03643279579
0.03716075288
0.02107822448
0.02190266306
0.08315433481
0.1250894071
0.05524647788
0.05903657515
0.03746661916
0.03814955111
0.1100431969
0.1211822371
0.04672196233
0.06346333347
0.007778302322
0.01808502155
0.05024821123
0.03839323794
0.07457379709
0.0204572678
0.02093712356
0.02004910366
0.0633246172
0.01114429624
0.004376840203
0.122922566
0.1053754404
0.0879303815
0.08365224962
0.02904831935
0.0188395767
0.03124391824
0.07680351797
0.01824304656
0.01168019709
0.01907199259
0.02440506653
0.002837754894
0.03062297139
0.01985185148
0.01217354165
0.006313299653
0.01179601111
0.009335188399
0.00917114999
0.02815299329
0.02158433422
0.007095111468
0.0385175027
0.04022270104
0.01551287491
0.01120730211
0.007273623119
0.01175372106
0.01691137478
0.01066305987
0.01345452754
0.04228961486
0.01024392286
0.009995338352
0.01142865021
0.01276439755
0.0351873955
0.01167233958
0.01159282919
0.01299337439
0.01153017643
0.01215612305
0.0183596417
0.01399720445
0.02641482169
0.02053153136
0.01211801919
0.01640596571
0.02182931437
0.01835065487
0.0294384312
0.02319075071
0.01796243498
0.01613621287
0.01249986164
0.0125709049
0.009792867083
0.03628999419
0.0432183501
0.01345272965
0.01267761761
0.01406156844
0.01455500391
0.0500193439
0.009302501329
0.009398027665
0.01184127985
0.009463834509
0.009432785564
0.04237922609
0.009577710442
0.01380444949
0.01287971772
0.0116954612
0.02051905974
0.05319922645
0.04815131949
0.010794909
0.03929780808
0.03358006612
0.04631754108
0.04137487806
0.01123644198
0.01155068487
0.03672963351
0.03065562117
0.1034424637
0.09687763204
0.03647549404
0.04680185215
0.1106957115
0.1052366842
0.04545777151
0.04454605994
0.06897674369
0.08208579233
0.1011156606
0.06163341062
0.07691129678
0.06997317414
0.06069971418
0.1428042193
0.1307644066
0.1103769848
0.1465154732
0.06061329364
0.03989354615
0.04522957737
0.05641598644
0.03425190516
0.03843696941
0.02336004283
0.0221284061
0.0443088693
0.01591507727
0.01604208001
0.01259875812
0.02332989599
0.02761991499
0.01670560383
0.02353640203
0.0345239362
0.03209450598
0.02452052968
0.02906547136
0.09588692615
0.08373201906
0.1025562136
0.09843945236
0.03020435765
0.07507158194
0.07278074993
0.08027093695
0.07590416666
0.03625302023
0.1200237926
0.1152389294
0.1278264042
0.1217308136
0.03685526108
0.0324737701
0.1079703467
0.1039816157
0.1137149715
0.1093628266
0.03282832898
0.01051733393
0.01023790377
0.03796210764
0.03438546746
0.01022971856
0.01063228051
0.04293100526
0.04215094587
0.04512457035
0.04319912593
0.04072318489
0.03966735176
0.04189382636
0.04099563543
0.06930643672
0.06729653663
0.07206953096
0.07000843964
0.06172877844
0.04784982745
0.06645606509
0.06432328284
0.02458045021
0.02086736751
0.03192800039
0.02661467384
0.006839728719
0.0133094154
0.01245863196
0.01947920436
0.01369894008
0.03546858621
0.03607610704
0.0990842995
0.02106089115
0.02085372292
0.02171066787
0.02124538795
0.02020446648
0.08551309078
0.0225321165
0.03333347119
0.04030373062
0.05336922597
0.1232559673
0.03688976946
0.02382933899
0.03952894452
0.03657061003
0.02247945874
0.02194563529
0.02339718919
0.02270103141
0.1114605534
0.03838210993
0.03927562922
0.006673635366
0.02783651413
0.009832741705
0.01013202623
0.009797379002
0.02591610714
0.008139498218
0.02035835646
0.011291681
0.01154641033
0.0495979471
0.04320923937
0.01986054055
0.02035110347
0.07362472848
0.06550461729
0.01897933003
0.01979676682
0.01092455219
0.02795632709
0.08103595925
0.07266224299
0.01309577516
0.01250780243
0.01745419895
0.01206652572
0.01334758468
0.01670705279
0.03050989932
0.008627320818
0.01298770592
0.01193059086
0.01267820256
0.02067853518
0.05413902424
0.1145308002
0.1477066716
0.01050839235
0.01030863167
0.190235933
0.2407268209
0.1988226863
0.006952734644
0.03703178466
0.01370587006
0.01802611666
0.1384326678
0.1443442632
0.1617927831
0.004852311463
0.007516642676
0.005570790145
0.004901799346
0.005848258886
0.00457276156
0.0578543622
0.03615713119
0.02275828213
0.02590529841
0.02324040414
0.02731789906
0.219923984
0.39281915
0.3806972753
0.3996612696
0.3968929787
0.2239641128
0.04473798302
0.03885092694
0.01257338811
0.0674712309
0.07952152151
0.1358616943
0.117959337
0.1124303195
0.04728933874
0.02875982847
0.03325519039
0.03309345934
0.3765898362
0.3641842063
0.1915383974
0.1519110816
0.06715807974
0.07100631137
0.07410405384
0.08497703766
0.1662348972
0.05777345252
0.1262338255
0.1198799348
0.01111064495
0.01109789262
0.01458591202
0.01964215935
0.01993416839
0.03229225593
0.01145141535
0.01121823427
0.01099703331
0.02740780885
0.05391317385
0.04642018421
0.018434731
0.03089096507
0.01920699006
0.01937766963
0.01883656543
0.01574317364
0.009512656472
0.01154261951
0.01094135796
0.01087203872
0.02358780197
0.02928567227
0.05935439966
0.0404380437
0.03756441895
0.0343208071
0.02530121294
0.04434128362
0.01534613574
0.02134805244
0.01186503365
0.008489874994
0.008595100712
0.01206555169
0.01200001791
0.02351137383
0.0148759306
0.0101735225
0.01945253849
0.01991147275
0.01821297764
0.01563821385
0.01923401548
0.01687141498
0.01057049605
0.0111900955
0.006540789107
0.009399858726
0.01064914661
0.06013169552
0.05483458286
0.02231522178
0.00922609056
0.01360575653
0.01241037347
0.01092706874
0.01435204656
0.01275753437
0.04854959647
0.03733170107
0.04285310569
0.06752476743
0.09588242357
0.09437093576
0.04159013937
0.06781487976
0.06405448728
0.09330244926
0.09137066789
0.06465277007
0.0341416108
0.04108812142
0.03618333936
0.02765949167
0.0283279489
0.02335398946
0.04751133597
0.04607562414
0.05148701521
0.02332954794
0.03368089968
0.03203319968
0.05227618391
0.05189251941
0.0306501815
0.02834185806
0.02792497405
0.03099194495
0.03027991288
0.03524573847
0.05857095516
0.05793167378
0.06236537179
0.06156454811
0.03817499807
0.03166984155
0.05354228543
0.05301070208
0.05727525674
0.05662955371
0.03371692764
0.06450274135
0.06644232434
0.1501258271
0.1382946692
0.06200683993
0.06388777174
0.09199347769
0.09524939297
0.1817148999
0.02632024851
0.02617742626
0.02768509173
0.02746576102
0.02006344587
0.02590572589
0.02580245207
0.1681959803
0.08723715221
0.09077989244
0.009193545672
0.009203561284
0.01198674022
0.01150860222
0.009220597398
0.009095974998
0.007161164142
0.06142369608
0.02474086475
0.03042564316
0.1344630035
0.1283522036
0.06096956999
0.07043185632
0.1417843726
0.1362855368
0.03162976552
0.03169555555
0.04844505179
0.04676679434
0.03123066774
0.03119630833
0.01087095801
0.02229007081
0.03534302121
0.03487211899
0.008584178919
0.01419944374
0.01839748685
0.01345691161
0.01282653217
0.01828951372
0.01853339392
0.03009787556
0.01225606055
0.008948775418
0.01216171528
0.01232721442
0.02812433819
0.0177919168
0.01837470046
0.01383289581
0.03412099169
0.02872604871
0.01068070558
0.01064939768
0.01069682439
0.01101951764
0.01591210525
0.006473320012
0.004197686593
0.007808561717
0.0117695276
0.01025717705
0.01058268549
0.01019834474
0.01038692346
0.01090959592
0.0102613459
0.006791719089
0.005330351531
0.0125377053
0.01290688547
0.01213640646
0.01223477631
0.01421830202
0.02180246611
0.022111965
0.02136657668
0.02163006788
0.0140868339
0.009744702096
0.01652171835
0.01650112752
0.01705941693
0.0166398452
0.009599972238
0.01578717969
0.02452615504
0.02727060418
0.02240664342
0.02313930471
0.01530389738
0.01009161103
0.0165242965
0.01652409844
0.01646674605
0.01651163601
0.009974061461
0.01171685228
0.01193494098
0.0112957707
0.01187409753
0.03659453584
0.05563525802
0.05516734281
0.02132106172
0.0353185802
0.03506904592
0.03662268278
0.03567548774
0.02152687889
0.01143783554
0.01105683261
0.01120476987
0.01151264722
0.01993136308
0.01973672971
0.02036281446
0.02014349864
0.01553006345
0.03434461242
0.02052512083
0.02143661606
0.02063602756
0.03458564788
0.03436556767
0.03491504143
0.0347325114
0.02076220997
0.02125391509
0.02066302331
0.03100722112
0.02220481841
0.01595393583
0.007582964644
0.01106884469
0.01103592669
0.007491901621
0.04162143531
0.0288421868
0.00300378871
0.02905357533
0.0444275449
0.04407045903
0.01821195457
0.0116558339
0.008554109373
0.003656743884
0.01299125639
0.01320960054
0.01897082719
0.01913502443
0.03081731813
0.01926360099
0.01074583307
0.0107470288
0.01518590863
0.004282007469
0.009172709674
0.007102404201
0.006068006297
0.007116951693
0.009351039196
0.006614672501
0.01066688816
0.01076214504
0.01053401536
0.040190361
0.03093836806
0.008399568426
0.01049980742
0.01170789685
0.01885831679
0.02123547999
0.01239923097
0.01527606125
0.01509306045
0.01022672446
0.006767335269
0.01020096629
0.01157746548
0.008061061863
0.01154943166
0.01182150513
0.01216028431
0.01196136976
0.011714325
0.0119621451
0.01186909639
0.01182618442
0.01203793766
0.01205657615
0.01200883974
0.01223222311
0.01265770288
0.01232609863
0.02032030148
0.02107656238
0.02040091805
0.02709381255
0.02513724094
0.01961043337
0.01835610447
0.01967804278
0.0120024731
0.01924035247
0.02041159672
0.01386713099
0.01925280115
0.01287942406
0.01318650602
0.02093645085
0.02118222896
0.02045603775
0.02079863757
0.01299995346
0.01422583787
0.02467963504
0.02424847618
0.009364476821
0.009372048044
0.01044669045
0.008055463226
0.009145676798
0.009244605658
0.009342083774
0.009055221036
0.01125782173
0.02042627697
0.01825812751
0.0235760392
0.02236644922
0.01297237996
0.009434509562
0.01010450935
0.01481683953
0.006531092478
0.009622151006
0.009586856022
0.0113532013
0.009430928105
0.009629302538
0.01787041231
0.01588929349
0.009868783622
0.04672754098
0.04346856034
0.08386281359
0.07495418179
0.04358807928
0.06437401357
0.09044037652
0.08674292322
0.03585555044
0.03291998081
0.03109413387
0.02335621348
0.03033847597
0.04436421825
0.04512080138
0.0392039589
0.02328505101
0.03335286833
0.03385031102
0.03032368618
0.03135831534
0.0219321241
0.01510697598
0.01624290543
0.02488946543
0.01771730398
0.01682241994
0.01890013042
0.0179167677
0.02526161133
0.01716118204
0.01787587583
0.01413726239
0.0183934606
0.04775127542
0.04794954117
0.03051956694
0.03017649197
0.05088141125
0.05087269163
0.02904039721
0.02864224685
0.02982145217
0.0293939069
0.0597474741
0.05913335494
0.035658623
0.03749910794
0.06094881617
0.06035255068
0.05478459309
0.05421603363
0.0321188851
0.03322664779
0.05597214528
0.0553745484
0.0104137172
0.01658644332
0.0166110462
0.01656635055
0.01659360806
0.01036664094
0.01065800554
0.01541596951
0.01339795479
0.01652807501
0.01624216201
0.01065977691
0.04265841242
0.02503274232
0.0253015241
0.02461474543
0.02481817401
0.04241071049
0.04400335948
0.026234289
0.0267108931
0.02556413672
0.02587274759
0.04352168171
0.04033944817
0.02340442649
0.02364332053
0.02303986252
0.02326911652
0.04010729155
0.04161163562
0.02422554968
0.02441390986
0.02380586164
0.02403943152
0.04133777147
0.02675855282
0.02657612907
0.06864520084
0.0458511123
0.04617526907
0.04514367863
0.04542559393
0.06790921844
0.02720484441
0.02700012143
0.02467382084
0.02592415848
0.05964008217
0.04138650695
0.04108003345
0.02760052163
0.02899748817
0.05318924965
0.06596919817
0.04443531328
0.0446352901
0.04371006915
0.04365923079
0.06471110963
0.02547391569
0.02552109923
0.009149825584
0.009343746514
0.00907030772
0.01099731046
0.00994830635
0.01296417106
0.009243927305
0.009209566837
0.00919617052
0.009218314421
0.0128366158
0.0174380298
0.01008959853
0.01132591065
0.009355126974
0.009156498192
0.01507326773
0.03539413561
0.05307634336
0.05277463546
0.05447507412
0.05411726523
0.03597782208
0.02101811039
0.02078120093
0.02158925654
0.02131730107
0.02131290551
0.01674441206
0.02366893906
0.04350894002
0.03891299783
0.05060948922
0.04884027108
0.03355337149
0.02587881645
0.01799255168
0.02314019993
0.0245922454
0.03885213532
0.02269134988
0.02297719279
0.02202284212
0.02274608077
0.03891952344
0.02231621386
0.02209108055
0.02313451695
0.02289128253
0.01001697073
0.01145065853
0.01110352458
0.01422279471
0.01240725202
0.01000643202
0.009631578512
0.009812497017
0.01059362136
0.0102027035
0.006580467118
0.01166539362
0.01121597431
0.01134135079
0.01219324794
0.01159030432
0.01160504374
0.01928412523
0.01923831425
0.01953428239
0.0194699751
0.02957584107
0.02956558913
0.0447834962
0.01847563292
0.01950230049
0.01900755276
0.01907200293
0.02007725386
0.03379111105
0.03343482909
0.03421076107
0.03393287979
0.02015530576
0.01952338787
0.03275361737
0.03093188247
0.03331400684
0.03273617822
0.01951145372
0.01108833662
0.04246517587
0.041894672
0.027758262
0.01324095072
0.01089626996
0.01072346249
0.008151287601
0.01119452839
0.01265461734
0.01802564809
0.01264437319
0.01339308563
0.01315110672
0.03021921473
0.01864644077
0.01885082992
0.01196103103
0.01211403729
0.01213030612
0.01270984209
0.01261989947
0.008731346292
0.008881472661
0.01265745524
0.012208874
0.01255171229
0.01511146339
0.01864471654
0.02816281969
1.154968565
1.15535301
1.15559491
1.155522953
1.156214867
1.156020679
1.156498346
1.157605081
1.156706699
1.157980688
0.9899035187
1.157614285
0.9563844735
0.8981973175
1.053810836
0.886368998
0.8445246151
1.012398047
0.8492518665
0.883234571
1.044251359
0.8999164522
0.9920792494
1.157942402
1.024764173
1.158050711
1.157005662
1.157684227
1.156654375
1.156281648
1.154688235
1.155524127
1.155332383
1.155903458
1.157433136
1.156388011
1.105715406
0.8875509954
1.14271582
0.832120977