/*--------------------------------*- C++ -*----------------------------------*\
| =========                 |                                                 |
| \\      /  F ield         | OpenFOAM: The Open Source CFD Toolbox           |
|  \\    /   O peration     | Version:  v1912                                 |
|   \\  /    A nd           | Website:  www.openfoam.com                      |
|    \\/     M anipulation  |                                                 |
\*---------------------------------------------------------------------------*/
FoamFile
{
    version     2.0;
    format      ascii;
    class       volScalarField;
    location    "1.58";
    object      omega;
}
// * * * * * * * * * * * * * * * * * * * * * * * * * * * * * * * * * * * * * //

dimensions      [0 0 -1 0 0 0 0];


internalField   nonuniform List<scalar> 
12556
(
31.93076822
31.93158256
31.93251668
31.9333701
31.96664168
31.96720985
31.96768315
31.968655
31.97062613
31.97416606
31.97962921
31.98628954
31.99091202
31.99240931
31.98935035
31.98352906
31.97767881
31.97259633
31.97020381
31.96816012
31.93466148
31.93339838
31.93220614
31.93117905
31.79383113
31.79638343
31.79900268
31.80137486
31.83545525
31.83749226
31.84018582
31.86017801
31.86937784
31.88597644
31.91164754
31.94260406
31.96682357
31.97483603
31.96197135
31.93593087
31.90748268
31.88475611
31.85427458
31.84389601
31.80611737
31.80227891
31.79884088
31.79579928
31.65881011
31.66321115
31.66785808
31.67169778
31.70620852
31.71031944
31.71668272
31.74252741
31.76509361
31.80483956
31.86517525
31.93737513
31.98376962
32.00200441
31.9716977
31.91582254
31.85218332
31.80066081
31.74855324
31.72594955
31.6817469
31.67449771
31.66853983
31.66351604
31.52503994
31.5310337
31.53715362
31.54248604
31.57848559
31.58603546
31.59946388
31.63759569
31.68536239
31.77378312
31.90449131
32.06335592
32.1654498
32.17390428
32.08579545
31.97053642
31.84915857
31.74911988
31.66266965
31.61954106
31.56261605
31.55051095
31.54129984
31.53399711
31.393764
31.4013454
31.40939446
31.41658489
31.45385412
31.46646642
31.49155741
31.54937286
31.64669573
31.83392226
32.14433662
32.53336489
32.84215473
32.77960446
32.48840905
32.19971823
31.9470334
31.75203807
31.60688309
31.52885638
31.4505554
31.43033853
31.41679227
31.40688559
31.26336738
31.27246497
31.28216218
31.29158136
31.33282232
31.3537496
31.39819913
31.48804092
31.6664402
32.06434428
32.85204559
34.24339609
35.40460354
34.87968228
33.64532511
32.79793475
32.22864196
31.84013258
31.58602081
31.45712928
31.34672126
31.31313817
31.2937025
31.28062306
31.13608228
31.1468303
31.15871155
31.17135428
31.21593446
31.24830928
31.32004351
31.45341435
31.76693421
32.55655301
34.57247205
41.00178634
47.92579838
44.57400527
36.75764158
34.09149814
32.79309221
32.05433052
31.60462043
31.40595595
31.25025491
31.19932332
31.17185214
31.15496649
31.01001289
31.02248638
31.03671378
31.05312046
31.10472525
31.15185511
31.25788608
31.44261555
31.93916214
33.27892605
37.44378986
57.96381476
75.57873548
43.92879642
36.39348358
33.71206308
32.41191346
31.67494394
31.37173464
31.16207759
31.0887752
31.05114166
31.02979261
30.88869021
30.90316574
30.92062811
30.94245739
31.00078149
31.06551128
31.20925669
31.45663835
32.15715739
34.03978465
39.90857712
70.68616671
144.6695284
54.46286233
39.5548363
34.92058711
32.88258266
31.78652866
31.35302059
31.08140891
30.98320137
30.93327496
30.90682842
30.77004968
30.78667778
30.80744993
30.83569448
30.90344373
30.9888683
31.17123496
31.48921325
32.38044182
34.67557748
41.40696766
77.62383385
181.0784309
63.68492194
42.82111965
36.22257343
33.39162832
31.92003987
31.34699068
31.00872572
30.88369731
30.82039417
30.78825947
30.65801929
30.67721992
30.70234104
30.73892899
30.81266845
30.92098757
31.14256078
31.53566611
32.60005448
35.21176397
42.59292507
87.8460777
181.1676901
69.10311119
45.45535403
37.37765939
33.8737602
32.0501191
31.34811108
30.94309473
30.79259055
30.71522614
30.67691123
30.55038963
30.57168552
30.6005908
30.64516142
30.72875681
30.86039937
31.1217609
31.59079126
32.81032388
35.69619699
43.84186087
99.35895621
167.5912277
71.22084067
47.15761679
38.21847156
34.24704936
32.15573901
31.3496968
30.88431437
30.70908697
30.61871046
30.57415343
30.44973747
30.4738505
30.50803087
30.56167777
30.65080193
30.80543916
31.107219
31.64846357
33.00793812
36.15505124
45.40917591
109.4192785
777.5479228
144.0058921
71.35472466
47.96983416
38.71626136
34.4823491
32.22302249
31.34372693
30.82939559
30.63358145
30.53060985
30.47998934
30.352692
30.37934991
30.41848713
30.48009632
30.58253548
30.7667216
31.11105943
31.72987919
33.24764907
36.74478743
47.79475658
157.5906599
482.6851054
134.4234151
70.51133845
48.14138868
38.87337217
34.57797167
32.25179673
31.32607205
30.7735267
30.56235323
30.44866339
30.39241606
30.2610839
30.29035301
30.33415701
30.40289703
30.51408255
30.720292
31.10175843
31.78311986
33.40723434
37.14724068
50.18903042
449.7242718
345.4461768
125.4848888
68.7903562
47.73699087
38.76661735
34.56351741
32.23771227
31.29408342
30.71680026
30.49380662
30.37023457
30.30957825
30.17052492
30.2022866
30.25058787
30.32684274
30.4476191
30.67325875
31.09143863
31.8379383
33.5790681
37.60371285
53.21847416
672.7953287
301.1432399
118.479595
66.78423185
47.02726206
38.48487519
34.46022959
32.18866632
31.24682438
30.65330701
30.42216175
30.29186844
30.22706509
30.08341148
30.11769001
30.16997475
30.25240777
30.38127419
30.62394552
31.07688294
31.89019716
33.79254262
38.30506492
58.05286187
779.3031774
263.1495661
111.1700288
64.28468539
46.11527309
38.15339913
34.3173987
32.11145353
31.18605284
30.58471746
30.34865338
30.21225685
30.14416884
29.99430314
30.03087568
30.08701072
30.17605229
30.31372619
30.57121726
31.05646235
31.92946165
34.02130503
39.31111473
68.28789234
808.5387013
225.6014475
103.2439452
61.60998618
45.20978055
37.80742594
34.14705353
32.01251519
31.10799558
30.5053176
30.26654059
30.12731503
30.05677632
29.90722775
29.94598227
30.00547791
30.09963548
30.24400103
30.5146095
31.03001116
31.95952597
34.20959525
40.42167982
85.62461307
721.6607094
197.0922396
96.63074402
59.56639088
44.46908679
37.46611665
33.96116192
31.89889764
31.01757272
30.41872691
30.17954473
30.03852209
29.96663216
29.81578497
29.8563454
29.91916321
30.01928953
30.17162244
30.45413615
30.99816693
31.98268245
34.39695272
41.54411511
100.3112701
636.6794679
181.0460205
92.62246601
58.10713646
43.8116865
37.13957063
33.76918012
31.77538408
30.9169773
30.32272401
30.08378046
29.94197875
29.86945473
29.72640392
29.76848802
29.83402438
29.9384133
30.09620993
30.39004358
30.96181978
32.00122811
34.59315536
42.95532412
113.1179883
564.8648073
168.9125778
89.24270843
56.93672323
43.23502929
36.83177687
33.57682127
31.64518498
30.8082372
30.22143857
29.98435024
29.84262426
29.76994106
29.63101438
29.67418621
29.74244828
29.85232444
30.0177676
30.32268863
30.92200012
32.01737147
34.8064796
44.87918975
124.6163793
503.0579768
158.8183735
86.31259772
55.95945697
42.73969656
36.54520727
33.38757277
31.51074393
30.69317139
30.1120467
29.87639379
29.73521396
29.66291772
29.53917323
29.58311929
29.65336518
29.76654075
29.93629888
30.25251767
30.87978675
32.03356194
35.0548232
47.25011954
134.7635197
449.5488539
150.2588716
83.7399377
55.10439934
42.31740479
36.28204428
33.20381583
31.37409113
30.57336705
30.00047328
29.7676622
29.62753085
29.55585081
29.43980143
29.48419809
29.5566209
29.67490173
29.85231272
30.18015313
30.83650446
32.05336923
35.37261066
49.71991065
143.5228546
402.0832931
142.8826331
81.4540285
54.33403801
41.95093914
36.04236506
33.02717417
31.23687626
30.45029261
29.88202807
29.65073188
29.51170405
29.44095535
29.34669025
29.39130738
29.46511963
29.58578793
29.76616876
30.10638908
30.79376233
32.08166263
35.7916385
52.09888981
151.0153771
360.4013964
136.4351796
79.40018207
53.62840428
41.62362847
35.82355194
32.85832602
31.10027921
30.32511231
29.76489107
29.53676775
29.39916828
29.32938478
29.24382972
29.28851293
29.36419499
29.48999377
29.67871336
30.03203989
30.75308323
32.12381402
36.31231841
54.35302091
157.406897
324.1296503
130.7277799
77.53562748
52.97486897
41.32379061
35.62177477
32.69703782
30.96499666
30.19881824
29.64086289
29.41366426
29.27724163
29.20857402
29.15120782
29.19581971
29.27254786
29.40003846
29.59025041
29.95784581
30.71586136
32.18520147
36.9080838
56.48164092
162.6211278
292.8662289
125.6177888
75.82665815
52.36395839
41.0439974
35.43347866
32.54261294
30.83140647
30.07204789
29.52204539
29.29812629
29.16315356
29.09550642
29.04511653
29.08964396
29.16816914
29.30125695
29.50166867
29.88442112
30.68341917
32.2697573
37.54830457
58.48522542
166.6874325
266.1344381
120.992392
74.24555736
51.78778477
40.77933657
35.25581954
32.39421987
30.69966405
29.94541141
29.39427554
29.17033118
29.03637422
28.96981698
28.95495212
28.99931549
29.07874755
29.21299269
29.41291876
29.81228972
30.65685614
32.37917069
38.21088398
60.37411982
169.7909006
243.4984044
116.7672216
72.77045418
51.24008294
40.52646215
35.0866707
32.25109616
30.5698266
29.8191334
29.27697924
29.05647373
28.92384758
28.85822266
28.84521523
28.88949699
28.97079343
29.11140168
29.32498425
29.74193689
30.63735267
32.51296476
38.88232344
62.15722717
172.0516543
224.4458288
112.8804007
71.38444399
50.71598776
40.28296712
34.9243924
32.11253878
30.441876
29.69366254
29.14557614
28.92398337
28.79220115
28.72757616
28.75976411
28.80390597
28.8861154
29.02753436
29.23739945
29.6738622
30.62597744
32.66912274
39.55370648
63.8309694
173.4323954
208.4068121
109.2838898
70.0744701
50.21179475
40.04706392
34.76767474
31.97789855
30.31575269
29.56891682
29.0331478
28.81521832
28.68457621
28.62074612
28.64508634
28.68923182
28.77343511
28.92202002
29.15148322
29.60854426
30.62514223
32.84505827
40.22035023
65.40068073
174.5076954
194.8315879
105.9380007
68.83001642
49.72460398
39.81734851
34.61541633
31.84655209
30.1913694
29.44538921
28.89620351
28.67635166
28.54646803
28.48353894
28.56717388
28.61126888
28.69651492
28.84607631
29.06624885
29.54651448
30.63228109
33.03833085
40.88067433
66.88119637
175.262823
183.2382235
102.8091694
67.64208424
49.25193723
39.59259919
34.46662382
31.71787397
30.06868965
29.3227531
28.79335855
28.57698943
28.44793902
28.38563363
28.44518848
28.4894066
28.57682001
28.73373271
28.98385993
29.48836905
30.65053212
33.24660756
41.53424885
68.28567157
175.6668783
173.1966964
99.86984483
66.50388677
48.79203434
39.37187635
34.32046915
31.59135636
29.94791442
29.20203095
28.64586111
28.42791699
28.29966723
28.23818055
28.37826365
28.4225899
28.51124897
28.67087529
28.90288353
29.43489206
30.67862402
33.46751476
42.17962885
69.61635306
175.7002013
164.3714865
97.10572733
65.41310418
48.34437186
39.15460272
34.17628484
31.46651292
29.82984759
29.08325429
28.56051587
28.34385432
28.21605106
28.15498307
28.22323894
28.26796281
28.35979224
28.52893663
28.82761956
29.38736767
30.71528177
33.69698386
42.80851832
70.85777382
175.3933134
156.5632997
94.53113119
64.37983955
47.91264697
38.94153507
34.03406545
31.34325593
29.71679919
28.97001865
28.37016665
28.15238812
28.02546746
27.96529119
69.95273882
170.7748282
85.4294144
76.60092575
218.3637662
177.3264887
86.54574097
215.1401618
219.9482819
97.99639172
194.091718
212.550866
108.3227653
951.3547822
811.923404
174.6687656
191.1336043
137.0606444
596.0453634
932.1937205
504.0042799
170.25619
172.7817581
55.23582875
47.41292965
77.93632679
44.27798832
521.2958165
178.839429
136.832744
59.65688585
48.13734166
41.0984441
65.51916331
61.33918734
1779.928919
1258.191523
179.0013215
73.27412547
63.45738079
42.33772171
72.15024461
66.18568003
81.16058342
233.2135134
209.2756964
997.5021216
1381.111701
182.3933727
80.81926641
75.72752057
43.59477703
80.78701674
73.19102998
91.86073391
336.4431015
269.0031648
558.7778428
744.0882465
45.09403432
91.59771488
81.85273348
101.4287735
512.6248213
411.1150069
2202.88168
362.2195693
421.0111753
47.41433144
112.8608758
93.20710636
118.0130137
1103.448388
730.2661765
158.1644357
452.132447
587.1611364
172.7890021
204.3526364
107.4436733
166.7081484
1224.305629
550.0488962
133.7926035
441.8489679
856.1112634
206.3315784
186.6456881
73.65908359
244.5675274
259.0794643
210.4167398
241.412752
1397.553254
1781.656099
200.4818255
1237.266099
1070.855866
885.4352836
1233.851201
197.8037064
265.6551895
237.1565856
82.52168814
303.5356364
348.0456587
261.2689716
300.2068822
778.275984
975.5599516
219.8833636
740.4636669
581.8315999
1059.373983
767.6097406
220.8255627
406.7818691
339.8491096
93.2581753
415.0819091
516.6310265
350.9703781
411.0330357
433.5487514
537.931556
719.4944947
522.2348027
101.770332
3175.490156
707.1332063
1068.756658
521.7996508
690.9609486
3594.116244
332.5004328
356.0670167
1926.02332
8534.997403
1112.935649
119.4263889
683.0926803
1729.113337
7546.511371
1077.527451
1699.573189
701.6665218
39.4168592
60.66362199
51.38087485
64.95478199
136.691761
93.396615
3109.848369
548.1283795
73.0911683
184.317197
162.2183288
5811.515346
169.7344492
83.21241761
81.77137113
5867.935966
806.8056249
896.1300374
616.3185962
294.3825858
321.0490722
159.2247427
140.1897502
66.52626782
1389.905843
244.4767255
572.803002
149.6401334
391.1094034
123.5190478
915.1330624
1169.432078
201.9171338
444.7370166
378.8311752
562.5140978
457.0497843
204.8983554
1331.779262
4521.256175
823.3206346
78.07858397
62.14965576
97.97301288
156.4285507
73.77840136
79.45641619
4306.043971
365.6096379
3052.001059
408.2725449
2240.257535
329.399837
1445.550685
1426.424055
1153.662113
1180.490069
2240.386945
4923.363455
628.5821112
2698.243149
1469.266923
5515.958612
3196.37856
655.6908261
447.7940288
175.4782633
183.3822346
678.6937485
769.3980327
5276.493561
787.8543727
228.7168985
242.4425849
212.2930563
223.5536672
784.7427872
1236.348415
1390.757772
186.2229819
882.6645995
713.55987
1348.362779
883.8520097
190.1076079
137.4591152
418.2195686
198.7303132
630.2734177
449.2780149
147.116363
601.0745187
902.1432705
858.4801864
812.9584457
245.8511981
1487.847608
246.3234603
225.2247245
1432.927195
1368.954661
1481.475917
1440.517266
229.0595013
1485.196403
1500.894578
1138.57308
386.0521662
376.1313624
388.0808496
387.5577611
1130.083776
1047.865712
342.7484212
313.9102589
371.2160938
351.2292303
1067.153078
323.8881513
326.7740715
277.7897033
280.188803
826.4177413
5705.363656
841.7782454
445.7266526
452.5680582
380.3221884
384.438575
1387.638899
1015.278481
486.1416888
1239.636982
2073.509371
575.0391103
198.2968126
208.4430203
186.2255774
195.1489997
566.2879238
1465.703721
752.9161909
765.6329708
559.2318316
563.9061714
6055.114845
1115.882273
581.6584657
651.2397348
248.3847419
259.8773934
1368.900065
2761.338582
1802.108773
2856.311211
1114.113378
6630.21595
3122.261023
5701.424829
1110.245532
783.7891076
4131.06024
2272.713895
3844.408643
2093.809703
2844.669792
49.56469513
119.6430833
115.8073646
173.4393619
4209.239805
7853.07227
360.7753143
156.0448983
166.8074826
1181.621441
3262.224887
4484.709077
508.2863035
559.5201831
1047.88337
269.8633107
285.7247472
599.8131463
151.0161849
110.1814203
224.4582526
433.334436
138.9113428
163.8089765
1674.074983
4155.118887
4327.443841
1343.676166
1066.106726
2979.751624
2174.542632
5012.228801
4932.134703
1317.190389
309.4800767
143.9003315
148.8950633
137.7469345
142.3109533
303.6196097
166.2450939
173.1435316
443.1039415
1018.207657
412.598375
431.687388
6419.606576
3368.241494
544.2946963
1062.136521
3764.34308
4149.425815
592.4218213
252.0983253
211.5518056
302.2106547
265.9768098
620.1104434
1438.011938
4952.773128
5020.998449
1692.984483
252.6833426
132.0931009
136.3047351
704.9166473
691.3262975
338.6090512
2054.756473
1886.134997
918.1122416
667.6447611
347.2810178
360.8936455
944.7577694
380.3634099
386.9923122
365.6493736
376.8906032
926.8968278
369.239632
158.017008
164.1255535
150.6311643
156.0896672
364.7942416
427.2592365
1016.165279
1006.291428
1603.130402
1556.42128
495.495415
362.270628
742.2864888
707.1938102
1002.012531
995.0274045
399.4676373
470.5836722
978.0393269
792.6626593
6114.648167
2220.942625
730.5697658
904.5484254
537.3177609
1636.144534
1610.455823
1642.841745
607.3844978
5136.642226
8712.327478
327.5988165
373.7485758
438.8294542
456.0294641
1121.634894
2075.096619
1254.973601
632.6133972
1747.472924
8196.36928
1877.084131
1692.155287
15919.62256
1088.145193
1617.942803
1904.935643
2320.662356
1721.060898
5768.332514
5843.91172
1415.534508
1857.969744
6080.634477
1444.649101
1380.463847
381.9708365
1421.409027
572.9661321
1412.580415
416.3974267
4461.878236
3131.954084
1032.560417
5181.181826
6004.143443
4747.499424
3449.20344
1121.356988
4893.958185
5982.02849
3409.797609
4660.062254
6344.202755
2193.378377
3053.618117
1495.68541
1946.28418
5707.6618
4391.194481
1268.408085
777.1559415
2066.057601
1396.903327
699.5142734
440.2692063
1270.847822
4507.935183
5718.921006
1591.292689
1363.455566
4376.929945
4517.74192
3272.316892
3088.657953
1091.968862
5314.149901
5214.733374
3858.388975
5167.182018
5172.804631
1281.620803
5077.967096
3365.547421
3310.412258
3722.61698
2017.077536
945.0435376
1021.13092
4220.859057
1192.891241
1350.950409
1052.145125
1146.517646
3950.634404
3916.417195
1098.662755
1301.024045
385.1808555
406.0118725
927.1238446
756.9215705
365.0742554
379.9798608
1344.508023
1357.678591
870.6070497
318.0418094
340.1157144
291.2266726
311.5542773
862.920805
934.1691031
384.3285438
418.4904024
348.2477454
374.607735
940.7276204
564.9499964
265.131437
285.2560743
815.4176906
848.9476424
2683.031922
2798.620107
1006.69466
4006.991974
4046.984739
5129.272429
2745.765974
2290.898386
3909.388209
2712.970582
682.5939765
1922.174955
2560.93749
1528.525411
526.371179
591.1575992
501.0593919
515.3939905
1492.600802
641.4242312
652.4583503
612.431156
637.4115181
1411.116298
448.9083889
462.3895842
427.0281294
444.1657088
1402.021066
1464.256606
483.9074107
496.3051584
466.7903406
479.6730253
1460.958365
4848.419955
4907.623739
1450.663841
1624.415022
5140.789973
4830.252967
962.9684726
967.9958194
936.8806679
961.3669439
980.7988662
993.5867311
969.8538767
978.1345864
669.8528588
680.579628
655.9176261
666.1932785
721.830783
893.7775065
685.7733444
698.7951346
1769.018536
2073.993371
1407.800691
1645.065339
5935.750474
3294.384837
3616.902219
2218.807576
3175.833544
1029.797722
1022.11408
431.665104
1632.354809
1637.081284
1599.657861
1622.861082
1682.516456
484.4501416
1520.382625
1083.347573
964.7534733
763.0965512
366.4563619
1042.52378
1503.445824
994.3701536
1052.532616
1563.78027
1587.676077
1523.174741
1553.750185
395.7084236
992.8821334
983.0812587
6075.294952
1475.385746
5968.897574
5145.376337
5947.282275
1582.163514
6314.404079
1955.589026
6059.27869
5277.869838
737.4412596
819.3297641
1670.002742
1641.335059
542.1774494
591.2989854
1735.220682
1672.790218
5990.830541
1162.854371
468.2009042
511.9668671
6135.169172
6939.308558
1823.13376
7527.754167
5498.887323
2347.193491
1089.832586
6603.456064
3921.553322
7310.284042
4353.932918
1560.002583
69.77939268
44.87175793
37.86792996
6012.072477
5987.385937
158.2453625
82.70534593
83.23190385
6253.913801
1071.54258
3118.003238
2232.630229
369.3546805
308.0844004
183.8460623
359.5247425
244.8863197
571.7369404
2063.231045
353.1536114
387.199376
57.28995293
67.93067747
135.8860684
454.9127213
902.5386617
1332.487525
222.1530571
121.9365639
125.5851915
117.0140411
120.7317568
218.7850395
941.2057809
1048.360613
3416.923855
756.925889
665.8324085
393.8501173
347.1711021
360.6294285
751.7653163
1448.493374
1849.036764
642.2733912
126.8473901
130.7528324
248.8111764
312.42841
657.1384543
631.3296452
609.5316554
543.8494954
290.6777542
640.7973352
328.8474355
342.7245167
4773.588176
4484.277408
2840.358936
1652.488752
1630.655971
1046.241607
4091.857431
5950.573558
5364.344604
1439.593461
831.1138526
917.8934035
1732.1302
1082.730475
1686.371193
1673.417453
1699.627823
3337.79154
5630.850985
3870.762875
4295.704793
5802.483562
1706.520755
1370.084426
817.2871156
1410.952143
197.1888301
155.8731568
280.2075976
997.7996546
2694.095092
1890.915459
6128.291461
6454.994329
6588.597704
5486.724272
6293.800635
102.6753425
132.344082
342.165385
3502.196907
2297.915246
1774.618012
4566.763783
3545.42586
2463.05147
4394.073904
4016.665156
6147.124029
5833.799939
4308.920497
857.9443207
923.6453733
1852.578515
5670.12346
3135.052363
3471.823125
4633.889145
2891.057304
3344.210123
1284.373876
1692.441273
1379.964981
877.6714471
604.3877575
612.3437357
1312.394142
822.2522942
863.7956971
617.3102251
627.6913337
896.6177685
234.7730865
259.1714174
537.7988275
677.2944529
1201.501919
878.4252568
1358.003398
1408.502989
907.3859781
1824.673515
1337.499402
1388.243771
939.9467735
941.8220744
1491.686471
1486.037418
1498.524594
1419.119846
1439.560745
1424.006916
899.2994338
902.8474875
880.7861179
886.0345691
1381.790089
1476.113177
930.4438074
933.9102021
906.7091779
910.6467057
1447.564906
672.4668567
661.2981544
315.3277322
335.7094028
687.6004863
676.0692978
513.5837216
501.8488718
270.5067664
1530.926649
1532.946802
1503.07429
1507.328907
1877.529195
1539.656674
1540.520491
287.9314756
532.7183849
518.3336872
5626.376997
5565.881364
3646.628276
3849.715265
5665.613734
5609.782901
5814.87578
899.9682219
1817.160103
1516.70409
312.6773676
324.4828357
613.1465205
548.7853117
299.8843193
309.3647338
1074.187934
1074.147782
749.7688653
768.0609283
1081.755145
1086.016476
6008.919355
1445.355222
950.8501743
938.3455343
12252.85425
2263.197297
2155.620087
4966.266904
4154.751489
1753.937597
1732.933929
1099.838595
6400.136554
6966.135345
6660.81729
5268.959051
1167.453401
1798.43732
1743.402674
3151.159509
1163.278336
1376.169619
5899.581622
5814.01129
4591.125935
4274.424807
2570.592429
1429.818101
1968.848733
1568.95137
3735.838868
5948.593474
5117.379565
6019.615342
5767.360035
4205.517458
224.8621325
321.8315388
1088.011214
4335.744039
4245.365759
4423.133897
4413.538758
4248.963459
2741.104068
2718.717896
2761.119406
2744.025325
4248.586298
5051.580175
2854.216168
2876.184221
2737.155323
2817.86593
5135.618382
3931.866844
2488.548248
2239.840662
2699.743929
2627.47588
4029.26925
4931.73896
2931.206628
2952.272433
2901.322852
2913.043396
4977.62327
4521.747298
4445.30923
4620.59514
4407.781403
1014.471719
712.621849
716.123399
1589.175972
1021.543487
1025.287319
995.5490607
1015.414321
1578.120011
5850.210785
6059.257918
5354.941514
5921.163161
1651.420805
1664.802784
1623.512676
1638.05692
2090.527259
993.4353638
1586.744333
1526.102379
1626.353502
1030.71752
1034.079793
1026.867957
1029.214107
1619.926654
1562.298079
1602.872233
1105.043748
1502.951807
2064.590814
6285.257785
5899.829715
4591.348202
6101.679669
843.9533203
1180.380012
12933.57386
1123.488165
778.8840657
782.039041
1751.24809
7850.416285
8121.08592
9381.153589
6101.666297
5762.357768
1701.723679
1690.406937
1083.512992
1664.404397
2827.847158
4045.264117
2844.272255
3775.841372
2827.013582
1153.642716
3844.741517
2887.154164
5826.824866
6034.236956
6027.814334
4619.585668
5252.409004
1409.235777
1729.047221
1280.157718
641.4667584
844.2151825
1281.919538
1376.384181
873.7379149
1254.120422
1631.946802
5832.784089
6101.011753
5744.27773
5480.90316
6223.083976
6178.548779
6045.052554
3834.226757
5364.821765
4911.403085
5996.972549
6199.29943
4243.988368
4531.9171
4967.641703
6252.069009
5139.272288
3764.958637
4082.928977
3304.112782
2375.331679
3314.231646
1754.592874
2549.722764
3420.172671
3746.638286
3457.51871
4671.848709
2940.041468
2788.411585
4009.339297
2899.309492
4323.9934
4419.984455
2780.526331
2765.031927
2806.805515
2777.057914
4446.457802
3209.185862
1914.161112
1947.829501
5253.940451
5244.517584
4501.228094
5635.023847
5443.998956
5300.45693
5250.715928
5478.993979
4226.336695
2289.208167
2553.911644
1999.753215
2099.787331
3615.239916
5862.481998
4966.289199
2827.91005
6193.61695
5930.229159
5909.814801
3924.742316
5856.597109
5667.889074
2357.608557
2663.396336
4895.587299
1322.410405
1374.503123
675.3969883
749.9761709
1266.488085
894.9865245
631.8608532
655.421681
1312.586266
1278.773241
770.1594458
1329.080323
1667.932232
852.1755197
1358.85409
1345.546397
2682.433747
1830.934914
1802.430206
2012.510406
1947.166055
2835.665231
4250.180434
3970.801614
2569.822862
3811.190686
4005.09307
3571.714932
3771.701785
2525.985039
3820.929361
3736.511189
4860.147696
3570.743107
996.9505511
989.1254895
1454.676601
1499.683539
952.2748506
948.7993816
1469.201222
1479.620509
1450.716233
1461.304634
894.0355819
896.9753087
1420.522786
1392.178136
888.8015232
891.320782
921.9651412
925.5267138
1468.997365
1455.442633
914.8537931
918.4825472
4883.746664
3006.919268
3025.255341
2965.893551
2983.208665
4865.174815
4881.188786
3328.474483
3853.617592
3063.621654
3139.523441
4856.193972
964.7679653
1515.681421
1506.388983
1528.796612
1522.654965
966.2578331
953.7069562
1474.544627
1457.770093
1497.583823
1487.120701
958.941714
985.4471166
1569.105927
1560.152949
1582.193084
1573.505906
987.7024171
972.1347875
1540.677548
1535.334889
1554.85078
1546.70584
974.5143887
1521.781103
1525.098172
673.2962104
957.9779626
955.7851144
963.4567637
961.6782708
677.3890226
1513.015242
1516.831038
1580.511653
1501.088357
742.107752
1015.237507
1024.624652
1424.394999
1373.539671
817.4426376
687.9896143
969.4804984
968.6687296
975.9369969
979.6458111
697.3673785
1549.972066
1543.144176
5570.726366
5433.975186
5743.431001
4122.003169
4788.809715
3409.383841
5449.958334
5516.99631
5433.674018
5447.014371
3477.163716
2477.99145
4688.921206
4001.840685
5348.680236
5485.244141
2870.984074
1033.910751
735.0605629
736.7037306
722.1819241
724.5773761
1022.598162
1632.726669
1645.549743
1604.922851
1620.341025
1591.497707
2009.008254
1459.254646
863.5085488
947.7978509
761.8309432
783.496748
1072.811123
1413.784205
1938.198261
1543.6173
1468.936669
1005.354591
1594.691956
1582.680543
1628.622639
1587.472471
1001.549721
1570.695354
1581.419509
1534.771361
1545.578282
5739.866277
3852.320631
4090.038653
2939.206629
3458.094694
5838.86304
5915.543938
5727.522351
4444.399783
5026.051217
6244.674402
5880.632892
4516.974748
4769.557682
3658.434466
4109.736288
6054.100127
1694.917194
1695.965885
1678.858648
1682.118664
1125.723781
1137.155493
796.1692078
1754.360848
1660.546117
1712.863008
1703.941233
1656.269173
1042.520549
1049.805209
1035.862624
1040.875235
1652.840672
1690.313793
1062.245151
1116.576264
1051.250702
1065.077809
1693.450616
5798.393626
808.5491996
813.4151977
1165.655487
5983.017218
8777.113176
9108.86563
8682.715866
8653.917506
6593.880816
1772.94582
6568.364282
4782.072778
5159.84639
1097.720822
1724.568976
1709.291465
6563.721887
7188.519922
6946.571059
5708.199079
6206.240799
7615.202793
7251.817502
4726.997809
6865.902451
5948.080243
2127.223525
1714.424981
1156.586419
31.77102832
31.78385657
31.8661935
31.78929274
31.81267177
31.88043583
31.82177378
31.85849778
31.90358484
31.87109757
31.91770126
31.93382244
31.93082789
31.96520782
31.96077518
31.97181512
31.9868763
31.97465954
31.98671826
31.97207876
31.96773396
31.96392573
31.92810208
31.94390736
31.91479628
31.87434407
31.91506369
31.86244229
31.82794742
31.89023609
31.66244248
31.68983872
31.75830585
31.70215007
31.7530514
31.79343779
31.773776
31.85319528
31.84887293
31.88285909
31.98227628
31.92144671
32.00614256
32.07196503
31.97562641
32.0913941
32.10883642
32.0027451
32.09812582
32.06615258
31.98151007
32.04484612
31.97191378
31.93066335
31.94638476
31.86823066
31.86607042
31.84376192
31.77666701
31.81112401
31.56992549
31.62670282
31.67038639
31.652634
31.75836868
31.74630862
31.80553409
31.98528657
31.86791951
32.05451289
32.28071086
32.02091831
32.32646499
32.52213518
32.15223017
32.54558149
32.57934395
32.17285383
32.51650673
32.4184393
32.10822162
32.35780743
32.18095466
32.00091769
32.12292235
31.95813585
31.87829934
31.90840747
31.78042509
31.76976815
31.50058413
31.60522977
31.61645509
31.65427295
31.87952386
31.77562659
31.98514735
32.42260668
32.05562695
32.60681805
33.33517067
32.41009289
33.49808215
34.12804391
32.79606769
34.23614776
34.25361378
32.76854834
33.9502831
33.46930006
32.55279208
33.26790336
32.75853231
32.27216445
32.61005717
32.23803991
32.00498207
32.13383332
31.88284385
31.79438408
31.45974766
31.64042617
31.60812671
31.73584752
32.18440135
31.93572885
32.40765133
33.46970162
32.60642773
34.01112786
36.8829581
33.74364862
38.02240641
44.91068655
35.18493124
44.87503477
42.17154236
34.97943948
39.78280351
36.53883201
33.89195437
35.7241555
34.08735106
32.98156985
33.70186405
32.83905437
32.34866841
32.61977344
32.11974736
31.92552717
31.44289852
31.73855396
31.65878269
31.89554045
32.67423231
32.2876734
33.09340947
35.33806104
33.86231512
36.69345814
49.40976206
38.2034875
45.46380871
52.60186832
43.12579115
66.46372643
64.11911213
47.70057221
51.07629873
44.65339679
41.66093046
41.71893944
36.70474497
34.57548799
35.76149463
33.86871589
33.04872946
33.4420776
32.52967202
32.20302074
31.4510194
31.8751988
31.766044
32.1011612
33.23776744
32.80638226
33.86050251
37.2942624
35.86699195
38.1792541
40.81766263
39.82843572
60.59707433
69.47808381
65.75316183
102.0398103
71.42853393
59.24759044
51.79304378
40.66579018
37.55024149
38.81073575
35.34618508
34.19916436
34.61330417
33.10013487
32.65631127
31.47964115
32.03441636
31.9145239
32.32442598
33.75671023
33.37361998
34.52798786
38.64463467
37.68184902
40.35589833
43.72596783
43.14898641
71.56307125
85.34497928
83.9864263
163.7668079
100.0281554
89.76892812
61.72122889
44.95343785
41.68817763
42.1579695
36.98990471
35.72342024
35.92016408
33.75058193
33.25649507
31.52296005
32.19907473
32.07566872
32.5449337
34.20948881
33.87570661
35.08452699
39.63513416
38.90480977
41.73681705
45.52784046
45.08838245
78.71983917
105.1115394
101.862482
184.1028789
115.5097104
111.4466605
68.09839218
48.39630722
45.85053989
44.94034041
38.48621845
37.35669572
37.12295589
34.36979841
33.90384799
31.57565086
32.36296102
32.24138781
32.75787188
34.61803093
34.31507675
35.57992698
40.55021414
39.84965753
42.94638402
47.27448485
46.73005892
89.15519172
121.7034572
118.2908909