/*--------------------------------*- C++ -*----------------------------------*\
| =========                 |                                                 |
| \\      /  F ield         | OpenFOAM: The Open Source CFD Toolbox           |
|  \\    /   O peration     | Version:  v1912                                 |
|   \\  /    A nd           | Website:  www.openfoam.com                      |
|    \\/     M anipulation  |                                                 |
\*---------------------------------------------------------------------------*/
FoamFile
{
    version     2.0;
    format      ascii;
    class       volScalarField;
    location    "1.58";
    object      p;
}
// * * * * * * * * * * * * * * * * * * * * * * * * * * * * * * * * * * * * * //

dimensions      [0 2 -2 0 0 0 0];


internalField   nonuniform List<scalar> 
12556
(
868.7393553
868.0834658
866.3113054
862.3536647
856.144297
842.6088226
819.6970577
782.2150451
724.9437695
641.2369896
525.5682005
376.510419
199.9383202
9.476837838
-177.0183982
-343.3516765
-481.0131416
-588.2176811
-667.6327127
-723.5407523
-770.5446206
-791.8783226
-804.2470006
-809.9978678
869.1565078
868.8442961
867.7568394
865.09534
858.9578158
847.6951281
827.688883
797.4825934
746.5109422
669.6060956
559.5929061
412.3378848
231.6462319
34.08760275
-162.967744
-338.9134008
-482.0517784
-591.890607
-680.293013
-732.8258958
-778.9507788
-797.682835
-808.6136595
-813.654422
870.0857777
870.5415772
871.0693533
870.9987896
867.4815485
861.0910562
848.0602351
822.8121413
781.3129582
713.4950433
604.0679323
440.6909196
237.5631983
15.42485328
-195.2192295
-379.6598557
-525.5742431
-629.9602784
-715.2600197
-759.0745234
-798.3133808
-811.565604
-819.2470315
-822.6643945
870.9179257
872.4593558
875.3506028
878.9739208
879.3801638
880.2707981
877.7435147
863.2278691
838.4046721
782.4761686
671.4159076
487.539795
225.8955613
-53.39644627
-292.303462
-472.5320022
-607.3024421
-700.4600737
-770.0971303
-799.0063915
-826.3604875
-831.9395794
-834.7406094
-835.7976051
870.568601
873.347947
878.924475
887.1052489
891.7884077
902.4088505
913.1336715
915.2927183
913.2257398
883.3866115
790.6980977
576.3791017
212.9823388
-192.3464889
-482.1825703
-651.1675643
-745.3925975
-801.3983321
-842.5409132
-850.356239
-859.0253563
-855.2649277
-852.1041022
-850.3273461
867.8101784
871.8196977
879.9873512
892.649668
903.3930572
923.6671226
949.4650057
970.9977856
1003.935863
1031.011423
1011.434327
821.8586865
233.6165151
-471.6237792
-819.2478785
-924.9460863
-940.1652695
-933.3250192
-927.8555913
-907.1216674
-892.4248065
-878.1086458
-868.2664681
-863.4489913
861.471889
866.5477256
876.9546535
893.5197393
910.1532541
939.4892941
979.054444
1021.408919
1095.859734
1203.868571
1353.210806
1469.093193
464.158417
-1190.049628
-1366.76046
-1281.898967
-1173.524048
-1081.264971
-1015.733704
-961.672156
-922.0814523
-896.4045527
-880.1147844
-872.4321562
850.5493094
856.3870569
868.3907748
887.6936646
909.6323083
945.5382483
995.0731183
1055.232609
1162.887359
1336.097793
1632.322741
2210.24431
-3013.726619
-2103.125141
-1657.90415
-1394.177605
-1216.796907
-1088.234489
-1004.695228
-940.4372648
-905.7995983
-884.5449462
-874.5118159
834.2897836
840.4811985
853.2103214
873.7462971
899.5715353
938.6962029
992.5986365
1063.035497
1184.049752
1365.913825
1625.616343
1939.312995
-4395.440616
-2601.582401
-1903.754381
-1536.177235
-1302.267778
-1128.128455
-1025.368883
-942.7779786
-902.844333
-878.7846028
-867.3520854
812.2953753
818.3915495
830.8902385
850.9979498
879.043745
917.7245198
970.3396187
1042.28875
1156.365203
1312.820974
1492.407697
1649.069134
-3991.700132
-2557.061115
-1907.343036
-1542.201132
-1310.601518
-1123.848285
-1017.292139
-926.2569193
-885.6939988
-861.289096
-849.6343566
784.5812109
790.1663593
801.5491381
819.5967686
848.3558323
883.2855266
930.022463
996.8501517
1094.726423
1217.93814
1344.028895
1449.979431
-2963.211825
-2138.225862
-1705.842852
-1436.619141
-1245.573352
-1075.022757
-979.9418515
-890.8575116
-854.2197156
-831.9104371
-821.1754907
751.5450186
756.2703378
765.8979372
780.3793462
808.9696005
837.290565
874.8602333
932.0988067
1009.305273
1100.892587
1192.7185
1292.911274
-1920.099853
-1588.087582
-1393.087702
-1246.073272
-1122.549315
-990.860305
-917.8657437
-839.3689797
-810.1867755
-791.8364881
-782.9147913
713.934672
717.563928
725.0910221
735.772364
760.9932176
782.1790032
808.5754656
854.0294685
908.3030288
967.9369079
1024.193566
1112.52372
-741.5008235
-981.4316059
-1065.172139
-1061.419241
-1026.258993
-971.6000922
-886.4156049
-839.0959126
-776.8362895
-756.747645
-743.2753324
-736.6882219
672.6687669
675.1095838
680.3475339
687.4413186
708.2526144
721.8831094
736.8802814
768.88892
799.6103429
825.1136312
834.7797895
862.257415
269.090264
-403.1304254
-662.6681848
-775.5606632
-819.0703576
-816.4162163
-776.1937968
-752.2055656
-709.2192259
-697.43998
-688.9311406
-684.8337655
628.7987752
629.9764658
632.6080851
635.8668511
652.4120093
657.8343347
662.0794411
678.200091
685.7642289
679.8476695
642.2961749
535.2720585
237.2938515
-159.279811
-413.5757678
-562.7800587
-644.588454
-676.2857826
-669.312521
-665.5544411
-639.686636
-635.2872411
-631.5153466
-629.763176
583.3902627
583.3931033
583.5121527
583.1559481
595.5820816
593.8678047
588.9315638
590.5147161
579.1640789
550.8039249
488.9174078
371.7572613
179.3329778
-70.94266056
-274.1854339
-418.4168265
-509.3265707
-557.9598998
-572.9807577
-583.5837853
-571.4635748
-573.108151
-573.4280978
-573.6562297
537.4905608
536.5025305
534.492402
531.0848445
539.6063295
532.0966151
519.9414521
510.8974533
484.3906195
442.6480216
374.8159708
274.2124993
131.5813811
-41.28367275
-197.2826756
-320.5275064
-406.7387574
-461.7789178
-489.0170617
-508.6949553
-506.9357391
-513.1348931
-516.6163821
-518.3147217
492.0429501
490.2656654
486.5610482
480.7635586
485.8878792
474.0585644
456.7460935
441.3844286
406.0551676
357.4460764
291.5561455
206.7509642
95.15268031
-32.59425161
-152.4886251
-252.2386033
-328.149366
-383.399869
-416.9119263
-441.8021431
-447.3934738
-456.6882814
-462.4201399
-465.130839
447.8018535
445.4308456
440.4509502
432.9106642
435.3473043
420.6051986
400.1362623
381.1329744
343.5058306
293.7743379
232.0463677
159.5028164
69.60372835
-28.65848208
-121.619947
-202.7784004
-269.2311481
-321.1003214
-356.32775
-383.2501208
-393.3733694
-404.503031
-411.6399223
-415.0390515
405.3363895
402.5612857
396.7103615
388.0263445
388.4714812
372.0368598
349.8852109
329.4191133
292.0599363
245.2413426
189.6075036
127.2012209
54.27126136
-24.19969456
-99.16435706
-166.5791684
-224.0355357
-271.0229214
-305.5669035
-332.4133944
-344.9774829
-356.9390691
-364.7920403
-368.5352899
365.0485286
362.0419355
355.6891417
346.3753689
345.4636056
328.2959923
305.6458044
285.1032642
249.4422807
206.5227053
157.359404
103.8782017
43.18619147
-20.98237167
-82.63847838
-139.0877335
-188.5342218
-230.2902622
-262.7851367
-288.3832795
-301.9445413
-313.994774
-322.0382575
-325.8811777
327.191369
324.096443
317.553603
308.0394754
306.2459388
289.0948867
266.8547371
247.0392557
213.851033
175.1539422
131.8920028
85.99544456
34.80965166
-18.5153292
-69.90258318
-117.5113336
-160.0208267
-196.7747843
-226.4698045
-250.2321845
-263.8118379
-275.4515248
-283.3220883
-287.0895991
291.8846397
288.8125633
282.3222182
272.9448864
270.6455889
254.0459018
232.8547661
214.1955666
183.8478804
149.3379287
111.3677203
71.89722626
28.34677805
-16.46608566
-59.71292283
-100.0985845
-136.6510514
-168.8036646
-195.4702383
-217.0919644
-230.0630037
-240.9837919
-248.4461214
-252.0225536
259.1391915
256.1731331
249.9129712
240.9180017
238.4073078
222.7170127
203.0099139
185.7115634
158.315219
127.7679402
94.52310797
60.54154967
23.272751
-14.67280386
-51.31275594
-85.71263002
-117.1496448
-145.1543616
-168.8072854
-188.2006627
-200.1911787
-210.2194441
-217.1303266
-220.4446606
228.8863341
226.0863694
220.1814778
211.7372232
209.2381732
194.6828675
176.6318694
160.8770573
136.3909552
109.5039894
80.47833296
51.22372011
19.22851173
-13.05334494
-44.22322154
-73.59463732
-100.6226783
-124.925414
-145.7039981
-162.9052061
-173.7164787
-182.7714118
-189.0538319
-192.0674383
201.0022253
198.4094858
192.9439822
185.1590326
182.8352347
169.5429404
153.2280222
139.0845696
117.3939763
93.85588593
68.61667939
43.44192873
15.95791649
-11.56416594
-38.12697505
-63.21964017
-86.42591702
-107.4372908
-125.5363716
-140.6500601
-150.1963237
-158.2588864
-163.8825891
-166.5798164
175.3226284
172.9631268
167.9896366
160.9280748
158.9006309
146.9288204
132.3606285
119.8329657
100.7852206
80.30386457
58.4654959
36.84029737
13.27510425
-10.18142869
-32.8060669
-54.21470768
-74.08607748
-92.17174706
-107.8046026
-120.9678004
-129.2290699
-136.3186883
-141.284144
-143.6645448
151.6555337
149.5438353
145.0913709
138.7852867
137.141833
126.5026334
113.6501424
102.70222
86.130487
68.44164883
49.66548601
31.16102119
11.04295471
-8.890755415
-28.10352275
-46.3042372
-63.24346883
-78.72200938
-92.09760351
-103.457555
-110.4534329
-116.6112885
-120.9374745
-123.0097968
129.7933125
127.9359637
124.016804
118.4758644
117.2825759
107.9593376
96.78199014
87.33698875
73.07998574
57.95048578
41.94872229
26.21146734
9.158615742
-7.682645915
-23.90259814
-39.27933885
-53.61920728
-66.7643745
-78.07646365
-87.77739396
-93.54629088
-98.82431404
-102.5401249
-104.3180253
109.521426
107.9194533
104.5345841
99.75368878
99.06040217
91.01833234
81.48932492
73.44225651
61.34817028
48.57477635
35.09894796
21.842401
7.543088012
-6.549678672
-20.11237446
-32.97534457
-44.98880475
-56.03087677
-65.45709472
-73.63119182
-78.21851238
-82.67160884
-85.81016138
-87.30951888
90.61590637
89.26804251
86.41235446
82.37433332
82.23685846
75.42316433
67.48037863
60.77608693
50.69867399
40.10275612
28.93949468
17.9381915
6.134766971
-5.485388616
-16.65995357
-27.25970589
-37.16901764
-46.28395869
-53.99916087
-60.76022735
-64.20498884
-67.8882438
-70.48271519
-71.71901531
72.88105519
71.78214743
69.44743546
66.13350977
66.57046226
60.9401989
54.45508858
49.13361645
40.9279689
32.35397817
23.33287114
14.40323523
4.884037952
-4.483891377
-13.48510134
-22.02355719
-30.01313073
-37.36595146
-43.46645124
-48.93122911
-51.28442739
-54.24532357
-56.32708475
-57.31640332
56.01405919
55.16898472
53.35503479
50.73464754
51.8973672
47.35588708
42.2267846
38.29029697
31.85020185
25.17224193
18.15305558
11.15335266
3.748965251
-3.539301215
-10.53525883
-17.17183135
-23.39170309
-29.14695329
-33.6645166
-37.93422597
-39.18040853
-41.47586835
-43.06813736
-43.81726791
40.1270272
39.50922765
38.20338866
36.3250324
37.74270463
34.46811436
30.66793781
28.06272555
23.30118987
18.41735675
13.28652755
8.113894177
2.69333658
-2.645585324
-7.763339226
-12.61850245
-17.17922913
-21.41755257
-24.46378711
-27.5563291
-27.93916858
-29.55798005
-30.6852528
-31.22158259
23.84875082
23.55153282
22.77628477
21.64474019
24.23445291
22.10892288
19.58534489
18.29051496
15.13418768
11.95611851
8.626503108
5.213793779
1.685641501
-1.79581295
-5.12561275
-8.284814075
-11.26310604
-14.05570095
-15.69098167
-17.71381759
-16.65467964
-17.62470829
-18.28824751
-18.54820757
12.02840732
11.73845561
11.3284735
10.68570793
11.04962355
9.952413611
8.743724759
8.83239336
7.220532219
5.645290253
4.064106793
2.3895116
0.7025479819
-0.9797105942
-2.579739774
-4.098710329
-5.540157156
-6.916872412
-7.112075265
-8.032877993
-8.076291909
-8.53875475
-8.846702236
-9.071666616
1988.133844
-4723.081687
-3208.030495
1678.433208
-4353.214607
-4765.337241
1471.270611
-3223.977518
-4232.819928
1312.805423
-2090.566913
-3076.023877
1126.311241
-792.7670821
-835.8700644
-1093.459118
-1957.102223
891.2746473
355.8451257
-745.0710673
218.2341266
-411.9865558
-982.6758993
2164.153753
707.0643811
-2838.092883
-994.7770658
-6392.191038
-4228.870346
-4345.743034
-2795.014544
-2270.660599
1528.836893
1661.862796
1900.636041
-6209.746682
-6643.106987
-4093.994093
-2875.595572
-2882.386852
1381.178147
1460.855043
1633.669437
1566.877861
1599.286121
1706.171795
-4490.286241
-5368.359383
-3097.965247
-2436.252276
-2800.188195
1231.470024
1299.303748
1439.298862
1389.964577
1426.671403
1490.955346
-2928.052848
-3585.678167
1068.598436
1121.793054
1279.151018
1221.044484
1279.646638
1352.551287
-1600.793147
-1572.546063
-2146.080562
882.9156018
890.9160049
1096.152201
1015.528657
1064.055388
1176.369445
604.1555997
351.1339513
368.9665577
2492.438513
2073.292775
2965.434159
2574.149103
-6662.459891
-6442.925138
-4354.819689
-6153.039372
-6490.668396
1720.822331
1829.140099
1775.807974
1833.309152
1724.155833
2034.285395
1851.534245
-5422.028262
-6170.706818
-4583.328079
-6037.794331
-5331.254083
-6474.72854
-6075.251128
-4623.232979
1501.384254
1585.130406
1541.337425
1592.522276
1502.716331
1716.474729
1600.337462
-3683.705747
-4428.828729
-3668.280261
-4323.047041
-3612.687019
-5278.59306
-4434.950025
-3815.069253
1357.569534
1422.87695
1370.771995
1426.191726
1361.774571
1497.142275
1429.754727
-2230.469439
-2837.934413
1183.056021
1274.485087
1209.439081
-1554.199277
1279.713394
1188.096932
1356.63329
1284.930098
-1595.569963
-996.9531048
-1493.922925
-1550.109023
1030.04479
1055.72397
999.3758817
-18.67242392
1061.293167
935.8875599
1181.437797
1068.83475
-93.18048109
1647.389675
1941.604093
2090.929359
2182.898109
2522.595999
2814.982787
-8253.574514
-5420.906185
1812.263951
1847.775845
2033.962427
-3500.033025
-2045.658514
-1807.930428
-2286.683571
-2011.289439
-1964.506448
-2266.094739
-149.9558944
-473.7685753
-854.1699327
2071.80736
2452.951144
2140.225418
2196.841535
3848.397353
3393.233073
-4005.343881
-6022.099128
-4136.403089
-2315.708697
-2641.707432
-2503.090094
-2794.903442
-2205.708026
-3518.344152
-2882.28879
-2643.973099
-1144.215616
-265.591327
-431.6659658
1102.267583
2066.762483
2915.472424
-3731.359035
-1214.772243
763.3887483
-8347.160145
-5835.485029
-8007.059405
-5144.935517
-7857.576345
-5505.143423
-6413.40788
-6444.774824
-4903.986583
-4963.585527
-3086.993037
-3423.49501
-3203.266848
-3405.111149
-3059.684403
-3840.230002
-3457.241645
-3297.39575
1313.876063
1284.699447
1253.083432
-1597.840718
-1872.919257
-1928.934721
1121.088618
1087.706615
1040.585724
1143.606417
1102.257433
1127.863941
2548.360403
2234.028194
2277.604586
2242.411355
2568.34277
2030.880999
2207.581475
2218.388136
2898.966705
3325.21692
3695.63948
2633.688123
3229.118091
2826.425752
3277.202043
2626.829931
-6675.264214
-6668.083598
1780.820667
1844.979525
1773.127018
1940.175629
1919.041771
2016.812124
1850.452667
1908.647924
1914.889554
-5771.221438
-5818.188551
-5718.12685
-5118.166033
-5300.070165
-4823.284683
-5049.511237
-5672.025505
-6311.102635
-5505.93139
-5546.535308
-5351.482845
-5476.50188
-6281.329984
1547.096235
1540.622931
1662.629362
1654.101562
-3990.75379
-3882.97851
-4044.679277
1396.956916
1392.384073
1462.240033
1457.826093
-3007.116126
-2668.833659
-2573.142832
-2687.666717
-3028.044117
1223.715316
1194.473021
1156.600752
1241.962731
1206.814423
1231.030152
-1194.291212
1235.077303
1227.280949
1322.134587
1317.924081
-1935.617055
-1197.387166
-1237.93285
-1507.285751
1023.2703
969.7536171
930.0684127
950.8134381
496.2954084
208.1535178
1133.649558
-253.1037524
166.4845526
-167.5815527
1127.548367
-341.3036001
-202.6393264
133.7012357
-6904.239774
-2166.743455
-2325.253189
687.5171446
637.0652858
856.6548809
746.6613407
771.5304126
977.4703711
249.3276144
-105.3734706
-297.1633158
4722.490838
-2358.152066
-2533.056032
-894.2257476
-1149.436252
-1148.698814
-120.8202498
-368.122337
-78.75538244
1695.306781
2763.748993
3787.919985
-4767.144534
-1533.439752
773.6022912
-6307.307235
-7180.968742
-7047.093529
-6567.40364
-4665.235312
-4857.941791
-4652.98617
-5636.925865
-5457.823859
-5200.572021
1455.50612
1435.960325
1408.241731
1475.79268
1445.574983
1460.242332
1324.590505
1294.810496
1318.347624
1089.121176
1075.195335
1049.288432
883.0752339
670.2988199
406.8595927
-6679.745506
-7217.779122
-7232.668235
-6477.4443
-5401.74153
-5133.947702
-5541.355065
-5456.576028
-6479.379827
-5577.77391
-5862.033584
-5698.469472
-6031.940755
1534.348128
1519.664754
1486.341116
1508.981277
1523.337296
1518.066058
-4588.919549
-4398.014724
-4260.247604
-4005.813605
-3759.893643
-4029.381376
-4891.362508
-4483.157795
-4741.581981
-4120.448751
-4393.627436
-4834.260424
1388.902066
1362.683614
1334.314803
1399.213982
1371.962886
1393.425395
1414.944676
1428.427115
1436.144749
1374.115633
1393.723944
1376.285965
1481.928307
1487.01315
1503.718013
1438.345269
1446.992941
1440.908675
-2486.713508
-2622.678117
-2310.682901
-1387.473527
-1398.818416
1263.077642
1197.919038
1340.810238
1348.612955
1369.513653
1317.945
1299.273471
-1731.598132
792.8381178
954.0586211
916.0714615
1040.029717
1008.483507
1021.161042
175.3275394
405.873171
172.3333533
1029.095491
453.5749818
716.5279267
533.3701592
579.8226442
1156.569721
1094.406545
-7577.391616
-6660.821374
-7217.091179
-3645.106337
-3711.586436
-1977.805854
-2118.824705
-2126.224217
2118.17926
2093.787395
3797.247171
4304.774531
4458.403149
4138.128469
3719.617548
-2715.07901
-2538.037767
-2498.56999
-2538.500074
-2732.605321
-1149.646266
-973.2626118
-991.4498112
-975.6159801
-1150.258332
-753.8730521
-926.9896522
-512.2230974
-543.0881553
-705.2279369
-335.5608886
-490.4333143
-412.1489738
-8267.523068
-7186.72651
-6750.140079
-7478.632935
-7286.562058
-6568.022904
-5852.222109
-7051.164818
-6801.059068
-6689.07724
-6332.22015
-6538.524923
-6995.9391
-6848.381327
-5121.588769
-4925.093316
-4725.368207
-4983.190666
-5186.426
-4714.625884
-4921.340633
-5252.529833
-5142.181896
-5400.408889
-5188.644146
-3228.721128
-3293.046961
-3262.753297
-3181.998807
-3325.547248
-3685.750052
-3577.344376
-3731.475473
-3373.512397
-3526.577495
-3629.176749
-1801.309975
-1782.615314
-1926.830997
1106.211322
1083.443538
1094.263518
1145.799084
1134.269168
1113.829496
2391.939184
2348.217977
2358.789762
2378.170624
2264.317458
2565.171789
2420.973801
2404.519388
2098.614221
2118.632542
2053.215908
2230.776858
2143.700787
2124.237866
2860.924389
2796.222879
2623.187534
2968.152378
2869.74947
-7312.598742
-7230.427368
-6682.614385
-7408.48178
-7538.096395
-7364.330084
-7536.987387
-7539.043054
-7590.195219
-7526.40904
-6608.512096
-7289.370464
-7342.387555
1810.442054
1810.131609
1790.24386
1842.619916
1818.109936
1820.224703
1761.722899
1744.203091
1785.045052
1767.367746
1955.307095
1970.111224
1930.798686
2034.77616
1984.872416
1968.340227
1876.133663
1878.234341
1850.892095
1919.14598
1888.033624
1886.296795
-6062.178996
-5914.420672
-5627.732497
-5976.480581
-6280.267574
-6104.058999
1571.069766
1552.959224
1599.370799
1576.413027
1524.598107
1511.32907
1546.149686
1528.869468
1703.274817
1676.394763
1737.455473
1712.213714
1631.685567
1606.328993
1667.447491
1640.749509
-3988.832586
-4159.669043
-3784.990644
-3939.074679
-4030.721873
-4447.582816
-4643.948567
-4213.674332
-4388.801206
1406.821198
1423.89964
1410.739049
1429.325475
1409.282085
1439.077719
1434.37148
1405.095543
1379.982373
1395.196128
1402.191954
1469.19692
1481.605823
1476.499372
1484.483367
1471.576244
1505.96328
1489.185307
1447.892182
1440.447319
1464.399951
1451.216203
1444.904375
1450.525052
1463.989844
-2735.604567
-2836.115465
-2900.112597
-2723.998063
-2952.712481
-2881.465393
-1159.975478
-1351.881977
-1375.48111
-1160.672997
1257.374016
1206.046002
1331.324589
1343.034439
1335.750298
1304.385786
1323.542609
1328.96891
-1817.955256
1004.777237
996.707078
962.4038651
633.4301999
548.3431766
1014.669836
286.1086264
433.8727402
335.4016929
1147.853385
-404.0780251
20.29509957
233.470193
-22.86939755
1093.189321
-2709.443191
-2036.776357
-1370.198319
-2308.71784
-2363.424923
-1116.334161
-1192.064437
-1647.272413
-2369.190145
-942.2392393
-925.9000191
-761.64441
-2123.669608
-1601.971287
-1568.622371
1914.327659
3357.758339
4437.547645
-5627.13803
-1928.470591
839.8126349
-1845.450652
-1510.016865
-3589.996665
-6144.907436
-6949.659636
-7169.865932
1644.601439
1622.950947
1581.804482
1681.171498
1637.261833
1660.166486
-1590.130553
-1733.755225
-1739.266689
-2219.417934
-1947.599377
-1895.783264
1161.586885
1141.619622
1153.591265
-7224.322629
-7284.607582
-6590.624047
1568.672353
1531.434562
1546.254235
1572.325095
1576.058634
1598.122797
1605.35068
1629.688673
1622.448292
1197.033365
1186.37372
1168.404985
-1566.080906
-1519.386432
-1509.547153
1192.762251
1200.09619
1193.843846
-1667.143988
-1677.249576
-1577.557395
-1399.420633
-1395.770501
-1541.705565
1052.437497
1174.781447
1181.241527
1186.648537
1073.834367
-8160.271339
-3537.052823
-1993.388321
-2063.933355
-2068.80211
-2307.971806
-2158.702896
-2127.379897
2164.372433
-5003.926163
-4486.676677
-5405.81417
-2452.953872
-2505.150358
-2351.958538
-751.3367233
-765.4220703
-586.6358605
-593.043727
-694.1386278
-2382.813925
-1888.68583
-4602.694242
-8165.562369
-7728.235197
-7577.515971
-8040.066826
-8042.143841
-3134.69336
-3167.044809
-3116.999967
-3439.242246
-3437.268825
-3409.931616
-2988.709252
-3131.110797
-3205.222226
-3802.967368
-3748.764178
-3802.217134
-1924.211764
-1902.501337
-1934.529044
2487.984169
2560.705261
2271.241441
2278.928777
2288.015557
2251.618697
2045.731463
2059.842972
2041.120997
2217.557003
2186.264523
2176.064626
3050.849009
2862.922173
2949.689564
3166.857012
3179.616018
3325.915027
2623.579082
2690.776305
2698.780963
1795.947961
1794.105369
1794.396164
1843.803484
1836.301171
1837.913471
1761.498309
1757.345897
1791.112572
1784.548638
1931.815023
1935.72898
1923.623567
2023.777382
2006.781233
2000.910948
1856.434895
1857.945398
1850.673582
1912.768919
1903.709261
1901.423664
1551.591988
1569.950202
1565.271569
1523.897652
1528.156829
1545.258699
1672.997508
1698.937292
1685.944525
1691.965783
1682.446119
1752.054019
1743.336928
1615.063004
1673.024358
1663.695766
1630.853585
1638.352901
1664.313765
-4164.16598
-4233.404232
-3856.361791
-3920.07544
-3944.218966
-4299.277175
-4315.145286
-4202.896952
-4339.83856
-4170.464955
1211.774634
1192.967343
1203.244153
1251.775294
1236.971199
1218.613933
1238.840836
1248.152871
1243.130482
1219.967345
1223.242869
1230.460675
-1936.287144
946.8525772
957.5900247
937.7645964
684.6383641
955.4207376
376.0820208
499.0329602
613.815344
1139.474295
1142.111484
1138.214816
-317.0574633
-160.1580347
-139.373912
-155.2148834
1119.367479
1125.877995
1134.174309
-58.38304014
-140.9321962
-284.3752368
-2201.113085
-2245.927195
-2349.651011
-2301.749749
-2280.993751
4816.063726
5005.721002
4696.60497
-2415.8712
-2440.984917
-2357.595615
-2550.551296
-2494.734832
-2484.070584
-3089.64486
-2341.402516
-5344.268873
-6565.398376
-6575.391124
-6484.217154
-6529.236496
-7134.055244
-6959.648302
-6998.9603
-6883.175383
-6922.055876
-7091.488258
-5581.193542
-5497.081523
-5554.377594
-5374.467206
-5438.606217
-5522.922095
-7265.495775
-7064.752699
-7048.767035
-7036.454989
-7060.346437
-7268.910951
-5804.773008
-5718.284269
-5771.531849
-5611.593635
-5665.264056
-5753.628964
-6405.863669
-6444.78294
-6294.910773
-6352.713696
1431.545686
1426.947358
1423.388756
1379.144289
1375.742842
1370.339702
1386.790655
1381.815205
1386.17299
-1519.927629
-1573.766527
-1383.22402
-1465.325304
1277.30698
1274.637244
1286.778905
1280.721369
1200.521411
1196.187859
1202.277694
1195.748916
1355.545775
1353.003327
1346.822299
1365.230006
1359.451004
1363.183382
1298.265242
1294.724458
1310.776599
1294.631009
1301.787656
-1737.328129
-1731.731472
-1722.567767
-1578.013652
949.561372
983.7660074
1088.783666
1034.597007
1028.076288
1015.02564
1042.341156
400.8390766
387.9863314
1063.73345
948.4577358
731.419677
1157.941517
1171.506163
1166.531078
1083.844111
-8009.238195
-8314.336552
-7898.800886
-7469.15823
-7082.016559
-6230.953843
-7865.01809
-7541.443257
-3584.27788
-3732.51906
-2125.342316
-2115.020599
-2121.536256
2139.865956
2066.014226
4419.259848
4232.793898
4139.467286
3641.591344
3499.689905
3989.917274
3798.157395
3933.806777
-2621.066562
-2550.747049
-2675.030456
-990.2238887
-985.9835563
-975.1575221
-1092.404769
-791.6024713
-768.434736
-756.5764973
-915.2147879
-854.9848083
-855.1120203
-520.0046502
-575.2759751
-570.5660197
-394.2248343
-401.4693402
-447.8812549
-7938.208713
-7841.931044
-8225.084994
-7418.329738
-7741.322198
-7783.139963
-8063.45382
-8044.068898
-6752.115372
-6636.455147
-6673.319204
-6589.474356
-6603.976375
-6708.678507
-6942.407778
-6796.81353
-6841.159332
-6713.280053
-6753.966218
-6894.500575
-5056.959121
-4982.5765
-5045.800395
-5048.365985
-5120.601073
-4764.640353
-4794.011372
-4762.213346
-4859.731361
-5324.347747
-5364.695698
-5320.698855
-5237.177548
-5306.585699
-5110.901716
-5175.758437
-5259.65694
-3267.457195
-3179.760262
-3171.887875
-3193.887322
-3129.620186
-3186.566019
-3360.26711
-3385.053591
-3320.14884
-3645.413467
-3689.664587
-3714.389471
2438.53147
2308.238303
2106.400359
2081.025975
2066.645343
2148.959968
2158.035603
2131.919912
2960.568803
3059.180962
3069.127015
3361.1725
3230.668116
2778.037642
2769.531149
2862.146392
-7278.24071
-7073.755393
-7090.11177
-7052.482436
-7059.742541
-7250.741782
-7451.007254
-7489.891159
-7565.635119
-7841.055445
-7784.431716
-7871.943393
-7886.365194
-7566.952518
-7600.292885
-7755.507824
-7754.324087
-7540.425125
1810.907583
1803.789808
1803.244436
1829.565356
1828.073311
1819.428885
1769.369205
1765.331128
1778.470345
1773.657868
1960.612219
1947.983143
1943.805829
1983.916827
1990.065985
1974.500615
1876.725146
1866.786931
1865.284473
1894.559436
1895.260489
1886.3377
-6017.40677
-5923.148626
-5968.323966
-5822.519934
-5873.327915
-5964.148531
-6222.831782
-6133.165125
-6218.527728
-6012.707931
-6065.247287
-6158.283701
1565.59575
1567.087366
1571.630183
1554.332969
1561.348051
1559.547789
1590.830899
1589.149007
1599.612046
1575.478169
1580.703139
1582.773677
1520.510916
1522.376153
1525.621729
1514.042308
1518.595797
1516.14631
1539.70384
1539.593823
1546.702082
1528.964583
1533.56456
1533.835432
1711.3147
1701.672419
1694.359316
1698.240729
1707.455603
1679.655427
1688.930127
1685.381969
1731.879175
1721.020605
1636.419076
1628.108281
1622.799526
1625.373939
1634.042226
1607.093959
1609.998755
1613.017127
1658.535291
1661.326715
1670.459605
1643.280718
1652.280544
1649.649113
1654.590428
1645.576402
-4076.36138
-4111.935315
-4011.010467
-3978.400541
-4006.477285
-4504.275365
-4535.583746
-4486.162564
-4682.573092
-4599.744861
-4568.592799
-4260.849388
-4293.752463
-4263.325441
-4433.114207
-4380.263508
-4324.787701
1411.92439
1408.679614
1403.63257
1419.073805
1414.0003
1417.9658
1421.745516
1414.566009
1437.953668
1436.563113
1402.376243
1393.232724
1388.381654
1388.872658
1388.176887
1398.731456
1394.458234
1399.018523
1472.310423
1476.52052
1487.189807
1474.94319
1500.25633
1502.253043
1508.393919
1491.583004
1496.703187
1494.721432
1444.832424
1442.314263
1458.578293
1454.605162
-2842.190299
-2825.919758
-2889.367001
-2718.103894
-2768.635787
-2803.030272
-3021.470212
-3066.778417
-2935.623155
-2941.143392
-2952.758978
-1310.767614
-1316.840076
-1371.411439
-1177.791678
-1241.939897
-1248.72741
1252.987419
1241.778501
1270.916378
1263.763816
1210.464914
1216.158177
1212.694923
1218.730081
1213.323302
1232.652294
1225.453814
1334.579849
1332.680932
1329.000777
1341.454643
1336.807655
1338.467284
1326.166322
1320.01914
1315.856906
1325.794911
1322.958373
1327.530369
-1878.292025
999.6263677
982.5967022
986.2795161
594.4296045
607.1761668
662.2896869
552.0740142
558.2337222
543.2130771
998.7777467
379.5929248
330.1801539
265.2423152
1142.23863
1143.740054
1147.752827
-383.2226887
108.5163506
51.99309007
217.2514417
207.3591736
218.4949957
34.98423866
-96.78463015
-77.41476737
23.2893365
1104.986485
1118.371178
1111.462298
814.8661133
783.7355683
762.0771917
770.3225096
720.4394268
692.4720472
699.5064376
622.8370041
591.3205913
591.0000524
477.3364299
453.1583223
432.8536211
287.2973537
278.6835661
236.1813164
78.1586824
82.13197033
24.10660885
-132.1455638
-116.3518588
-182.7123176
-323.0416708
-298.1770513
-366.1429928
-478.6303128
-449.2502676
-511.3353853
-593.7938157
-566.7534205
851.8682362
831.571778
793.8436604
822.2588905
781.9494874
733.6824923
762.9835837
685.1032477
636.4963911
651.2442067
524.0931303
486.6778308
472.2462253
293.8073738
290.3265845
229.6303524
33.1304377
70.82027144
-30.64036723
-207.4394437
-144.4518401
-260.4761868
-400.9938187
-336.3807433
-442.1857632
-550.9307406
-493.0583425
-582.2429542
-659.4905529
-607.1067934
901.6632854
896.9147145
846.5250382
892.8123978
868.1655408
800.7463405
854.2264166
786.9146567
705.5932187
753.5069957
609.2233525
541.4858522
544.7974986
307.6138404
295.3231525
214.9203003
-63.16461726
14.47035748
-149.0013493
-366.1285451
-238.1560176
-424.0532848
-560.4805422
-432.4490443
-596.6606528
-683.0547996
-576.8527082
-705.5063889
-759.3593063
-681.3838017
957.2215645
975.1028675
915.516092
980.4529671
990.1198687
894.9471755
989.6492836
964.3597184
822.6555316
943.8013756
813.0181479
644.995563
736.3357605
376.0473674
318.0336777
222.3248497
-248.1818882
-98.09644183
-379.5350416
-657.3134667
-423.1769766
-717.1777846
-828.9094245
-616.7203934
-848.4883092
-881.1436856
-726.7930782
-886.7378133
-896.1318607
-790.0188041
1009.840852
1056.082206
995.6363222
1074.13354
1137.065857
1025.910028
1161.098078
1238.016793
1024.782687
1261.742112
1284.35718
898.4400311
1249.376271
634.7859379
419.0516226
435.9895167
-725.9020095
-323.6462437
-927.4518002
-1188.028378
-761.3723517
-1208.490471
-1200.454606
-911.7909101
-1186.229893
-1132.631689
-939.8754445
-1113.879873
-1060.649361
-935.5580988
1049.013675
1120.4356
1074.429986
1150.125734
1263.333898
1173.161857
1311.413709
1502.009289
1312.670348
1587.231736
2052.337461
1458.482929
1767.840406
1826.785278
1304.575198
558.5823619
-856.3408678
-303.1242836
-1639.697384
-1593.534137
-1298.782371
-1918.526006
-1641.966713
-1308.428304
-1569.522412
-1392.204045
-1199.836844
-1343.491216
-1220.574067
-1102.439207
1064.002945
1147.862236
1131.170027
1182.626363
1313.903761
1284.381512