/*--------------------------------*- C++ -*----------------------------------*\
| =========                 |                                                 |
| \\      /  F ield         | OpenFOAM: The Open Source CFD Toolbox           |
|  \\    /   O peration     | Version:  v1912                                 |
|   \\  /    A nd           | Website:  www.openfoam.com                      |
|    \\/     M anipulation  |                                                 |
\*---------------------------------------------------------------------------*/
FoamFile
{
    version     2.0;
    format      ascii;
    class       surfaceVectorField;
    location    "1.58";
    object      Uf;
}
// * * * * * * * * * * * * * * * * * * * * * * * * * * * * * * * * * * * * * //

dimensions      [0 1 -1 0 0 0 0];


internalField   nonuniform List<vector> 
25162
(
(99.99911888 0.003427856311 -2.103462608e-21)
(99.99678982 0.002904405774 6.226499714e-21)
(99.99840573 0.009273551021 -2.079470484e-21)
(99.99452829 0.01088291956 2.094810535e-21)
(99.99697525 0.02020277328 -4.150581362e-21)
(99.98977222 0.02580952216 1.251181218e-20)
(99.99845226 0.0251451618 1.296317375e-21)
(99.98070141 0.05373327696 -8.271347577e-21)
(99.99143482 0.05651567592 -1.380835148e-21)
(99.99715666 0.04661808266 2.008014934e-21)
(99.99912633 0.02818124348 9.983238137e-22)
(99.98973538 0.08196225267 1.998931324e-21)
(99.997641 0.04702248807 9.806474109e-22)
(99.99825572 0.03604425078 -1.006250382e-21)
(99.99704206 0.0609106486 9.806073583e-22)
(99.98377713 0.1384295363 1.953914525e-21)
(99.99670473 0.07825990883 0)
(99.9964729 0.0976313986 -3.62290305e-21)
(99.97836954 0.2174100983 -3.622884194e-21)
(99.99594535 0.1207693374 -9.422688811e-22)
(99.99532035 0.1477690181 3.158789558e-21)
(99.97115058 0.3254310533 3.46351236e-21)
(99.99471287 0.1786566119 4.280037636e-22)
(99.9941864 0.2131403217 -2.895634099e-21)
(99.96500448 0.4632253655 4.101259679e-22)
(99.99380893 0.2505923388 -2.996659802e-21)
(99.99368663 0.2899126874 2.374860761e-22)
(99.96324346 0.6196995931 -2.027930286e-21)
(99.99394984 0.3292473387 2.657742704e-21)
(99.99465293 0.3662667796 2.311639439e-21)
(99.96996475 0.7669734482 -1.03584961e-21)
(99.99562357 0.3984750714 0)
(99.99671474 0.4234631341 0)
(99.98515973 0.8644733023 2.619954103e-22)
(99.99819232 0.4393764294 0)
(100.0001981 0.4454601681 1.791100911e-22)
(100.0044146 0.8881298566 -4.952399247e-24)
(100.0022367 0.4407769167 7.589645554e-22)
(100.0036899 0.4258865686 4.50548855e-23)
(100.0219669 0.8300828707 -4.986144163e-22)
(100.0045702 0.4023872456 -8.258365803e-22)
(100.0052585 0.3726777443 9.436721034e-23)
(100.0315401 0.712994789 1.59785609e-21)
(100.0057355 0.3389653978 4.068562026e-22)
(100.0058666 0.3032474866 0)
(100.0334711 0.5707712349 0)
(100.0057355 0.2674621508 0)
(100.0055771 0.2329359494 7.405235501e-22)
(100.029835 0.4337578828 1.545135832e-21)
(100.0057441 0.2010432432 -3.756906177e-21)
(100.0056192 0.1700049476 -1.386770453e-21)
(100.0254836 0.3114383885 3.056195962e-21)
(100.0048812 0.1427700206 3.055967904e-21)
(100.0036584 0.1196760787 -8.752021612e-22)
(100.015494 0.216843865 -5.903183687e-23)
(100.0008819 0.1031249852 1.697189897e-21)
(100.0100547 0.1019029311 -7.651017543e-21)
(100.0566276 0.2488639928 5.88612989e-22)
(100.0198715 0.2212968292 -2.735763808e-21)
(100.0032143 0.1033758459 -1.606901631e-21)
(100.0072547 0.05975044489 -9.676713237e-22)
(100.0394219 0.1541708181 1.532681149e-20)
(100.0061194 0.02814390478 -7.778592498e-21)
(100.029697 0.08317632435 -1.634328509e-20)
(100.0265229 0.02644164352 1.520880476e-21)
(99.99169461 0.009256341638 1.040132222e-20)
(99.98809247 0.004023720884 2.550988423e-22)
(99.98476067 0.0254200876 1.664149639e-20)
(99.97938434 0.01627164159 -1.453019761e-20)
(99.971923 0.05600297305 8.713151676e-21)
(99.96115726 0.04143967411 -2.259245422e-20)
(99.96436941 0.09897920859 -1.45930901e-21)
(99.93107333 0.08947914393 4.347966603e-20)
(99.93811784 0.119201311 -9.596676187e-21)
(99.94616336 0.1286001101 -2.057485493e-21)
(99.95827424 0.1298285478 4.069591958e-21)
(99.97503 0.09107243358 2.020996805e-21)
(99.95848706 0.1602025169 1.981441274e-21)
(99.94521483 0.1730805865 2.01280396e-21)
(99.90736292 0.2308412178 -4.059242452e-21)
(99.93072994 0.2277359074 -1.621647402e-23)
(99.9345638 0.2698665141 1.954221167e-21)
(99.91347263 0.2958192286 -1.56532092e-23)
(99.85733998 0.3896397643 0)
(99.90462034 0.3529947281 0)
(99.87811034 0.4037909681 -2.446119008e-21)
(99.90840202 0.4144237851 -4.819219639e-21)
(99.89760901 0.4350173712 -5.506846519e-23)
(99.86748011 0.5043395267 -1.08424615e-20)
(99.88867248 0.4787174179 -3.726586172e-21)
(99.85901403 0.6604596964 2.956549145e-23)
(99.87651658 0.6252028531 -2.474190673e-21)
(99.81971497 0.765343556 -1.354134221e-20)
(99.85079623 0.7211261395 -3.296074262e-21)
(99.82393069 0.9568989997 -6.269798045e-21)
(99.84841323 0.8977658729 -5.890601494e-21)
(99.77717089 1.10523126 5.239762038e-22)
(99.81848604 1.032979963 -7.52988918e-21)
(99.80599294 1.307836149 -9.050870477e-23)
(99.83757178 1.213743096 -5.020124242e-21)
(99.75867592 1.503706724 1.318347789e-21)
(99.80818981 1.392075649 -3.785865209e-21)
(99.82898297 1.659246948 -5.535299324e-21)
(99.8643625 1.519162436 -7.523980226e-21)
(99.79435146 1.894017629 -6.763481016e-20)
(99.84445855 1.733917336 -6.043270409e-21)
(99.9012453 1.916246647 -5.119027703e-21)
(99.9353694 1.730705965 -1.189004256e-20)
(99.88733101 2.171479647 -5.935933362e-21)
(99.92494303 1.967509239 -7.135405229e-21)
(99.99757839 2.009719891 2.287267854e-22)
(100.0216169 1.791308116 -4.736084652e-22)
(100.005582 2.253874573 8.110901654e-21)
(100.0215129 2.026641111 -4.321492182e-22)
(100.0931306 1.924651278 -1.867199246e-22)
(100.0827802 1.684548848 -2.145187787e-22)
(100.1182151 2.12452926 -1.023001674e-22)
(100.1117487 1.886518082 1.621076285e-21)
(100.156715 1.686318264 2.096268188e-21)
(100.1180261 1.453565663 3.643595204e-21)
(100.1873249 1.833682691 3.658025917e-21)
(100.1644515 1.612021055 4.961827798e-22)
(100.1768696 1.367685937 -6.166577879e-21)
(100.1252337 1.16490585 -5.780290268e-21)
(100.2054216 1.468387433 -2.073787404e-21)
(100.1747452 1.281784654 -2.054033939e-21)
(100.1622234 1.049854105 -5.030748191e-21)
(100.1077598 0.8869360838 4.640586964e-22)
(100.1808245 1.112875904 -1.362883314e-21)
(100.1543478 0.9716313169 5.563335244e-21)
(100.1027841 0.6168043338 -1.308593994e-20)
(100.1633251 0.8384473792 -1.308492318e-20)
(100.2305941 0.9096360553 1.326753036e-20)
(100.1424846 0.7016675022 -2.687351441e-20)
(100.1214889 0.5831481905 1.167662593e-20)
(100.1690379 0.6239611996 -1.671932064e-20)
(100.0997136 0.4825765888 2.358478835e-20)
(100.074945 0.4256767234 2.622392768e-20)
(100.0950259 0.2962629082 2.274493628e-20)
(100.2142306 0.4648448738 -2.302517428e-22)
(100.1628748 0.5171328239 4.741070578e-20)
(100.0958929 0.4109159567 2.592067158e-21)
(100.0697247 0.1741854445 -7.012152214e-22)
(100.1539763 0.2867633121 3.270383092e-20)
(100.0567268 0.08045554376 -7.596913695e-21)
(100.1180648 0.1546871607 -1.734253375e-20)
(100.1024124 0.0489669904 7.778279464e-21)
(99.97835239 0.009800426852 -2.49518745e-20)
(99.97884965 0.001612051459 -1.247036252e-20)
(99.95903507 0.03005014122 -5.409686136e-20)
(99.96034602 0.01057100789 1.171010675e-20)
(99.92431143 0.07249627182 1.193340954e-20)
(99.92136395 0.03741367707 -4.580409074e-20)
(99.88410263 0.1451385267 2.767359048e-20)
(99.85839182 0.0922612464 4.984900308e-20)
(99.84509552 0.1554965343 -4.489368314e-20)
(99.89821465 0.1581453548 -8.291062887e-21)
(99.84541639 0.1756821555 -6.101994449e-20)
(99.85764327 0.2016410064 -4.124217264e-21)
(99.83801817 0.2898388914 -8.108209436e-21)
(99.81986994 0.2746391773 -4.04238751e-21)
(99.7525031 0.3333291585 2.832871945e-20)
(99.77480119 0.3662408264 7.990898049e-21)
(99.75231551 0.4952069168 -7.032262844e-21)
(99.72179224 0.4798718335 5.169889243e-21)
(99.62118356 0.5810441548 -3.997782132e-20)
(99.68863048 0.5989924323 2.849924254e-21)
(99.63804595 0.6412463809 -1.746474233e-20)
(99.66868251 0.7617664583 -7.283277115e-21)
(99.64394478 0.7567323938 0)
(99.58231314 0.8367069069 7.506523873e-21)
(99.61243902 0.8490570478 -7.268924452e-21)
(99.54826344 1.176989488 3.574834188e-21)
(99.51056536 1.179977278 1.403668869e-20)
(99.42893979 1.302087283 6.964092983e-21)
(99.47615567 1.307555409 1.745470088e-20)
(99.43491181 1.72976003 -2.580502042e-20)
(99.3796935 1.750238809 -2.603971591e-20)
(99.28198235 1.930359576 -1.961909997e-19)
(99.3526341 1.915330653 -1.953989591e-20)
(99.38385704 2.403583055 3.24599125e-19)
(99.30733163 2.460280603 0)
(99.21691251 2.710620511 -6.870004126e-19)
(99.30954701 2.649388688 -2.186723926e-22)
(99.47491826 3.098289067 -5.043057052e-19)
(99.38265354 3.222274495 -8.98871047e-20)
(99.32957441 3.535288703 -5.893077527e-19)
(99.43244384 3.395783131 -5.472843523e-19)
(99.73894178 3.58334484 -4.821865216e-19)
(99.63052805 3.782157917 -2.260975413e-19)
(99.66826889 4.105635163 -4.930381249e-19)
(99.71819569 3.878058905 1.44912451e-20)
(100.0441128 3.736400017 -1.763042752e-22)
(100.0132515 3.999259136 1.19859741e-21)
(100.0792103 4.270730286 3.847628649e-20)
(100.1093105 3.979928095 2.524280763e-22)
(100.342299 3.488549739 6.047794415e-20)
(100.3613768 3.776361595 -1.309374266e-21)
(100.4581065 3.965891331 -7.034890363e-21)
(100.4285616 3.662638173 -7.058381201e-21)
(100.5145964 2.96830161 9.052288899e-21)
(100.5722393 3.239762246 4.519413311e-21)
(100.6674255 3.353289977 -2.230201331e-20)
(100.6001697 3.076612759 1.202668012e-20)
(100.5578657 2.348704389 -5.795229627e-21)
(100.6340036 2.57689464 -1.340902087e-20)
(100.7149336 2.63422703 -4.70873062e-21)
(100.6295082 2.408965598 5.334564029e-21)
(100.580569 1.928327437 -1.698388092e-20)
(100.5021354 1.748272379 -1.14752571e-20)
(100.6426314 1.950143164 -1.149073194e-20)
(100.5599845 1.777919463 6.198599383e-21)
(100.4076499 1.184012369 -5.175711376e-20)
(100.5423554 1.443435332 -2.709270826e-20)
(100.6359998 1.434397525 -7.844852084e-20)
(100.475524 1.200415189 -3.658151937e-20)
(100.3035618 0.8066190795 -6.001130764e-20)
(100.4104613 0.9902778586 2.366100374e-20)
(100.4722528 0.9673631406 -2.847591946e-20)
(100.3488743 0.8106890675 -2.491549595e-20)
(100.2652192 0.4509622334 1.047180066e-20)
(100.4547675 0.6190293528 -2.573067688e-20)
(100.4224349 0.7459650443 -1.78634231e-22)
(100.3154095 0.6685857996 -1.480945419e-20)
(100.1961799 0.2639367413 1.530429337e-20)
(100.3299422 0.3783908656 2.730468261e-20)
(100.1586615 0.1214892251 -1.954956725e-21)
(100.2524579 0.2029359727 -3.953967476e-21)
(100.2169876 0.06379485403 0)
(99.9654047 0.001499507811 2.50454156e-20)
(99.97745303 -0.005726077209 -4.174679063e-21)
(99.92860901 0.01596893727 2.105497361e-20)
(99.94675483 -0.01077370467 2.924324505e-20)
(99.86271254 0.05730815968 -8.371841126e-21)
(99.88249004 0.005281805711 -4.16101427e-21)
(99.77638424 0.1516943015 0)
(99.77586742 0.05283049438 6.374430455e-21)
(99.73258069 0.1387797569 1.946423672e-20)
(99.784652 0.180728699 -5.701764593e-20)
(99.71955571 0.1709370754 1.463398055e-20)
(99.71933013 0.2210311368 0)
(99.65373817 0.3575314857 3.610869447e-22)
(99.64358713 0.312311465 -3.246828164e-20)
(99.5445875 0.3594687384 -3.244643933e-20)
(99.5531374 0.4291680241 6.590294895e-20)
(99.46976346 0.6400184036 -9.806883494e-20)
(99.44689713 0.576430503 3.468471676e-20)
(99.29998531 0.6642135637 -6.552354906e-20)
(99.35635893 0.7529589596 -3.256976297e-20)
(99.28741138 0.7671793055 -5.361897621e-20)
(99.26757403 1.013814723 7.789844957e-21)
(99.24265309 0.9746092271 1.549676942e-20)
(99.14603285 1.054049775 3.910610033e-20)
(99.17278034 1.10456514 7.726258096e-21)
(98.98536015 1.622412978 -1.514771897e-19)
(98.94197658 1.576522835 -1.102938932e-19)
(98.8098789 1.708867448 -5.083302165e-19)
(98.86048542 1.767666843 -9.500908676e-20)
(98.70713159 2.503644914 -4.147862793e-19)
(98.6305586 2.462353919 3.346330533e-19)
(98.47359181 2.683556523 -2.184734749e-19)
(98.56532723 2.735833276 -6.697670604e-21)
(98.55857178 3.68322202 0)
(98.43615114 3.680265516 4.821908672e-20)
(98.27799874 4.026685078 7.26865173e-19)
(98.42900919 4.024717883 1.065885416e-20)
(98.78223797 4.982111964 -4.671387523e-19)
(98.56236405 5.061907272 6.211131257e-19)
(98.53998247 5.524826654 -1.128416379e-18)
(98.680725 5.383285894 5.130522539e-19)
(99.46080654 5.891988909 -3.412197452e-19)
(99.26717691 6.128415989 1.344019207e-19)
(99.39325264 6.580170099 -3.072574704e-19)
(99.50794856 6.277959298 -1.819431013e-19)
(100.314294 6.048171481 -1.064060369e-19)
(100.258315 6.391194375 -1.66715387e-19)
(100.4565196 6.711637431 -1.463642023e-19)
(100.4890321 6.316493365 2.058383714e-19)
(100.9959286 5.474342377 3.357192114e-19)
(101.0440582 5.838669882 1.261426898e-20)
(101.2608594 6.002288018 3.351146335e-19)
(101.1756386 5.616671625 3.640520356e-19)
(101.3051359 4.518100954 2.526172851e-19)
(101.4160441 4.847640819 2.226802201e-19)
(101.5928881 4.900714915 1.939366627e-19)
(101.4512696 4.571608138 2.922790263e-19)
(101.3237167 3.456590458 -5.879928179e-22)
(101.4564442 3.729645991 -5.382664792e-20)
(101.5824228 3.712440696 -1.197918971e-20)
(101.4300476 3.452720297 1.605292676e-19)
(101.3011047 2.702642108 0)
(101.173835 2.50543763 4.572610901e-20)
(101.3843979 2.666040594 0)
(101.2451448 2.478790755 0)
(100.9141436 1.651324133 2.896112356e-20)
(101.1406206 1.932918658 1.869850163e-20)
(101.2374168 1.824595895 -1.695152802e-20)
(100.9912051 1.588239944 3.631422643e-20)
(100.6758628 1.100269169 -3.336635379e-20)
(100.8516557 1.294434676 -1.489676815e-20)
(100.909717 1.200463477 -1.506447903e-20)
(100.7249685 1.045197898 -7.221832395e-21)
(100.5043556 0.5419092066 -9.118970775e-21)
(100.754657 0.682863898 -1.95865049e-20)
(100.7787425 0.8792196409 -2.56707464e-21)
(100.638426 0.8422575782 4.875722077e-21)
(100.3731962 0.3142239218 7.873264645e-21)
(100.5446129 0.4120344665 1.199320484e-20)
(100.2998459 0.1434134144 -1.998657134e-21)
(100.4135562 0.2176790661 -3.535913444e-21)
(100.3522386 0.06773284481 -5.100090209e-22)
(99.96389053 -0.01827767997 0)
(99.9947114 -0.01874261934 0)
(99.90709137 -0.02246684237 4.199146033e-21)
(99.95077839 -0.04995353052 0)
(99.80478078 0.001430084061 1.056267511e-20)
(99.8600773 -0.05957125251 -3.635872398e-21)
(99.66072128 0.08886730679 1.878533243e-20)
(99.70811097 -0.03610407608 2.347096842e-20)
(99.61663938 0.05832913677 -7.088138653e-21)
(99.65628998 0.1447216047 2.521005219e-20)
(99.58269381 0.1013612723 2.055307728e-21)
(99.56397736 0.1674285287 -1.000942075e-20)
(99.42967682 0.3364485286 0)
(99.43981361 0.2640568717 -2.107630677e-20)
(99.31342231 0.2865654784 -1.72841929e-20)
(99.29178553 0.3882787531 4.301897515e-21)
(99.11592088 0.6503928427 0)
(99.11702962 0.5485902639 4.301436939e-21)
(98.92524573 0.5979554244 -4.42722202e-21)
(98.94597457 0.7622076971 2.164302639e-20)
(98.86939758 0.7418915653 5.564895968e-21)
(98.74557583 1.096510541 3.139451957e-19)
(98.734943 1.020324748 6.409308883e-20)
(98.60101845 1.083972583 -3.272496947e-21)
(98.61050987 1.174198819 -1.187830122e-19)
(98.21408668 1.88727839 -6.052840936e-19)
(98.18342405 1.780824447 -7.254308832e-19)
(97.99716106 1.908299838 3.325268406e-19)
(98.0295621 2.039245967 -3.759179827e-19)
(97.61840516 3.1696256 -1.131101998e-18)
(97.53805751 3.040794793 -6.834362702e-19)
(97.27808645 3.300184951 -6.856437118e-19)
(97.37674413 3.45979309 2.184673913e-19)
(97.1903964 5.090026986 2.409803224e-18)
(97.00796589 4.98133059 7.838987386e-19)
(96.724834 5.436872154 3.908227073e-19)
(96.96149487 5.565633662 -5.493727733e-20)
(97.5499491 7.368418967 -1.437482176e-18)
(97.24220877 7.4167965 -3.965266986e-19)
(97.10144619 8.076184313 -6.980956728e-19)
(97.51184978 8.007766654 -7.139456392e-19)
(99.19383049 9.054450902 2.982537251e-19)
(98.80351182 9.397947269 1.562771488e-19)
(99.12324553 10.06245657 6.40876549e-20)
(99.38753331 9.606749053 6.353760984e-20)
(101.1778522 8.991749201 -6.521588775e-20)
(101.0914424 9.514106799 9.879423757e-21)
(101.5480244 9.873779577 3.013003271e-19)
(101.5672036 9.262201234 6.808970371e-20)
(102.4170432 7.644184922 8.140284252e-21)
(102.5557504 8.134368957 5.057869944e-19)
(102.9521699 8.193691487 -1.17393516e-21)
(102.7423904 7.696824289 7.39072399e-19)
(102.7498904 5.954515499 -7.857800863e-19)
(102.9775266 6.339441715 1.093795246e-19)
(103.254407 6.262517717 9.521220146e-21)
(102.9736668 5.898122419 -8.885975563e-19)
(102.5521551 4.388745693 5.589730301e-19)
(102.7859878 4.677344502 9.174389229e-19)
(102.9402583 4.56341302 1.080503418e-19)
(102.6837478 4.299131859 5.828476923e-19)
(102.3259578 3.259539843 -1.47691581e-20)
(102.1248718 3.049203463 -3.870451019e-21)
(102.4109142 3.139974228 1.116680477e-20)
(102.198527 2.954537597 2.271554071e-20)
(101.5990905 1.943136308 -9.471061536e-20)
(101.9233388 2.21366473 -6.009825659e-20)
(101.9915107 1.995890777 -3.376531542e-20)
(101.6606488 1.795700367 -1.747168769e-20)
(101.1677666 1.261583213 1.165965753e-20)
(101.417344 1.442008448 3.511568764e-20)
(101.4448177 1.278732621 -3.948725057e-21)
(101.2010218 1.146901377 -3.849486484e-21)
(100.7804398 0.5525490866 2.047167553e-21)
(101.0823934 0.6321682389 0)
(101.1926639 0.8981049673 -1.23816659e-22)
(101.0365785 0.902757755 -1.05274249e-20)
(100.572132 0.3128384696 4.518127341e-22)
(100.7706717 0.374265427 2.046982993e-21)
(100.4547517 0.1405481445 -2.054095237e-21)
(100.5760663 0.191601713 -2.056295946e-21)
(100.484803 0.05863710626 -2.071755782e-21)
(99.98643567 -0.05023135194 0)
(100.0421181 -0.03745422418 2.05224553e-21)
(99.90959986 -0.08689340007 -8.426784006e-21)
(99.98545547 -0.1068522558 -2.067218087e-21)
(99.77067041 -0.09674104065 8.67747311e-21)
(99.86955071 -0.1571675275 -4.208949825e-21)
(99.55920842 -0.02976122106 1.14041911e-20)
(99.67338526 -0.1769306883 3.139370666e-21)
(99.52809158 -0.08913302162 -6.907777691e-24)
(99.52947012 0.03864335966 -8.504791959e-21)
(99.46814824 -0.04152939664 -8.547378349e-21)
(99.41813328 0.03547653578 0)
(99.20176208 0.2084138219 -1.728376622e-20)
(99.24391363 0.1161947255 0)
(99.09995534 0.1017772872 -9.454924296e-23)
(99.03340489 0.2250437333 -6.036659544e-23)
(98.73397167 0.5054557053 8.87905888e-21)
(98.7803739 0.3697140587 1.336189176e-20)
(98.55551084 0.3710987547 1.796184686e-20)
(98.51597511 0.5846590298 9.196643772e-21)
(98.44183586 0.5360423937 2.034560974e-20)
(98.16199748 0.9615487376 -2.02200476e-21)
(98.18517096 0.8531766216 7.795215967e-20)
(98.01765009 0.8894693657 -1.349024349e-19)
(97.98895565 1.015918253 1.348830542e-19)
(97.28733912 1.847944717 2.650595461e-19)
(97.29884482 1.680592137 5.246111096e-19)
(97.04198293 1.780470565 1.000302446e-20)
(97.0213104 1.982865116 2.66491725e-19)
(96.09282619 3.480070174 -2.429244399e-19)
(96.05245616 3.220778235 7.621924849e-19)
(95.65111337 3.454827306 -1.673374745e-19)
(95.70270973 3.765000272 2.554502334e-19)
(94.92297208 6.279715929 1.312012339e-19)
(94.70565844 5.944775102 -2.971419947e-20)
(94.16811384 6.426884985 2.46508375e-19)
(94.45699277 6.857509003 -3.959992835e-19)
(95.03355958 10.39175606 0)
(94.42155027 10.17198701 2.404926424e-19)
(93.96251152 11.16333884 0)
(94.81168798 11.40220811 0)
(98.54444504 13.94943637 0)
(97.71784031 14.45169162 -3.112960129e-20)
(98.17689136 15.7101814 -1.602085714e-19)
(99.1413088 14.90999026 -8.195524678e-21)
(103.2965743 13.03258949 1.051417054e-19)
(103.1769954 14.0081436 -1.639102336e-19)
(104.181851 14.31030676 -3.156174914e-19)
(104.1053839 13.19863221 2.004888596e-19)
(105.184832 9.762246815 -5.243342681e-19)
(105.5420986 10.44971446 -7.812439748e-19)
(106.1835535 10.22689777 -4.771374715e-19)
(105.6914814 9.579992306 -1.99874653e-19)
(105.0959509 6.952297911 9.069947801e-19)
(105.5233123 7.351626014 6.365028727e-19)
(105.825032 7.072058593 8.413411875e-19)
(105.3473111 6.725490814 3.268615114e-19)
(104.2966811 4.868425225 -5.891984587e-19)
(104.6692811 5.125049553 -8.591877356e-21)
(104.804682 4.877895222 3.335333425e-19)
(104.4182907 4.665311992 -6.555378113e-21)
(103.6596363 3.449693297 2.90354587e-19)
(103.361989 3.264120802 1.347073639e-19)
(103.7098998 3.242887794 0)
(103.4141715 3.088946473 -3.330757816e-20)
(102.4055421 1.972942627 2.743308114e-20)
(102.8320927 2.189032223 -2.760485497e-22)
(102.8262426 1.865548027 1.687230591e-20)
(102.4165417 1.74070215 1.256442109e-20)
(101.7260191 1.244538724 -1.653553965e-20)
(102.044248 1.37576546 -8.452448413e-21)
(102.009077 1.152783763 -8.454085956e-21)
(101.7154126 1.074814672 1.295770257e-20)
(101.0561362 0.4605155944 0)
(101.3946809 0.4578131511 1.374878453e-21)
(101.6013654 0.751588796 -1.140966465e-20)
(101.4550184 0.8316904202 2.823761082e-20)
(100.7604974 0.2510039429 -5.193565923e-22)
(100.9682198 0.2559334895 -1.623754939e-21)
(100.5949734 0.1094035209 -2.084496988e-21)
(100.7095944 0.1212461274 -2.366615933e-21)
(100.5879842 0.03568758612 2.6412869e-21)
(100.0453079 -0.09351220845 -1.431890573e-23)
(100.1303428 -0.06115010773 6.445063208e-23)
(99.95059907 -0.1756621987 2.147441939e-21)
(100.0630124 -0.1791986973 -7.834759229e-23)
(99.77913406 -0.2359472229 -1.127541845e-20)
(99.92657444 -0.2832135591 1.692858196e-21)
(99.50322168 -0.2171667813 -1.02362562e-20)
(99.69456887 -0.3631885066 -1.712480125e-20)
(99.49388193 -0.2989230949 -1.454931668e-20)
(99.44026764 -0.1413560843 -8.020082947e-21)
(99.4049569 -0.256335423 -3.165798744e-21)
(99.31869922 -0.1795279651 4.356725014e-23)
(99.01378439 -0.03242820407 1.296769664e-20)
(99.09707971 -0.1337142657 1.316827061e-20)
(98.94832497 -0.1923741846 6.513328836e-21)
(98.8291441 -0.06415535188 2.237860092e-20)
(98.39756417 0.1941553751 -2.254866715e-20)
(98.50388449 0.03628619816 -1.806866947e-20)
(98.26739442 -0.02292328369 -6.205273226e-20)
(98.13904143 0.2168676789 1.223363589e-19)
(98.08462793 0.1355760684 -2.039593339e-19)
(97.62361929 0.5723594004 -6.609946802e-20)
(97.6909636 0.4451004421 4.30935729e-20)
(97.51144569 0.4353442763 -8.220776182e-19)
(97.42945934 0.5804239393 -7.140542536e-20)
(96.32741971 1.395165728 0)
(96.4202668 1.177114713 -5.485196398e-19)
(96.11170262 1.204910306 -1.39092809e-19)
(95.98911099 1.460725002 6.376271683e-19)
(94.29464628 3.022393281 1.380529028e-19)
(94.38180034 2.651351816 4.286710309e-19)
(93.86834118 2.738025745 -1.585629213e-20)
(93.73559653 3.189967467 1.783171175e-19)
(91.50428093 6.085246265 -3.790147018e-19)
(91.46078459 5.43385213 -1.628674794e-20)
(90.58285623 5.626046142 -6.208610881e-19)
(90.60185088 6.48333495 1.894114157e-19)
(88.74297383 12.64210695 0)
(87.99489107 11.45366832 0)
(86.12515681 12.85257999 0)
(86.37539577 12.01860957 0)
(87.85611496 14.16498793 0)
(86.85369568 14.24958256 0)
(93.57041559 24.17060032 0)
(94.94737997 23.76587503 1.468655097e-19)
(94.07818509 25.98247902 0)
(95.7563571 25.14035556 0)
(108.7208236 20.62746518 7.894011043e-19)
(108.8136976 18.84988242 1.822633804e-19)
(110.4474684 18.32798871 1.261457232e-18)
(109.6262117 21.36394477 1.481761459e-19)
(111.6369583 20.01788402 1.720504346e-18)
(111.2769512 20.84782231 1.105071549e-18)
(110.8564259 11.96801167 0)
(109.9654219 11.11566265 2.30158426e-19)
(111.5156918 11.11409717 0)
(110.4896168 10.47416416 2.116018013e-19)
(108.3144231 6.950772667 0)
(109.0221061 7.267622387 -1.11365253e-19)
(109.2209422 6.698484089 -2.310828122e-19)
(108.4962858 6.491496541 0)
(106.4420836 4.551995963 7.301165784e-19)
(106.9642131 4.697936609 -4.029937333e-19)
(106.9927818 4.307738463 2.096517126e-19)
(106.4819786 4.224284275 -3.770183724e-19)
(105.1465239 3.034285316 -4.146298701e-19)
(104.7586261 2.94275995 -4.22424794e-19)
(105.1075208 2.757997977 -8.3505935e-20)
(104.73795 2.692124856 -1.936447826e-19)
(103.2382201 1.666901102 4.475807563e-21)
(103.7655455 1.768119393 2.987541004e-20)
(103.6204886 1.372509973 -2.642630139e-21)
(103.1552735 1.362129594 -4.711496948e-21)
(102.2743773 0.9971429917 4.684439185e-21)
(102.6392023 1.045121343 -2.356708979e-23)
(102.5194904 0.7831380258 -7.529385192e-21)
(102.1960414 0.7850841354 9.496149086e-21)
(101.2837342 0.2606124001 -1.775603516e-22)
(101.6160062 0.1629866461 -3.095905311e-22)
(101.9541371 0.4359325842 8.396404122e-22)
(101.833174 0.5549299472 6.886734014e-21)
(100.9026451 0.1262401309 -3.481635331e-21)
(101.0948413 0.05936250302 -2.48035998e-22)
(100.6914194 0.048549743 2.586023767e-21)
(100.7828146 0.009304479513 -2.366727165e-21)
(100.6337631 -0.0003435128534 4.537523478e-22)
(100.1511564 -0.1459788731 1.506355772e-23)
(100.2680493 -0.0884740236 -3.039114833e-21)
(100.0428812 -0.2841520422 -5.533863089e-22)
(100.193375 -0.2627800939 1.326017889e-21)
(99.84707611 -0.4080943433 -4.36433056e-21)
(100.0435564 -0.4296898326 -2.87467266e-21)
(99.51688128 -0.4564470517 9.007528168e-21)
(99.78807214 -0.5815290225 -9.915277426e-22)
(99.53767876 -0.5577905555 9.277115636e-22)
(99.41579922 -0.3871713666 4.376553032e-21)
(99.42179842 -0.5270859025 9.090545679e-21)
(99.29682203 -0.462698848 6.400120297e-21)
(98.90941721 -0.3734292007 -2.195800043e-21)
(99.03883031 -0.4682329576 3.378836326e-21)
(98.90041114 -0.5716827608 2.234350055e-21)
(98.72618395 -0.4585288688 6.76453216e-21)
(98.17424041 -0.2742972889 -1.456374568e-22)
(98.34706097 -0.4286963748 3.720688779e-20)
(98.12513064 -0.5524112442 7.104721752e-20)
(97.90558394 -0.3200642731 2.377701748e-20)
(97.88476242 -0.4303995428 3.515092374e-19)
(97.25574271 -0.06615110517 2.273200464e-20)
(97.37499451 -0.1929411181 8.323951356e-19)
(97.20238923 -0.2557914473 1.228188444e-20)
(97.05720074 -0.1165604196 1.133294613e-18)
(95.5933745 0.467099402 -2.157818934e-19)
(95.78681211 0.2466872614 -2.209603341e-19)
(95.47952403 0.1774886836 -2.024537397e-19)
(95.23919524 0.4201959325 -4.989975941e-19)
(92.85022234 1.498651573 -1.767119769e-19)
(93.13811954 1.118599924 -1.750325633e-19)
(92.63856846 0.9959678074 -8.495185484e-20)
(92.25804424 1.412281706 -7.91345152e-20)
(88.44910886 3.147844705 -1.357139056e-18)
(88.88921292 2.453070775 3.963918261e-20)
(88.11782523 2.099768422 9.59073087e-19)
(87.44681377 2.833715261 5.912279701e-19)
(80.23467954 5.691206001 -6.811890322e-19)
(80.84462805 4.780765648 1.169990719e-18)
(79.97185536 4.130979984 -1.200569012e-18)
(79.06014117 5.081846296 -1.207398581e-18)
(126.0475257 23.45740716 7.352595663e-19)
(124.1198889 22.42328904 2.126265246e-18)
(126.6594282 21.41108452 9.91844902e-19)
(124.8007491 20.80496707 0)
(118.323525 9.851322671 -1.244895852e-18)
(116.642304 9.470976229 1.34100155e-20)
(118.244679 8.275479615 -1.892975616e-18)
(116.6827197 8.248539164 -1.785133961e-18)
(111.8589383 5.171149601 0)
(112.8057674 5.183265626 0)
(112.6456306 4.406158567 0)
(111.7680608 4.524131435 -8.313670023e-19)
(108.540795 3.16950742 -8.531783458e-19)
(109.1624151 3.118547162 -6.266324675e-19)
(108.9918505 2.656198822 2.415572609e-19)
(108.4237972 2.770082278 0)
(106.4919918 1.910035244 -8.275404218e-19)
(106.0527986 1.948379664 -4.617403612e-20)
(106.3275108 1.59804575 0)
(105.9264157 1.661135295 3.552748828e-19)
(103.9485612 0.9874341003 -5.155380999e-21)
(104.5306407 0.9295056606 -7.840647533e-21)
(104.2036742 0.5242099188 8.291887376e-21)
(103.737241 0.6583922694 1.210243877e-21)
(102.713018 0.515680473 -2.031953315e-21)
(103.0902831 0.4554339273 1.436775776e-20)
(102.8598801 0.2016267927 5.27715313e-21)
(102.5534186 0.2994886845 1.046178189e-20)
(101.4113428 -0.03357235188 -3.520187174e-22)
(101.7043617 -0.2304233054 -1.103192447e-21)
(102.1601668 -0.02966501258 -1.12268772e-21)
(102.1023465 0.1503508399 -1.304657785e-21)
(100.962826 -0.05523995953 1.117606714e-21)
(101.1151627 -0.1984374324 1.37609745e-21)
(100.7154429 -0.03802966637 -4.448969509e-21)
(100.766523 -0.13499312 1.706788615e-21)
(100.5978723 -0.046843785 -2.206638155e-21)
(100.3118759 -0.2042502991 -1.728122082e-21)
(100.4607198 -0.1175922463 9.579212341e-22)
(100.1959602 -0.4050055015 -1.006241186e-21)
(100.3827743 -0.351897409 -7.086437895e-22)
(99.9869112 -0.6005564492 5.13333294e-22)
(100.2280609 -0.5860195207 -2.540242063e-22)
(99.61942054 -0.7306226604 5.873828839e-22)
(99.9639912 -0.81552304 8.597258395e-22)
(99.67454246 -0.8433468423 5.116237656e-22)
(99.48000127 -0.6779730137 1.501893184e-21)
(99.53594891 -0.8317144065 -1.448041616e-23)
(99.37565246 -0.789833996 -1.448247572e-23)
(98.92442052 -0.7824902507 -2.22676335e-21)
(99.09735442 -0.8570736245 0)
(98.98295634 -1.000710365 -1.089062502e-21)
(98.76096113 -0.9189864111 -1.152186477e-21)
(98.1247248 -0.8494592127 -6.807719812e-22)
(98.35739309 -0.974510162 -3.784852957e-20)
(98.17510815 -1.156411413 -3.558951214e-20)
(97.87847148 -0.964049485 -4.001685896e-19)
(97.89605245 -1.0897893 -3.956420589e-19)
(97.14007277 -0.8655035567 -7.62066524e-21)
(97.30572709 -0.9674032281 2.856704551e-19)
(97.1549584 -1.076102493 5.690891489e-19)
(96.95810734 -0.968667962 -3.454099944e-20)
(95.3147881 -0.7525716005 7.406344245e-20)
(95.57925071 -0.9227119732 1.252252191e-18)
(95.32198255 -1.069330415 -6.054849905e-19)
(94.99578992 -0.8959370544 0)
(92.40454808 -0.5782776957 -7.691842482e-19)
(92.82530146 -0.8346663747 -2.15393954e-19)
(92.44899212 -1.083208019 3.570657181e-19)
(91.95030854 -0.8458912078 1.59872648e-19)
(88.2028325 -0.8314087117 3.585983202e-21)
(88.86663126 -1.148570808 4.009755469e-19)
(88.46255434 -1.629940711 -1.402740746e-18)
(87.70839338 -1.405669204 -4.673665766e-19)
(83.05063447 -3.017133003 5.546483828e-19)
(83.65536622 -3.016235002 1.640625174e-18)
(83.59723662 -3.479782779 1.45584386e-20)
(83.05051379 -3.584998939 1.38985778e-19)
(139.1789563 5.91208013 -3.383875129e-19)
(137.4766963 6.922728315 -3.594940775e-18)
(137.8324129 4.54075064 0)
(136.414749 5.553707933 -2.23651709e-18)
(123.3094099 2.394386892 3.295892199e-18)
(121.6175392 3.112740701 3.090111053e-18)
(122.1093254 1.104954677 6.951882121e-19)
(120.7756436 1.925012234 7.978261005e-19)
(114.3296099 1.453718474 -7.631877689e-19)
(115.2359762 1.011234915 -7.001259104e-19)
(114.6118181 0.3343945294 -4.518834656e-19)
(113.8524539 0.8255883261 6.057606918e-19)
(109.9525052 0.7692143927 -1.043934552e-18)
(110.5313697 0.4675133191 5.449868784e-19)
(110.1216812 0.06415907138 2.699061893e-19)
(109.6235257 0.3878363711 1.220741496e-20)