/*--------------------------------*- C++ -*----------------------------------*\
| =========                 |                                                 |
| \\      /  F ield         | OpenFOAM: The Open Source CFD Toolbox           |
|  \\    /   O peration     | Version:  v1912                                 |
|   \\  /    A nd           | Website:  www.openfoam.com                      |
|    \\/     M anipulation  |                                                 |
\*---------------------------------------------------------------------------*/
FoamFile
{
    version     2.0;
    format      ascii;
    class       surfaceVectorField;
    location    "0.98";
    object      Uf;
}
// * * * * * * * * * * * * * * * * * * * * * * * * * * * * * * * * * * * * * //

dimensions      [0 1 -1 0 0 0 0];


internalField   nonuniform List<vector> 
25162
(
(99.99775612 0.009641881158 -2.280935302e-21)
(99.99097016 0.008792957674 6.765346072e-21)
(99.99677184 0.02251905312 -2.24579161e-21)
(99.98794553 0.02919415931 2.302071021e-21)
(99.99482731 0.04280706614 -4.473662239e-21)
(99.9810119 0.05988422836 1.354904808e-20)
(99.99776225 0.0475715766 1.372321312e-21)
(99.96877835 0.1074030174 -8.852105489e-21)
(99.98700742 0.1047790738 -1.485082773e-21)
(99.99696565 0.08542828061 2.14321394e-21)
(99.99891051 0.05080793817 1.051693904e-21)
(99.98497584 0.1388157656 2.123986846e-21)
(99.99657692 0.07836680592 1.032436464e-21)
(99.99746209 0.06229922793 -1.07622845e-21)
(99.99581819 0.09827666694 1.032394296e-21)
(99.97734774 0.2195977096 2.049722942e-21)
(99.99549483 0.1224985837 0)
(99.99532274 0.1487406583 -3.676343393e-21)
(99.97137346 0.3266569929 -3.676324259e-21)
(99.99478144 0.179357628 -9.500833021e-22)
(99.99421541 0.2137686449 3.201026112e-21)
(99.9647376 0.4640657165 3.449023859e-21)
(99.99375898 0.2515182435 4.237964295e-22)
(99.99350721 0.2915799288 -2.683062282e-21)
(99.96180445 0.62359103 3.868615334e-22)
(99.99355794 0.3324424752 -2.633864912e-21)
(99.9939885 0.3720326326 4.569231176e-22)
(99.96623161 0.7812647609 -1.710149036e-21)
(99.99440005 0.4081445703 2.418051727e-21)
(99.99492025 0.438399687 1.952560763e-21)
(99.97983602 0.8989244744 -8.365222421e-22)
(99.99653227 0.4600218293 0)
(99.99903697 0.4708314818 0)
(100.0007276 0.9418016791 1.204455397e-22)
(100.0016126 0.4700493811 0)
(100.0039515 0.458007043 7.375579965e-22)
(100.0207805 0.8943492188 -1.437819732e-23)
(100.0053657 0.4357749433 1.264485693e-21)
(100.0057224 0.405836074 -5.000102115e-22)
(100.0326106 0.7780219583 -7.738117144e-22)
(100.0059942 0.3709245493 -1.41423942e-21)
(100.0063035 0.3333110689 8.194025344e-23)
(100.0359677 0.6280166713 1.958676282e-21)
(100.0062757 0.2948446693 5.140923091e-22)
(100.0059912 0.2572378814 0)
(100.0331153 0.4781750867 0)
(100.0055539 0.2218228787 0)
(100.0051528 0.1892928873 7.84729279e-22)
(100.0270046 0.3489900516 1.631693909e-21)
(100.0051144 0.1604207448 -3.971583827e-21)
(100.0048659 0.1331250288 -1.482982616e-21)
(100.0217166 0.2415637781 3.211433581e-21)
(100.004114 0.1099132566 3.21119394e-21)
(100.0030637 0.09065898973 -8.852343318e-22)
(100.012857 0.1629413637 -4.348910955e-23)
(100.000955 0.07692283338 1.733202254e-21)
(100.0076035 0.07287787275 -7.649195638e-21)
(100.0438659 0.1792938819 3.401573599e-22)
(100.0161563 0.163720967 -2.71077171e-21)
(100.0027031 0.07568641957 -1.561753013e-21)
(100.0052324 0.04170533479 -9.547532738e-22)
(100.0291515 0.1088055829 1.514858858e-20)
(100.0042438 0.01939739748 -7.661239789e-21)
(100.020959 0.05736542205 -1.615164772e-20)
(100.0182798 0.01796479159 1.317599433e-21)
(99.97922298 0.02699944041 1.128662933e-20)
(99.96559239 0.01488556274 3.480824091e-22)
(99.96939166 0.06358045935 1.79765951e-20)
(99.95364871 0.05009397454 -1.581189644e-20)
(99.9509223 0.1206865927 9.407346095e-21)
(99.92756343 0.1042184186 -2.441106793e-20)
(99.94284294 0.187341308 -1.60413009e-21)
(99.88330977 0.189653427 4.701074176e-20)
(99.90302362 0.2368344034 -1.033063921e-20)
(99.91609432 0.2393508276 -2.220434184e-21)
(99.93613751 0.2347078582 4.347974983e-21)
(99.96042347 0.1675789904 2.160321604e-21)
(99.93908054 0.2720254583 2.093756307e-21)
(99.91866501 0.2996572786 2.139669111e-21)
(99.86386344 0.3944706968 -4.338089345e-21)
(99.89951604 0.3800597769 -3.009062048e-23)
(99.90872589 0.428983618 2.050044621e-21)
(99.87760516 0.477909414 -2.484107909e-23)
(99.80030374 0.6229142796 0)
(99.86675183 0.5530578758 0)
(99.8313927 0.6345982113 -2.54264592e-21)
(99.87893126 0.6273003691 -4.978240586e-21)
(99.86195388 0.6640637398 -7.575694497e-23)
(99.82379777 0.7666179133 -1.119516946e-20)
(99.85233064 0.7229178529 -3.848564908e-21)
(99.82291249 0.9560134975 3.022738861e-23)
(99.84910804 0.897876303 -2.49009825e-21)
(99.7766126 1.103977144 -1.355773899e-20)
(99.81656586 1.033407267 -3.310494468e-21)
(99.80051811 1.310404449 -5.986960818e-21)
(99.83580022 1.218829962 -5.679377966e-21)
(99.75218876 1.508101395 7.517282865e-22)
(99.8011404 1.399636677 -7.166421896e-21)
(99.81383016 1.678398539 -3.47011044e-24)
(99.8555277 1.542880311 -4.487846829e-21)
(99.77449262 1.919498209 7.769638299e-23)
(99.82610746 1.764826007 -3.346027666e-21)
(99.87451174 1.975318393 -3.566114517e-21)
(99.91629819 1.792918734 -5.72308458e-21)
(99.85372962 2.244081606 2.565123659e-21)
(99.89793287 2.041909921 -4.424061621e-21)
(99.97574448 2.118838035 9.96711397e-22)
(100.005007 1.894239324 -1.547523546e-21)
(99.98092548 2.381195371 -1.405043319e-21)
(100.00311 2.144319056 -1.711075865e-22)
(100.0827248 2.063509808 1.528106455e-22)
(100.0770123 1.811256233 -7.972015654e-23)
(100.1073907 2.282573896 1.432768669e-21)
(100.1049847 2.030665462 -1.010952572e-21)
(100.1583998 1.831766391 -3.20959234e-22)
(100.120482 1.582739212 -2.516567416e-22)
(100.1897521 1.99513014 -7.872466955e-23)
(100.1682565 1.757379671 2.49691135e-21)
(100.1877801 1.502532006 2.649372345e-21)
(100.1333481 1.281139271 4.60636529e-21)
(100.2193908 1.615119666 4.599563027e-21)
(100.1872587 1.410308453 5.657088911e-22)
(100.1796269 1.155231178 -7.144400342e-21)
(100.1229963 0.9756733616 -6.638793418e-21)
(100.2054442 1.227984793 -2.411476078e-21)
(100.1723466 1.066918565 -2.356588115e-21)
(100.1493001 0.8494547088 -5.527322525e-21)
(100.0975696 0.7130365605 5.007453372e-22)
(100.1654845 0.893212638 -1.465161673e-21)
(100.1392333 0.7767495653 5.952557273e-21)
(100.0873572 0.4768498499 -1.351305244e-20)
(100.1408386 0.6529875228 -1.351200251e-20)
(100.1950295 0.699450104 1.365612549e-20)
(100.1194827 0.5377390679 -2.753980838e-20)
(100.0996351 0.4401774567 1.188435507e-20)
(100.1371264 0.4654930139 -1.659193674e-20)
(100.0803624 0.358336751 2.41212789e-20)
(100.0605898 0.3190030027 2.678187301e-20)
(100.0717882 0.2107026188 2.256291988e-20)
(100.1645335 0.3310704229 -1.616571147e-22)
(100.1283977 0.3788939638 4.779597423e-20)
(100.0756154 0.2994735496 2.566011585e-21)
(100.0503055 0.121185603 -7.099379367e-22)
(100.1131368 0.1995673466 3.232262271e-20)
(100.0394538 0.05517278344 -7.536504991e-21)
(100.0831891 0.1052785485 -1.713242011e-20)
(100.0703207 0.03287935041 7.659991767e-21)
(99.9436221 0.03653770711 -2.712067915e-20)
(99.93108995 0.01582433163 -1.355534408e-20)
(99.91653694 0.08763492563 -5.863172761e-20)
(99.90549764 0.05500924641 1.237150424e-20)
(99.86698783 0.1690277591 1.158779029e-20)
(99.85112483 0.1196328805 -4.962284674e-20)
(99.81748415 0.2852827478 2.992470151e-20)
(99.76205627 0.2248919282 5.388712195e-20)
(99.75514116 0.312012873 -4.612933157e-20)
(99.84527621 0.3002353408 -8.897099236e-21)
(99.76188286 0.3437166583 -6.58316412e-20)
(99.78384182 0.3744705639 -4.451297649e-21)
(99.76134223 0.5005254461 -8.633675971e-21)
(99.73153042 0.4865628905 -4.300776301e-21)
(99.63368601 0.5847916725 3.020671121e-20)
(99.67161573 0.6232597387 8.452278758e-21)
(99.65151639 0.798760919 -7.453229514e-21)
(99.6035841 0.7892343727 5.525809859e-21)
(99.4645371 0.9475952177 -4.250960077e-20)
(99.56631744 0.953476597 2.951183166e-21)
(99.49518901 1.024875466 -1.846122457e-20)
(99.55495657 1.169994769 -7.534585997e-21)
(99.51767788 1.171919817 0)
(99.43689721 1.291405728 7.835493696e-21)
(99.4826359 1.298090767 -7.488752504e-21)
(99.43360108 1.718406962 3.621692685e-21)
(99.37924924 1.737092978 1.41745967e-20)
(99.28053156 1.911077697 7.013898142e-21)
(99.34919857 1.90069953 1.758693608e-20)
(99.36491306 2.386633878 -5.864175472e-21)
(99.28995703 2.437569036 -1.820943995e-20)
(99.19174618 2.668476543 -3.835075795e-20)
(99.28585896 2.62236411 2.540205578e-22)
(99.41542961 3.081146355 5.19729273e-20)
(99.32699776 3.184716662 5.573082134e-22)
(99.24892138 3.470222036 1.279995613e-19)
(99.36090969 3.362378613 4.139787869e-20)
(99.61735534 3.659499688 -1.533037501e-20)
(99.5317888 3.837649674 -3.058617001e-20)
(99.50443745 4.15474436 -4.370895314e-20)
(99.61221002 3.959177565 4.303441673e-20)
(99.95817609 3.925965991 4.76654575e-20)
(99.90441204 4.183624423 -3.25412301e-20)
(99.94665057 4.480300056 2.848356431e-20)
(100.0089752 4.197017279 2.559901906e-20)
(100.3088293 3.760846862 -1.089293314e-20)
(100.3118668 4.066658554 6.000037982e-21)
(100.4053535 4.290969427 -1.290911017e-20)
(100.397309 3.963196681 1.767349655e-20)
(100.5268643 3.24068357 1.50343327e-20)
(100.5823458 3.538538077 3.018631593e-20)
(100.6862306 3.673993118 -7.917212112e-21)
(100.6192378 3.366805534 -7.341696035e-21)
(100.5925716 2.583470943 6.820746239e-21)
(100.6708237 2.832340413 9.693336971e-21)
(100.7601676 2.899859654 -7.23429128e-21)
(100.6721105 2.652926817 1.042663347e-20)
(100.5506328 1.940286444 -6.592260644e-21)
(100.6351702 2.138626728 -1.544117504e-20)
(100.7038488 2.167132009 -5.332689455e-21)
(100.6115856 1.974787595 5.825847793e-21)
(100.5265235 1.533359282 -1.815759864e-20)
(100.452024 1.386927818 -1.221151816e-20)
(100.5754183 1.539277826 -1.222798589e-20)
(100.4984978 1.401227096 6.482934945e-21)
(100.342956 0.903622116 -5.344637308e-20)
(100.4613318 1.10702242 -2.801403297e-20)
(100.5308739 1.084099837 -8.107710723e-20)
(100.39444 0.9067926064 -3.85753577e-20)
(100.2442607 0.5977683295 -6.062785533e-20)
(100.3331741 0.7370971217 2.418747838e-20)
(100.3779215 0.7101149979 -2.878116329e-20)
(100.2773277 0.5947401403 -2.51556748e-20)
(100.1984022 0.3161238426 1.017563913e-20)
(100.3431397 0.430340358 -2.575886047e-20)
(100.3285963 0.528840555 -1.327525032e-22)
(100.2451616 0.484179992 -1.477894245e-20)
(100.1408833 0.1807803542 1.515367169e-20)
(100.2404467 0.2568205754 2.690424456e-20)
(100.1098702 0.08178756068 -1.923704465e-21)
(100.1765782 0.1343430795 -3.877960334e-21)
(100.1474523 0.04165344824 0)
(99.89987212 0.03317461107 2.723416971e-20)
(99.89982219 0.009644243954 -4.548861563e-21)
(99.84846224 0.08445293554 2.294872143e-20)
(99.85717157 0.0375757046 3.182157607e-20)
(99.75616864 0.173984991 -9.114469016e-21)
(99.76678194 0.09554787591 -4.486622373e-21)
(99.6401066 0.325246416 0)
(99.62020741 0.196737506 6.963225879e-21)
(99.56605945 0.3247312544 2.112638886e-20)
(99.6613833 0.3692957862 -6.155107163e-20)
(99.55343942 0.3731553411 1.588365206e-20)
(99.56398071 0.4401031741 0)
(99.48451004 0.6422844524 2.010079072e-22)
(99.46171398 0.5835260192 -3.488495151e-20)
(99.31805095 0.6689722563 -3.486148343e-20)
(99.34108501 0.7614069184 7.063708465e-20)
(99.24243512 1.061657905 -1.047898813e-19)
(99.20123353 0.9801644752 3.946313474e-20)
(98.99485685 1.129145249 -7.016303071e-20)
(99.09447037 1.23564092 -3.494985681e-20)
(98.99434418 1.259190833 -5.734221784e-20)
(99.00035347 1.59552499 8.232663555e-21)
(98.95846345 1.549610813 1.633753813e-20)
(98.82900407 1.67189833 4.141527713e-20)
(98.87630214 1.732779862 8.165039929e-21)
(98.70712718 2.418161959 1.076020843e-19)
(98.63542464 2.37324466 3.986480847e-20)
(98.48096309 2.553425125 6.374457388e-20)
(98.56555496 2.614852337 -3.357119481e-20)
(98.52144244 3.450144801 3.475504039e-19)
(98.40823796 3.424857348 5.897253693e-19)
(98.24421641 3.681593865 5.982385915e-19)
(98.38028088 3.720589535 2.91667826e-21)
(98.56787121 4.631340658 0)
(98.40727333 4.661658949 0)
(98.26831881 5.011354494 3.992911014e-19)
(98.46325869 4.981606418 1.211097512e-20)
(99.00523318 5.740369529 -9.867228772e-20)
(98.81326863 5.883985113 2.816522836e-19)
(98.76691248 6.310021283 -3.76317124e-19)
(98.99584329 6.138181119 -7.13650859e-21)
(99.86722118 6.336526154 -3.486453428e-20)
(99.71138492 6.63659341 -6.430274292e-20)
(99.81712725 7.041307311 -2.016021234e-19)
(99.98277132 6.687779256 2.967975263e-20)
(100.7992421 6.05872996 6.763704128e-20)
(100.764808 6.465997856 6.621221948e-20)
(100.9745191 6.726890375 1.109922342e-19)
(100.9835156 6.274601984 -1.583337383e-19)
(101.3436777 5.062538886 2.020817107e-19)
(101.4338833 5.46336348 2.115772643e-21)
(101.6371982 5.560947229 2.292756377e-19)
(101.5125934 5.145084137 1.040591752e-19)
(101.4292549 3.850876476 -1.110617732e-19)
(101.5736602 4.168546763 1.377219789e-19)
(101.7183305 4.16768267 0)
(101.5505473 3.856189992 -1.284912083e-19)
(101.2739292 2.786169852 4.734537027e-20)
(101.4125519 3.009041237 4.665536071e-20)
(101.5051952 2.965432614 -9.359200726e-20)
(101.3539867 2.75905486 2.197572508e-19)
(101.1577116 2.101076313 0)
(101.0352125 1.942318995 4.889195839e-20)
(101.216666 2.05469889 0)
(101.0867967 1.907974515 0)
(100.7558345 1.233268057 2.930011068e-20)
(100.951055 1.446771811 1.902687145e-20)
(101.0131702 1.343720775 -1.646077694e-20)
(100.8087813 1.172272685 3.673309076e-20)
(100.538107 0.7984863993 -3.338289949e-20)
(100.6821543 0.9416777698 -1.491286856e-20)
(100.7185415 0.860001334 -1.50467671e-20)
(100.5714559 0.7493023038 -7.332474758e-21)
(100.3735134 0.3688925168 -9.403897745e-21)
(100.564516 0.4555356466 -1.928986552e-20)
(100.599267 0.6153984539 -2.557976754e-21)
(100.4934784 0.5932968956 5.77288261e-21)
(100.2655793 0.2079021419 7.731805867e-21)
(100.3922057 0.2673551514 1.17344103e-20)
(100.2054142 0.09296146151 -1.95391004e-21)
(100.284974 0.1364180893 -3.445594586e-21)
(100.2351204 0.04171567996 -4.944179181e-22)
(99.86442606 0.01357412205 0)
(99.88704169 -0.004697712194 0)
(99.78468223 0.04681694488 4.615102281e-21)
(99.82589184 -0.005726992513 0)
(99.64146326 0.1207553991 1.174265787e-20)
(99.69717835 0.02460290268 -3.677412048e-21)
(99.44419198 0.2895197815 1.933544724e-20)
(99.48253904 0.09743126244 2.58189558e-20)
(99.37309769 0.2448039721 -7.7713541e-21)
(99.4448702 0.353654489 2.735632168e-20)
(99.33416085 0.3088540814 2.191953358e-21)
(99.31308237 0.4076541208 -1.113482012e-20)
(99.14059728 0.6604155914 0)
(99.14380133 0.5604544532 -2.299485745e-20)
(98.95898568 0.6125027095 -1.891649906e-20)
(98.94286376 0.7543848015 4.69118862e-21)
(98.72142899 1.141623213 0)
(98.7084214 0.9997086075 4.690686366e-21)
(98.43562197 1.096111548 -4.859784766e-21)
(98.48780874 1.308358389 2.333790556e-20)
(98.37337962 1.30070118 6.058494634e-21)
(98.25515066 1.791861401 4.062925722e-19)
(98.22655176 1.691285019 1.381698847e-19)
(98.05022764 1.790582256 1.371548368e-19)
(98.08181359 1.908737221 -2.73257226e-19)
(97.70368362 2.825877366 -2.983849418e-19)
(97.63530743 2.701355816 -3.112692999e-19)
(97.41639054 2.855954971 -5.893139958e-19)
(97.49056809 3.013284751 -8.801162738e-19)
(97.23695385 4.240041242 2.713319293e-19)
(97.10275648 4.107504432 5.727699855e-19)
(96.84120059 4.364991116 4.172310816e-19)
(96.9995255 4.530072182 -1.526909854e-19)
(97.08277196 6.08583646 5.022498533e-19)
(96.84279088 5.984718697 4.563388482e-19)
(96.57237133 6.403196735 4.582494515e-19)
(96.86909559 6.526774527 -4.687442088e-19)
(97.71227201 8.173304943 2.321048001e-20)
(97.34006765 8.225542008 7.649219268e-19)
(97.20272209 8.851398303 1.520411518e-19)
(97.66450773 8.762148887 -4.453373496e-19)
(99.53693065 9.55361243 -6.838476122e-20)
(99.1630963 9.929544929 1.029446208e-19)
(99.38026401 10.57641393 -1.324825348e-19)
(99.7850239 10.08228321 -1.330098875e-19)
(101.6995747 9.076697389 -1.092907453e-19)
(101.5917523 9.689071163 2.293564562e-20)
(102.0382237 10.00821297 8.50977836e-20)
(102.0791859 9.308464612 5.376807896e-20)
(102.8256388 7.176222435 -2.592052042e-19)
(102.9915318 7.746708561 3.212538908e-20)
(103.353667 7.746660886 -3.509837804e-23)
(103.1161333 7.167067878 3.54873387e-19)
(102.8316247 5.06902299 0)
(103.0941137 5.474092304 0)
(103.304752 5.348209205 -1.025358092e-19)
(102.9992658 4.966846229 -3.507423461e-21)
(102.3508496 3.430797163 0)
(102.5871401 3.680481116 0)
(102.683104 3.550389721 2.272881673e-19)
(102.4345975 3.324532558 0)
(102.007955 2.448373056 -1.479312544e-20)
(101.8319022 2.29432692 -3.795544425e-21)
(102.0584029 2.339353018 3.360072347e-20)
(101.8782155 2.206733451 2.257898813e-20)
(101.2980406 1.409374285 -9.370073822e-20)
(101.5755945 1.610973176 -5.926151492e-20)
(101.60537 1.423792689 -3.312352755e-20)
(101.3311252 1.283375206 -1.691876485e-20)
(100.9141821 0.888750735 1.151042633e-20)
(101.1155094 1.014247112 3.478065072e-20)
(101.1213493 0.8808391533 -3.877028535e-21)
(100.9295459 0.7934609625 -3.801843784e-21)
(100.5706002 0.3555109302 1.986017596e-21)
(100.797377 0.3913099621 0)
(100.901672 0.5934656591 -7.179703796e-23)
(100.7877927 0.6120503195 -1.033837505e-20)
(100.4009837 0.1935828214 4.423241749e-22)
(100.5448786 0.2210872662 1.985838549e-21)
(100.3057018 0.08431884517 -1.989227479e-21)
(100.388021 0.1062026494 -1.991364115e-21)
(100.3146457 0.03151365768 -1.992041722e-21)
(99.85549084 -0.02384192369 0)
(99.90955603 -0.02724313598 2.262411339e-21)
(99.74727085 -0.02863050164 -9.235256045e-21)
(99.83049784 -0.07483848841 -2.280767994e-21)
(99.5515 0.003776244234 9.628978591e-21)
(99.6667941 -0.09452638226 -4.574379229e-21)
(99.26410707 0.135876579 1.257763797e-20)
(99.39103115 -0.07565376981 3.954448223e-21)
(99.20391351 0.06682492944 -4.081725802e-23)
(99.23658754 0.236479347 -9.311744694e-21)
(99.12789004 0.1385702573 -9.451738865e-21)
(99.07095735 0.2514129434 0)
(98.78096669 0.5223263557 -1.891603209e-20)
(98.82774967 0.3895941281 0)
(98.61448599 0.3897255251 -1.363617069e-22)
(98.5364172 0.5674237807 -9.896374439e-23)
(98.14686973 0.9881015166 9.808769126e-21)
(98.19186541 0.7973829101 1.468295899e-20)
(97.87140631 0.8156810487 1.985034955e-20)
(97.84693379 1.128934505 -1.640097956e-20)
(97.74107381 1.05387599 -1.651426973e-20)
(97.42826962 1.648792905 -1.144262757e-19)
(97.437667 1.504034612 0)
(97.22415076 1.552495727 0)
(97.20771518 1.724408424 4.970198789e-19)
(96.49715577 2.748030884 -7.066934144e-19)
(96.46837635 2.548716181 -1.067294212e-18)
(96.18103331 2.64472775 2.568207706e-20)
(96.20966752 2.891754048 -7.095350421e-19)
(95.49190927 4.428524188 -6.077735692e-19)
(95.39465486 4.171758508 7.026828945e-19)
(95.00585454 4.334771479 -2.563361858e-19)
(95.11528427 4.690824381 -1.224384521e-18)
(94.61611816 7.071139617 -6.129165246e-19)
(94.34001378 6.717966831 6.867222174e-19)
(93.81219517 7.139506793 5.273545345e-19)
(94.1535262 7.581396375 7.871260249e-19)
(94.89999939 11.04335268 -9.131878868e-19)
(94.2332698 10.80392198 2.978528003e-19)
(93.75385631 11.79048979 -5.349297105e-19)
(94.65327406 12.03484533 0)
(98.59211264 14.58809514 0)
(97.69619773 15.11712769 1.651179845e-20)
(98.19083482 16.41296813 0)
(99.18916132 15.55751261 0)
(103.641098 13.40715101 5.433788615e-20)
(103.46351 14.48328649 8.139970568e-21)
(104.501359 14.78128684 3.110209487e-19)
(104.4538021 13.55616338 -3.740558324e-19)
(105.5336771 9.460586788 4.517221443e-20)
(105.9085338 10.28197344 -4.46888147e-19)
(106.5205231 10.00094312 -2.356324829e-19)
(105.9920102 9.219485367 2.315547376e-19)
(105.0267952 6.034500293 7.273205226e-19)
(105.5007155 6.497579494 -8.805896917e-20)
(105.7288274 6.180424937 -3.782392394e-20)
(105.2008768 5.735898743 4.880503581e-19)
(103.8255433 3.748277641 3.664760927e-19)
(104.1986472 3.995365662 4.880515969e-19)
(104.2498848 3.743622429 1.024429316e-18)
(103.8746247 3.540422082 1.191123961e-19)
(103.0329631 2.474352505 9.547500853e-20)
(102.7838329 2.348130285 4.005679062e-22)
(103.042147 2.303301382 -3.179351687e-20)
(102.8002332 2.199961402 -8.083227583e-20)
(101.9233059 1.378427594 2.721743754e-20)
(102.2721036 1.523835795 -2.208926883e-22)
(102.2379953 1.266769039 1.642863171e-20)
(101.9071098 1.18825124 1.225116641e-20)
(101.3286423 0.8321863433 -1.605329174e-20)
(101.5826291 0.9161261576 -8.167722556e-21)
(101.5339467 0.7401648467 -8.169304938e-21)
(101.3056129 0.6977487824 1.239513568e-20)
(100.7585577 0.2621458447 0)
(101.0084224 0.2322839332 1.307411031e-21)
(101.1908077 0.448169927 -1.095910933e-20)
(101.0880703 0.5238270566 2.722053342e-20)
(100.5208854 0.1319511874 -4.999892147e-22)
(100.6675955 0.1123806827 -1.547574777e-21)
(100.3882201 0.05346588431 -2.001654659e-21)
(100.4620129 0.04189511337 -2.260532585e-21)
(100.3650642 0.01060983357 2.568692623e-21)
(99.89076211 -0.07748396061 -1.763538556e-23)
(99.98266322 -0.05693867273 9.592194899e-23)
(99.75770736 -0.1395159982 2.37661592e-21)
(99.88908378 -0.1660268041 -1.162988643e-22)
(99.51622658 -0.1717926384 -1.242830949e-20)
(99.69741318 -0.2547902131 1.900935485e-21)
(99.13697912 -0.09861326425 -1.11745729e-20)
(99.37175341 -0.3144365255 -1.886644526e-20)
(99.10802105 -0.2033730697 -1.613061297e-20)
(99.06450352 0.01229105886 -8.777739762e-21)
(98.99201632 -0.1361948754 -3.530335492e-21)
(98.88269614 -0.02162833326 3.488895826e-23)
(98.46912155 0.2161995619 1.434193871e-20)
(98.57299561 0.06843418904 1.463589293e-20)
(98.35301116 0.00468870515 7.227738515e-21)
(98.20139767 0.1915514742 2.497268406e-20)
(97.63316519 0.5788272426 -2.514796464e-20)
(97.76185962 0.3536003204 -2.023730452e-20)
(97.43867513 0.2802703142 -7.250762037e-20)
(97.28748832 0.618083225 -7.366337439e-20)
(97.20566556 0.5069181818 2.029673141e-19)
(96.65812886 1.116229004 -6.049442739e-19)
(96.72461772 0.941539913 -4.172586253e-20)
(96.49509243 0.9244823373 -8.984144767e-20)
(96.40891497 1.123948167 0)
(95.28984042 2.087927987 -2.364227124e-20)
(95.34446392 1.827382238 -1.215114207e-18)
(95.02482329 1.823914833 -4.245767662e-19)
(94.94528224 2.123326366 -8.342837862e-19)
(93.51385999 3.667900536 -3.149082914e-19)
(93.54398682 3.266904423 -3.224166022e-19)
(93.05431672 3.297921692 9.866492744e-19)
(92.98774796 3.765382798 -9.732798701e-20)
(91.02920042 6.552293021 4.427614767e-19)
(90.94610765 5.872982411 6.618527676e-19)
(90.06888163 6.028409507 -1.19940537e-18)
(90.1270865 6.904431868 1.110142131e-18)
(88.29400611 13.34795267 -9.34666571e-19)
(87.48274608 12.0820404 -6.420996492e-20)
(85.5460846 13.60544104 2.583881139e-19)
(85.79360805 12.72879868 -6.228668745e-19)
(87.38924516 14.94791321 2.822396357e-19)
(86.3300832 14.99833825 -6.198614519e-19)
(93.51347457 25.27748448 -3.346074245e-20)
(94.94207534 24.8235933 1.727316342e-19)
(94.07744064 27.14478278 -2.907376634e-19)
(95.80541979 26.24169304 -2.305657565e-19)
(109.2051229 21.34457867 -1.695179696e-18)
(109.2903207 19.49072311 -5.007296099e-19)
(110.9695842 18.91445254 1.305014499e-20)
(110.1548239 22.06041876 5.356102913e-19)
(112.2291068 20.65972575 -2.352630697e-19)
(111.8647047 21.52982686 -2.359982916e-19)
(111.3021621 12.12627191 1.585673195e-20)
(110.3617702 11.13351522 4.51401319e-19)
(111.9377964 11.18229552 1.610219565e-18)
(110.8322011 10.42410057 5.819056755e-19)
(108.0595788 6.158366252 7.980869462e-19)
(108.837692 6.584217363 1.175691845e-19)
(108.9148515 5.954330962 6.334303722e-19)
(108.1233135 5.65919368 1.795742158e-19)
(105.6099069 3.454647078 8.676542726e-19)
(106.1382556 3.631401919 5.62685452e-19)
(106.0714358 3.255769977 6.150829567e-21)
(105.563504 3.145456589 8.669052875e-19)
(104.1425018 2.065980544 3.092983761e-19)
(103.8146588 2.000747241 6.916602863e-20)
(104.0717906 1.840245247 3.491003948e-20)
(103.7624216 1.794777875 -3.504429109e-21)
(102.53498 1.085396696 4.288242304e-21)
(102.9416505 1.130278057 -1.879335344e-20)
(102.7998207 0.8336274105 -2.438071715e-21)
(102.4441889 0.8488081196 -4.42921116e-21)
(101.7237024 0.601808093 4.403402166e-21)
(102.014581 0.6222553177 -2.252752293e-23)
(101.8963592 0.4214842829 -7.223298242e-21)
(101.6446999 0.4389910943 8.886732181e-21)
(100.9005647 0.0870778654 -2.052724546e-22)
(101.1417302 -0.01718095667 -2.808782498e-22)
(101.4260198 0.1761868577 8.401843984e-22)
(101.3461433 0.2809690449 6.540550047e-21)
(100.5978007 0.02196951076 -3.31185271e-21)
(100.7288939 -0.0555495312 -2.470559522e-22)
(100.4302999 -0.0003203791118 2.484906524e-21)
(100.4829838 -0.05379470988 -2.187945443e-21)
(100.3647462 -0.02029165831 4.066395489e-22)
(99.98559677 -0.1441996954 1.845471804e-23)
(100.1186932 -0.09170159908 -3.3540653e-21)
(99.83445286 -0.2782791502 -6.178141947e-22)
(100.0155901 -0.2727545478 1.460194682e-21)
(99.56021019 -0.3941313053 -4.832233401e-21)
(99.80677982 -0.4435980486 -3.180168068e-21)
(99.10728405 -0.4118018404 9.976748421e-21)
(99.45063304 -0.5981611561 -1.10039074e-21)
(99.1200347 -0.5434586707 1.051236161e-21)
(98.98224859 -0.3075738435 4.903097513e-21)
(98.96685317 -0.4921242791 1.013085547e-20)
(98.80412751 -0.3953415793 7.156878291e-21)
(98.27612561 -0.2381048169 -2.43505739e-21)
(98.44486177 -0.3782372182 3.797123631e-21)
(98.24312305 -0.5061554508 2.505393925e-21)
(98.01827953 -0.3430453968 7.602084736e-21)
(97.30027905 -0.06978717155 -2.810448306e-21)
(97.51755619 -0.2887690668 4.225031733e-20)
(97.22660289 -0.457458401 4.235443211e-20)
(96.93624996 -0.1305999162 2.581299377e-19)
(96.90168866 -0.2853804419 -3.260018951e-19)
(96.11818061 0.2280547302 7.872772811e-21)
(96.25235453 0.05366791912 3.88134841e-19)
(96.0356288 -0.03543220401 5.75208911e-19)
(95.87261776 0.1554340652 3.758079596e-19)
(94.40636903 0.8287485894 -6.54823439e-19)
(94.56880063 0.5623233734 8.579102392e-19)
(94.26776098 0.4465465271 -1.138083709e-18)
(94.06355385 0.7336003851 -2.291841659e-19)
(91.97478222 1.781726194 5.593285072e-20)
(92.21210193 1.368354771 -6.021469654e-20)
(91.75130469 1.186031179 -4.248729287e-22)
(91.43466132 1.627760124 4.085475843e-22)
(87.82091551 3.338204542 -2.021628793e-18)
(88.26715492 2.59734151 -5.248341373e-19)
(87.46512354 2.208090223 -1.043151901e-18)
(86.78252498 2.993907173 -1.566697311e-21)
(79.19188335 6.132719456 -6.212068822e-19)
(79.82047254 5.15257106 6.078451563e-19)
(78.87547336 4.480624682 0)
(77.93325804 5.509722795 7.179603194e-19)
(127.1651836 23.99871019 1.675557045e-18)
(125.1581287 22.95830896 0)
(127.7634499 21.87191538 0)
(125.8359044 21.27588031 0)
(119.0120435 10.01391871 5.660114847e-19)
(117.2177188 9.560963681 -2.113117594e-20)
(118.8610563 8.33572012 6.207182933e-19)
(117.2008743 8.278795176 1.130417309e-18)
(111.4582879 4.616880207 1.422662396e-18)
(112.5354783 4.73547365 -3.197822224e-19)
(112.2043285 3.912401926 6.321834132e-19)
(111.2260735 3.947543581 6.160586535e-19)
(107.3546397 2.313399686 -6.645006815e-19)
(107.9973564 2.316187712 6.382599698e-21)
(107.7163777 1.887301722 -3.561386348e-19)
(107.1381131 1.945229546 -6.618807904e-19)
(105.1197683 1.152265457 3.156656561e-19)
(104.7436841 1.182623208 4.786859889e-19)
(104.9403779 0.9072647309 1.059305747e-18)
(104.6004214 0.9570105108 1.409314517e-19)
(103.0196487 0.5177600062 -4.760531535e-21)
(103.4527382 0.4439914316 -2.336071553e-21)
(103.1825227 0.1472558332 7.510883551e-21)
(102.8379058 0.2707638605 1.134689039e-21)
(102.0297394 0.2020782616 -2.003446655e-21)
(102.324644 0.1400924632 1.339010745e-20)
(102.1249887 -0.05138850357 4.956237937e-21)
(101.8840236 0.03890665744 9.843096037e-21)
(100.9588298 -0.1562307188 -3.401546144e-22)
(101.1668647 -0.3397477163 -1.046107808e-21)
(101.5458054 -0.201756246 -1.058581541e-21)
(101.5135508 -0.05696143846 -1.16301727e-21)
(100.6053501 -0.1292879389 1.0677219e-21)
(100.7033662 -0.2689872301 1.300875164e-21)
(100.4104048 -0.0726319823 -4.225284193e-21)
(100.429484 -0.1737153612 1.656446664e-21)
(100.2962139 -0.0591339513 -2.08477495e-21)
(100.1510584 -0.2187498028 -1.91228283e-21)
(100.3250424 -0.1287805016 1.059687897e-21)
(99.99071666 -0.4338184795 -1.116608246e-21)
(100.2184985 -0.3865260612 -7.840287806e-22)
(99.70060296 -0.6440986999 5.728811578e-22)
(100.0051894 -0.6449196078 -2.815382654e-22)
(99.20011592 -0.7725946542 6.523976291e-22)
(99.64114931 -0.9017504544 9.503141102e-22)
(99.26079394 -0.9193754936 5.696709292e-22)
(99.02300189 -0.6917082125 1.659459248e-21)
(99.07764423 -0.8945294898 -1.671896964e-23)
(98.86744666 -0.8303923227 -1.67213476e-23)
(98.25916322 -0.7919011958 -2.500385207e-21)
(98.48660202 -0.9012549866 0)
(98.32579571 -1.086819851 -1.227815924e-21)
(98.04090108 -0.9717074803 -1.308391453e-21)
(97.22263638 -0.8689281206 4.046301584e-21)
(97.51984711 -1.04342237 2.035007428e-23)
(97.29085579 -1.289664733 1.314454364e-21)
(96.88035833 -1.025292851 -5.934813135e-20)
(96.90310287 -1.201149082 4.777320461e-19)
(95.94868447 -0.8748478433 0)
(96.14021948 -1.019924567 4.538977091e-20)
(95.96952711 -1.164100887 3.936366078e-19)
(95.73509413 -1.016231111 1.889395254e-18)
(94.11548801 -0.7593987774 -9.11736521e-19)
(94.35896975 -0.9703956979 6.769406768e-19)
(94.14406053 -1.161714111 1.741162094e-20)
(93.83303681 -0.9507794651 3.712296689e-22)
(91.56255469 -0.6487477197 -5.720913977e-19)
(91.95129217 -0.9330944161 -2.528013875e-19)
(91.64151127 -1.228019206 -1.585489103e-20)
(91.18446064 -0.9647461652 -2.565363221e-20)
(87.55669463 -0.9722878288 1.579477257e-18)
(88.25998435 -1.316171133 1.01689296e-18)
(87.84188149 -1.847669751 1.561834084e-18)
(87.03679112 -1.598100063 -2.373356604e-20)
(81.98021537 -3.303850814 -1.234717452e-20)
(82.63832783 -3.319340523 1.167565357e-18)
(82.56402715 -3.832771183 -3.152123352e-22)
(81.95916506 -3.927696331 1.042104928e-18)
(140.4108035 5.723717242 0)
(138.6790636 6.78507671 1.193673457e-18)
(139.0099079 4.333122979 1.21900285e-18)
(137.566816 5.3902485 -1.120675212e-18)
(124.0786143 2.274867426 2.501630153e-18)
(122.2987996 3.015771932 7.362112166e-19)
(122.7874365 0.9485547883 -5.619943126e-21)
(121.3907245 1.797798435 7.665925673e-19)
(113.8477635 1.156920127 -9.386601495e-19)
(114.936749 0.7718905048 -1.676855752e-19)
(114.1299008 0.09702098792 6.143562603e-19)
(113.2278511 0.5456080592 -2.444051186e-19)
(108.5226704 0.3297795488 -1.059715045e-18)
(109.1682958 0.09786942478 -1.082993313e-18)