/*--------------------------------*- C++ -*----------------------------------*\
| =========                 |                                                 |
| \\      /  F ield         | OpenFOAM: The Open Source CFD Toolbox           |
|  \\    /   O peration     | Version:  v1912                                 |
|   \\  /    A nd           | Website:  www.openfoam.com                      |
|    \\/     M anipulation  |                                                 |
\*---------------------------------------------------------------------------*/
FoamFile
{
    version     2.0;
    format      ascii;
    class       surfaceScalarField;
    location    "2.19";
    object      meshPhi;
}
// * * * * * * * * * * * * * * * * * * * * * * * * * * * * * * * * * * * * * //

dimensions      [0 3 -1 0 0 0 0];
oriented        oriented;


internalField   nonuniform List<scalar> 
25162
(
0
0
0
0
0
0
0
0
0
0
0
0
0
0
0
0
0
0
0
0
0
0
0
0
0
0
0
0
0
0
0
0
0
0
0
0
0
0
0
0
0
0
0
0
0
0
0
0
0
0
0
0
0
0
0
0
0
0
0
0
0
0
0
0
0
0
0
0
0
0
0
0
0
0
0
0
0
0
0
0
0
0
0
0
0
0
0
0
0
0
0
0
0
0
0
0
0
0
0
0
0
0
0
0
-1.005747414e-09
-1.068699737e-07
1.196749343e-06
0
3.824368798e-10
-1.01736554e-06
0
0
0
0
0
0
0
0
0
0
0
0
0
0
0
0
0
0
0
0
0
0
0
0
0
0
0
0
0
0
0
0
0
0
0
0
0
0
0
0
0
0
0
0
0
0
0
0
0
0
0
0
0
0
0
0
0
0
0
0
0
0
0
0
0
0
4.442587394e-09
1.745568836e-06
-4.193632947e-07
-1.107372079e-05
1.660379375e-06
9.861753991e-05
-3.904280703e-06
-0.0001395390832
2.024118944e-06
0.0002580441208
-3.334272626e-06
-0.0002884673608
-4.768923432e-07
0.0003313841682
1.177399402e-06
-0.0003271153213
-1.993893292e-06
0.0002611699887
3.745357853e-06
-0.0002249195259
-9.081051858e-07
0.0001006329982
2.410451068e-06
-6.28801381e-05
0
1.881007972e-06
6.022787048e-08
0
0
0
0
0
0
0
0
0
0
0
0
0
0
0
0
0
0
0
0
0
0
0
0
0
0
0
0
0
0
0
0
0
0
0
0
0
0
0
0
0
0
0
0
0
0
0
0
0
0
0
2.192382007e-07
3.70395266e-06
-1.170258167e-06
-2.659237337e-05
8.877653916e-06
0.0002342693032
-1.415149911e-05
-0.0003353789539
1.529597436e-05
0.0006703763537
-2.001478162e-05
-0.0007785530896
6.804232561e-06
0.001045978179
-7.227009216e-06
-0.001108263898
-6.874976043e-06
0.001195031105
1.021742274e-05
-0.001188502522
-1.313392722e-05
0.001062920631
1.776468125e-05
-0.0009881476171
-1.029645717e-05
0.0006892504188
1.391466127e-05
-0.0005744692035
-3.963314979e-06
0.0002417171173
6.255039559e-06
-0.0001507589478
0
3.764321317e-06
2.144621524e-07
0
0
0
0
0
0
0
0
0
0
0
0
0
0
0
0
0
0
0
0
0
0
0
0
0
0
0
0
0
0
0
0
0
0
0
0
0
0
0
0
0
0
0
0
0
-7.412732066e-08
-1.387661367e-06
1.071985025e-05
0.0001706575993
-1.733419963e-05
-0.000293124483
3.502630338e-05
0.0007798773753
-4.277302243e-05
-0.0009609243767
3.346919306e-05
0.001478149127
-3.705450669e-05
-0.001626380479
5.52156646e-06
0.001959724267
-4.131131929e-06
-0.00203059112
-2.32755763e-05
0.002125611604
2.777988727e-05
-0.002119633342
-3.541967535e-05
0.001985689466
4.192650644e-05
-0.001899895082
-2.742128481e-05
0.00151735054
3.273396474e-05
-0.001353580765
-2.724445617e-05
0.0008310617427
3.440014873e-05
-0.0006580987306
-3.92120782e-06
0.0001998359845
5.610348929e-06
-9.9694947e-05
0
0
0
0
0
0
0
0
0
0
0
0
0
0
0
0
0
0
0
0
0
0
0
0
0
0
0
0
0
0
0
0
0
0
0
0
0
0
0
0
0
0
2.366256135e-06
1.966435011e-05
-3.996946289e-06
-8.509543792e-05
3.518906302e-05
0.0005178796377
-4.172546951e-05
-0.0007199564154
8.165567448e-05
0.001415052542
-7.757425396e-05
-0.001648963812
4.813874622e-05
0.002197061042
-6.600944552e-05
-0.002314443985
5.037695199e-07
0.00254654725
-3.322697605e-06
-0.002576712269
-3.730619273e-05
0.002604383473
3.815983536e-05
-0.002603038316
-6.596825071e-05
0.002562516455
7.197168752e-05
-0.002515632472
-0.0001035586606
0.002266947316
0.0001048917882
-0.002100258783
-2.474735352e-05
0.001460822422
2.750341929e-05
-0.001231760741
-1.045426685e-05
0.0005639510998
1.216461212e-05
-0.0003768887824
2.599223589e-05
-4.98650314e-07
8.497348093e-07
-3.968323313e-07
0
0
0
0
0
0
0
0
0
0
0
0
0
0
0
0
0
0
0
0
0
0
0
0
0
0
0
0
0
0
0
0
0
0
0
-6.572228332e-08
-1.437198918e-08
-5.441257365e-07
9.621673181e-06
9.77406337e-05
-1.180926048e-05
-0.0002202788083
6.192443717e-05
0.0008146483538
-6.350812441e-05
-0.001074444699
7.810283973e-05
0.001841046453
-8.147936917e-05
-0.002065752266
6.590054124e-05
0.002561342005
-4.420024632e-05
-0.002661161319
4.09395491e-05
0.002749749325
-8.088331061e-05
-2.076952037e-05
-0.001327376092
-0.001361659951
0.001319896235
-1.718243586e-05
1.71610762e-05
-0.001319874876
0.001356689427
-0.0001336149976
-0.002725805316
0.001379516551
4.914154435e-05
7.40727914e-05
0.002571337621
-7.163800562e-05
7.89869577e-05
-0.002466756981
-4.291543102e-05
0.001926990385
4.674412148e-05
-0.001685351495
-1.529146496e-05
0.000899425208
1.520148255e-05
-0.0006618368046
0.0001332480823
-3.071469012e-06
3.820890861e-06
-4.23864206e-05
0
0
0
0
0
0
0
0
0
0
0
0
0
0
0
0
0
0
0
0
0
0
0
0
0
0
0
0
0
0
0
0
0
2.715236941e-07
0
-5.647586671e-07
-4.961116294e-06
-7.557371777e-06
1.640537974e-05
0.000161752497
-1.696611e-05
-0.0003165161122
7.249898439e-05
0.001003655432
-7.34810834e-05
-0.001275182926
8.267244108e-05
0.002061968095
-8.08494267e-05
-0.002280604845
2.867270217e-05
0.002683359521
-2.458755071e-05
-0.00271319844
2.389806261e-06
0.001374635728
-4.572442584e-06
-0.001372453091
0.001361440448
-3.949061421e-05
3.745824992e-05
-0.001359408083
0.00268891795
-8.762478773e-05
9.01393046e-05
-0.002632135058
-4.383267669e-05
0.002162757082
4.479258615e-05
-0.001928362347
-1.690525661e-05
0.001122475132
1.836466855e-05
-0.0008578851927
0.0002328142304
-5.365858918e-06
5.947414126e-06
-0.0001021433523
0
0
0
0
0
0
0
0
0
0
0
0
0
0
0
0
0
0
0
0
0
0
0
0
0
0
0
0
0
0
0
0
0
7.163096094e-07
0
-9.000555486e-07
-1.343794343e-05
-1.510476475e-05
1.978763861e-05
0.0002005570643
-2.040577833e-05
-0.0003695584975
7.716698671e-05
0.001088368814
-7.788648279e-05
-0.001365060244
7.984737924e-05
0.002147361233
-7.969042006e-05
-0.002355778586
2.03941259e-05
0.002704306106
-2.002279656e-05
-0.002715879873
-3.091647161e-06
0.001358139016
3.091529672e-06
-0.001358138898
0.001366116975
-3.330197664e-05
3.260588553e-05
-0.001365420884
0.002726925119
-8.8090028e-05
8.745460653e-05
-0.002692999097
-4.830735829e-05
0.00227748534
4.893676326e-05
-0.002052577048
-1.751570996e-05
0.00124708355
1.774374408e-05
-0.000972597223
0.000289608863
-6.6297201e-06
6.831857986e-06
-0.0001408564863
0
0
0
0
0
0
0
0
0
0
0
0
0
0
0
0
0
0
0
0
0
0
0
0
0
0
0
0
0
0
0
0
0
1.087665532e-06
0
-1.345935741e-06
-2.019440799e-05
-2.243799801e-05
2.194078043e-05
0.00022550088
-2.256497837e-05
-0.0004027590757
7.979842378e-05
0.001139176234
-8.053622126e-05
-0.001418475163
7.953297337e-05
0.002197242404
-7.945430895e-05
-0.00240080498
1.942021818e-05
0.002726368301
-1.936287547e-05
-0.002732700765
-3.220658164e-06
0.001364852169
2.776907117e-06
-0.0006817315585
-0.0006826768598
0.00137302061
-3.072377173e-05
3.026930986e-05
-0.001372566148
0.00274041309
-8.506646695e-05
8.411006945e-05
-0.002703904249
-4.747919475e-05
0.002279969463
4.685287919e-05
-0.002052864166
-1.720725613e-05
0.001242700742
1.713677903e-05
-0.0009681773527
0.0002866705629
-6.628863966e-06
6.558503572e-06
-0.0001386586258
0
0
0
0
0
0
0
0
0
0
0
0
0
0
0
0
0
0
0
0
0
0
0
0
0
0
0
0
0
0
0
0
0
1.624324909e-06
0
-1.945994994e-06
-2.989707733e-05
-3.269788766e-05
2.452054577e-05
0.0002562362348
-2.52101264e-05
-0.0004430821707
8.272991903e-05
0.001200042648
-8.348499267e-05
-0.001482484301
7.916413774e-05
0.002257813528
-7.904800765e-05
-0.002455981217
1.883772954e-05
0.002755823935
-1.871458727e-05
-0.002758291755
-2.972475611e-06
0.001378124763
2.84540187e-06
-0.0006887472444
-0.0006892504444
0.001383119503
-2.910193048e-05
2.869853499e-05
-0.001382716108
0.002753081728
-7.894969414e-05
7.717661366e-05
-0.002690386917
-4.266647837e-05
0.002196701489
4.308733687e-05
-0.001964780435
-1.581670211e-05
0.001142874598
1.554309211e-05
-0.0008730951588
0.0002281852326
-5.489021037e-06
5.256322677e-06
-9.79980056e-05
0
0
0
0
0
0
0
0
0
0
0
0
0
0
0
0
0
0
0
0
0
0
0
0
0
0
0
0
0
0
0
0
0
2.347299948e-06
0
-2.499574973e-06
-4.288960627e-05
-4.421810289e-05
2.746527758e-05
0.0002919323743
-2.834788044e-05
-0.0004888504585
8.582305888e-05
0.001266148988
-8.671048126e-05
-0.001551144038
7.862256831e-05
0.002319936854
-7.843611962e-05
-0.002511472379
1.838560374e-05
0.002781581594
-1.853211173e-05
-0.002781647485
-2.534550422e-06
0.001389997024
2.536692334e-06
-0.0006945536708
-0.0006954454955
0.001390505702
-2.743720347e-05
2.740908483e-05
-0.001390477583
0.002729242857
-7.154177796e-05
6.91156717e-05
-0.002626175841
-3.800891585e-05
0.002052578674
3.389046765e-05
-0.001800817375
-1.399608689e-05
0.0009726947107
1.293755398e-05
-0.0007152103624
0.0001487536076
-3.795808648e-06
3.315238448e-06
-4.846264046e-05
0
0
0
0
0
0
0
0
0
0
0
0
0
0
0
0
0
0
0
0
0
0
0
0
0
0
0
0
0
0
0
0
0
3.61916673e-06
0
-5.356089238e-06
-6.572059024e-05
-7.480123417e-05
3.088716858e-05
0.0003424559719
-3.323272706e-05
-0.0005490803871
8.963061716e-05
0.001349798525
-9.031507109e-05
-0.001635489575
7.764673157e-05
0.002389114269
-7.891622864e-05
-0.002573991776
1.830948206e-05
0.00280539681
-1.915623519e-05
-0.001401589858
-0.001402960199
-1.009087223e-06
0.0006998982738
8.146876334e-07
-0.0006997038742
-9.956254045e-07
0.0003489701023
4.489942369e-07
-0.0006975793099
0.0003491558388
0.001396408301
-2.725281928e-05
5.721285496e-05
-0.002795221945
0.001397493737
-2.864012794e-05
-6.429620092e-05
0.002651593989
5.88053173e-05
-0.002500267352
-2.785652405e-05
0.001845193352
2.666313586e-05
-0.001576305699
-1.137584002e-05
0.0007640004778
1.110707445e-05
-0.0005285235514
5.997967148e-05
-1.503359858e-06
1.209054273e-06
-5.913643449e-06
0
0
0
0
0
0
0
0
0
0
0
0
0
0
0
0
0
0
0
0
0
0
0
0
0
0
0
0
0
0
0
0
0
5.369372979e-06
0
-4.366442175e-06
-8.742491494e-05
-7.989188744e-05
3.675987889e-05
0.0003935110619
-3.553975673e-05
-0.0006148072502
9.349310613e-05
0.001436576722
-9.204832926e-05
-0.001724480175
7.488413513e-05
0.002463877672
-7.520086673e-05
-0.002634603636
1.698907628e-05
0.002829933858
-1.698907628e-05
-0.001414545508
-0.00141538835
-1.916909732e-06
0.001414545508
4.258909659e-06
-2.341999929e-06
-0.0007067566359
-0.000707788872
-1.786276319e-05
0.0007067566502
1.786274185e-05
-0.001414545508
0.0007077888792
0.002829933858
-6.443007298e-05
6.365055887e-05
-0.00282270003
-5.057572878e-05
0.002500981271
4.972964007e-05
-0.002312956533
-2.422565988e-05
0.001562310837
2.18605168e-05
-0.001293406374
-9.253388578e-06
0.0005259811601
9.285541918e-06
-0.0003352601968
8.113155187e-06
-2.586086089e-07
1.193854491e-07
0
0
0
0
0
0
0
0
0
0
0
0
0
0
0
0
0
0
0
0
0
0
0
0
0
0
0
0
0
0
0
0
0
0
2.65959019e-06
0
-9.509678712e-07
-3.979604413e-05
-2.487593566e-05
2.709547605e-05
0.0002785492125
-2.315198977e-05
-0.0004685852458
8.095803663e-05
0.001221499334
-7.507658845e-05
-0.001498597137
7.554280849e-05
0.002256741017
-7.457070763e-05
-0.002454383731
2.107936967e-05
0.002807166794
-2.45100558e-05
-0.002844555196
-4.258909675e-06
0.002854603514
1.021847728e-05
-0.002854603514
-5.959567629e-06
-3.742585316e-05
0.002854603514
3.74258532e-05
-0.002854603514
-5.804435259e-05
0.002804412879
5.485378742e-05
-0.002727101969
-3.973365423e-05
0.002253946235
3.662459611e-05
-0.002026205285
-1.573175709e-05
0.001234099782
1.486903246e-05
-0.000966299075
-6.401577603e-06
0.0002955351695
5.113509846e-06
-0.0001546743505
0
0
0
0
0
0
0
0
0
0
0
0
0
0
0
0
0
0
0
0
0
0
0
0
0
0
0
0
0
0
0
0
0
0
0
0
0
2.28551675e-08
0
0
-2.17986872e-07
0
1.074269232e-05
9.381694915e-05
-7.159436905e-06
-0.0002104378513
5.23605078e-05
0.0007731039917
-4.382931707e-05
-0.001005118529
6.531521034e-05
0.001711170643
-5.990967858e-05
-0.001923246173
3.150949534e-05
0.00241461105
-3.217757963e-05
-0.002523739432
-7.22135904e-06
0.002704837663
5.084616322e-06
-0.002726291522
-3.411088133e-05
0.002700018759
3.095754945e-05
-0.002658448938
-4.189344352e-05
0.002399494124
3.679434429e-05
-0.002261457956
-2.631821608e-05
0.001699805775
2.290130871e-05
-0.001475781314
-1.158090771e-05
0.0007819412746
1.023878898e-05
-0.0005698906436
-2.48952577e-06
0.000104097919
1.572890185e-06
-2.849277685e-05
0
0
0
0
0
0
0
0
0
0
0
0
0
0
0
0
0
0
0
0
0
0
0
0
0
0
0
0
0
0
0
0
0
0
0
0
0
0
0
0
0
0
6.620739714e-07
2.12072909e-07
-1.044517335e-07
-1.591864998e-05
1.965641802e-05
0.0002729358423
-1.313915723e-05
-0.0004150048246
3.870878765e-05
0.0009219308759
-3.099311106e-05
-0.001095860348
2.83296477e-05
0.001555104016
-2.530486167e-05
-0.001674674986
1.75505899e-06
0.001905204538
-3.452146199e-06
-0.001937275432
-1.820894072e-05
0.001898601841
1.39015407e-05
-0.001841217183
-2.151438087e-05
0.001542457522
1.700132304e-05
-0.001405213362
-1.35737615e-05
0.0009199851774
1.084515198e-05
-0.0007484280743
-5.510016813e-06
0.0002830896258
3.840412096e-06
-0.0001650869189
-2.608446492e-08
7.039867551e-07
0
0
0
0
0
0
0
0
0
0
0
0
0
0
0
0
0
0
0
0
0
0
0
0
0
0
0
0
0
0
0
0
0
0
0
0
0
0
0
0
0
0
0
0
0
0
0
0
1.338492559e-06
7.056725562e-06
-1.978515072e-07
-3.265291157e-05
1.085863791e-05
0.0002254252326
-6.149661763e-06
-0.0003133089608
1.354464635e-05
0.0005841225795
-9.602395841e-06
-0.0006635901973
4.952585671e-06
0.0008288212071
-4.321199526e-06
-0.0008536384598
-4.235785654e-06
0.0008278220716
2.404705e-06
-0.0007868720424
-6.683701989e-06
0.0005851912191
4.383082677e-06
-0.0004993554699
-3.959190556e-06
0.0002317909602
2.226763982e-06
-0.000152822255
-2.332645726e-07
8.759149781e-06
6.765122613e-10
-9.424804648e-08
0
0
0
0
0
0
0
0
0
0
0
0
0
0
0
0
0
0
0
0
0
0
0
0
0
0
0
0
0
0
0
0
0
0
0
0
0
0
0
0
0
0
0
0
0
0
0
0
0
0
0
0
0
0
2.995379222e-08
0
0
-1.157463395e-06
1.262666148e-06
3.158616957e-05
-1.953180489e-07
-4.889691796e-05
1.189606923e-06
9.521843703e-05
-4.109727964e-07
-0.0001034165644
-1.721846208e-07
9.621187891e-05
3.648301444e-08
-8.39503732e-05
-4.452206074e-07
3.338969793e-05
3.800893777e-08
-1.840291529e-05
0
0
0
0
0
0
0
0
0
0
0
0
0
0
0
0
0
0
0
0
0
0
0
0
0
0
0
0
0
0
0
0
0
0
0
0
0
0
0
0
0
0
0
0
0
0
0
0
0
0
0
0
0
0
0
0
0
0
0
0
0
0
0
0
0
0
0
0
0
0
0
0
0
0
0
0
0
0
0
0
0
0
0
0
0
0
0
0
0
0
0
0
0
0
0
0
0
0
0
0
0
0
0
0
0
0
0
0
0
0
0
0
0
0
0
0
0
0
0
0
0
0
0
0
0
0
0
0
0
0
0
0
0
0
0
0
0
0
0
0
0
0
0
0
0
0
0
0
0
0
0
0
0
0
0
0
0
0
0
0
0
0
0
0
0
0
0
0
0
0
0
0
0
0
0
0
0
0
0
0
0
0
0
0
0
0
0
0
0
0
0
0
0
0
0
0
0
0
0
0
0
0
0
0
0
0
0
0
0
0
0
0
0
0
0
0
0
0
0
0
0
0
0
0
0
0
0
0
0
0
0
0
0
0
0
0
0
0
0
0
0
0
0
0
0
0
0
0
0
0
0
0
0
0
0
0
0
0
0
0
0
0
0
0
0
0
0
0
0
0
0
0
0
0
0
0
0
0
0
0
0
0
0
0
0
0
0
0
0
0
0
0
0
0
0
0
0
0
0
0
0
0
0
0
0
0
0
0
0
0
0
0
0
0
0
0
0
0
0
0
0
0
0
0
0
0
0
0
0
0
0
0
0
0
0
0
0
0
0
0
0
0
0
0
0
0
0
0
0
0
0
0
0
0
0
0
0
0
0
0
0
0
0
0
0
0
0
0
0
0
0
0
0
0
0
0
0
0
0
0
0
0
0
0
0
0
0
0
0
0
0
0
0
0
0
0
0
0
0
0
0
0
0
0
0
0
0
0
0
0
0
0
0
0
0
0
0
0
0
0
0
0
0
0
0
0
0
0
0
0
0
0
0
0
0
0
0
0
0
0
0
0
0
0
0
0
0
0
0
0
0
0
0
0
0
0
0
0
0
0
0
0
0
0
0
0
0
0
0
0
0
0
0
0
0
0
0
0
0
0
0
0
0
0
0
0
0
0
0
0
0
0
0
0
0
0
0
0
0
0
0
0
0
0
0
0
0
0
0
0
0
0
0
0
0
0
0
0
0
0
0
0
0
0
0
0
0
0
0
0
0
0
0
0
0
0
0
0
0
0
0
0
0
0
0
0
0
0
0
0
0
0
0
0
0
0
0
0
0
0
0
0
0
0
0
0
0
0
0
0
0
0
0
0
0
0
0
0
0
0
0
0
0
0
0
0
0
0
0
0
0
0
0
0
0
0
0
0
0
0
0
0
0
0
0
0
0
0
0
0
0
0
0
0
0
0
0
0
0
0
0
0
0
0
0
0
0
0
0
0
0
0
0
0
0
0
0
0
0
0
0
0
0
0
0
0
0
0
0
0
0
0
0
0
0
0
0
0
0
0
0
0
0
0
0
0
0
0
0
0
0
0
0
0
0
0
0
0
0
0
0
0
0
0
0
0
0
0
0
0
0
0
0
0
0
0
0
0
0
0
0
0
0
0
0
0
0
0
0
0
0
0
0
0
0
0
0
0
0
0
0
0
0
0
0
0
0
0
0
0
0
0
0
0
0
0
0
0
0
0
0
0
0
0
0
0
0
0
0
0
0
0
0
0
0
0
0
0
0
0
0
0
0
0
0
0
0
0
0
0
0
0
0
0
0
0
0
0
0
0
0
0
0
0
0
0
0
0
0
0
0
0
0
0
0
0
0
0
0
0
0
0
0
0
0
0
0
0
0
0
0
0
0
0
0
0
0
0
0
0
0
0
0
0
0
0
0
0
0
0
0
0
0
0
0
0
0
0
0
0
0
0
0
0
0
0
0
0
0
0
0
0
0
0
0
0
0
0
0
0
0
0
0
0
0
0
0
0
0
0
0
0
0
0
0
0
0
0
0
0
0
0
0
0
0
0
0
0
0
0
0
0
0
0
0
0
0
0
0
0
0
0
0
0
0
0
0
0
0
0
0
0
0
0
0
0
0
0
0
0
0
0
0
0
0
0
0
0
0
0
0
0
0
0
0
0
0
0
0
0
0
0
0
0
0
0
0
0
0
0
0
0
0
0
0
0
0
0
0
0
0
0
0
0
0
0
0
0
0
0
0
0
0
0
0
0
0
0
0
0
0
0
0
0
0
0
0
0
0
0
0
0
0
0
0
0
0
0
0
0
0
0
0
0
0
0
0
0
0
0
0
0
0
0
0
0
0
0
0
0
0
0
0
0
0
0
0
0
0
0
0
0
0
0
0
0
0
0
0
0
0
0
0
0
0
0
0
0
0
0
0
0
0
0
0
0
0
0
0
0
0
0
0
0
0
0
0
0
0
0
0
0
0
0
0
0
0
0
0
0
0
0
0
0
0
0
0
0
0
0
0
0
0
0
0
0
0
0
0
0
0
0
0
0
0
0
0
0
0
0
0
0
0
0
0
0
0
0
0
0
0
0
0
0
0
0
0
0
0
0
0
0
0
0
0
0
0
0
0
0
0
0
0
0
0
0
0
0
0
0
0
0
0
0
0
0
0
0
0
0
0
0
0
0
0
0
0
0
0
0
0
0
0
0
0
0
0
0
0
0
0
0
0
0
0
0
0
0
0
0
0
0
0
0
0
0
0
0
0
0
0
0
0
0
0
0
0
0
0
0
0
0
0
0
0
0
0
0
0
0
0
0
0
0
0
0
0
0
0
0
0
0
0
0
0
0
0
0
0
0
0
0
0
0
0
0
0
0
0
0
0
0
0
0
0
0
0
0
0
0
0
0
0
0
0
0
0
0
0
0
0
0
0
0
0
0
0
0
0
0
0
0
0
0
0
0
0
0
0
0
0
0
0
0
0
0
0
0
0
0
0
0
0
0
0
0
0
0
0
0
0
0
0
0
0
0
0
0
0
0
0
0
0
0
0
0
0
0
0
0
0
0
0
0
0
0
0
0
0
0
0
0
0
0
0
0
0
0
0
0
0
0
0
0
0
0
0
0
0
0
0
0
0
0
0
0
0
0
0
0
0
0
0
0
0
0
0
0
0
0
0
0
0
0
0
0
0
0
0
0
0
0
0
0
0
0
0
0
0
0
0
0
0
0
0
0
0
0
0
0
0
0
0
0
0
0
0
0
0
0.001358702022
-0.001358764342
-3.029326932e-06
3.337898882e-05
-0.001362460229
-3.413477804e-05
0.000682964884
0.0006802511347
-4.582949968e-05
0.001367103841
4.016610675e-05
0.001363418256
-3.536703752e-06
-0.0006817444142
-0.0006813577958
2.839828534e-05
-0.001373158303
-2.904312234e-05
0.0006869945791
0.0006868085607
3.11053702e-05
0.000684479859
0.0006839107343
0.001376496599
-3.163139775e-06
-0.0006881254395
-0.000688180495
2.735621772e-05
-0.001380363784
-2.64112247e-05
0.0006896386121
0.0006897801792
2.794485301e-05
0.000686038582
0.0006874354606
0.001388110095
-2.79047299e-06
-0.0006938042014
-0.0006940499714
2.447553948e-05
-0.00138842404
-2.538119465e-05
0.001389329695
0.001383711864
2.676385687e-05
0.0007001751514
-0.0007001762137
-1.008024845e-06
-0.0003494861287
4.894226534e-07
-5.655935349e-07
0.0003495622996
0.0003493895823
-0.0006981380332
-1.733303129e-06
2.458903034e-05
-0.001396419003
-2.447504634e-05
0.001396305019
0.001390630828
2.435041344e-05
0.0007070380739
-0.0007070380739
-1.916909732e-06
-0.0007070381134
8.293776517e-06
-8.293878021e-06
0.0007070382149
0.0003493169461
1.425788703e-07
-0.001413044609
0.0006490884179
2.525131814e-05
1.380399617e-05
3.402736051e-05
-0.002794260302
0.001410009411
0.001400797823
-2.502769603e-05
-2.554659617e-05
0.001396240257
2.475707479e-05
0.001372974206
-0.001372419278
1.834878679e-06
-1.522119039e-05
0.001320410842
1.470658396e-05
-0.001366373714
-4.370035469e-05
0.001364244569
-5.446443968e-05
0.001346673781
6.448008584e-05
6.055060256e-06
-0.0003433501125
-6.2697088e-06
0.000343564761
-0.0006906084451
-2.204792259e-05
0.0006925049301
2.015143751e-05
-0.001361948653
-3.381355296e-05
8.76803774e-05
-0.002716177006
-9.131668556e-05
0.002720522162
-9.930022532e-05
0.00270693543
9.139477104e-05
0.002719456775
-0.002726959089
1.952230543e-05
1.487522968e-06
-1.549537018e-06
0.00136348027
-1.41716801e-06
0.001358012747
1.543436542e-06
6.608336053e-06
-0.0003423614154
-6.358348878e-06
0.0003421114282
-4.897323543e-06
-0.0003416787045
0.0003412568185
5.319209595e-06
-0.001372833283
-3.104879169e-05
8.368592094e-05
-0.002740234476
-8.4698195e-05
0.002741403516
0.002728583509
8.62621071e-05
0.002749188464
-0.002752482107
1.897308682e-05
1.372635832e-06
-1.434543984e-06
0.001376558507
0.001364914374
1.425318036e-06
2.905172793e-06
0.00137106694
-2.968564995e-06
-0.0006851869033
-0.0006858166443
4.108143015e-06
-0.0003429938396
-4.091872107e-06
0.0006858212378
-0.0003428436691
-4.223190945e-06
-0.00034030975
0.0006814756138
3.965901798e-06
-0.0003409085747
5.245148111e-06
-0.0003447550105
-5.278380256e-06
0.0003447882427
-6.736531618e-06
-0.000343587832
0.000343126051
7.198312589e-06
-0.001380534112
-2.893160333e-05
7.870375119e-05
-0.002749190734
-8.06238736e-05
0.002756560576
0.002741966485
8.263265987e-05
0.002774724439
-0.002775260697
1.828390737e-05
1.136311965e-06
-1.197668487e-06
0.001388171452
0.001378122654
1.374744379e-06
3.235029803e-06
0.001382690818
-2.976187178e-06
-0.0006913834891
-0.0006915661712
2.20151871e-06
-0.0003457841701
-2.272969978e-06
0.0003458556213
-3.804751004e-06
-0.0003442560773
0.0006887449362
3.864847557e-06
-0.0003445489555
9.02474213e-06
-0.0006923203364
-9.233863896e-06
0.0006925294582
-1.011826173e-05
-0.0006915065576
8.642476516e-06
0.0003468657302
0.0003461166126
0.002799650425
1.863750986e-05
-0.001399239681
-0.001400738772
7.769575675e-07
-0.0007003860744
-9.676666167e-07
0.001400751935
0.001390058321
1.075014931e-06
1.066536117e-06
0.0006978247089
-0.0006978902704
-1.00097469e-06
3.638538921e-06
-0.0003495572899
-3.290916723e-06
0.0003492096677
-2.923757552e-06
-0.0003466502734
0.0003467959127
2.778118296e-06
0.0003511268097
2.560136254e-06
-0.0003501777941
-3.509151883e-06
7.903398983e-06
-0.0006973674656
-7.659952366e-06
0.0006971240189
-8.656415323e-06
-0.0006951721582
0.0006951720755
8.656498062e-06
0.002785809571
1.372530025e-05
-0.001369501186
-0.001413044609
2.558623386e-06
-0.0007060065349
-2.55862338e-06
0.001413044609
-0.0007016404473
0.001401535341
7.803378973e-07
1.014641348e-06
0.0007032361091
-0.0007031709597
-1.079790781e-06
2.307321037e-06
-0.0003492950403
-3.213155861e-06
0.0003502008752
-4.149425168e-06
-0.0003480942866
0.0003485239016
3.719810167e-06
0.001425050408
-0.001425050408
-4.258909655e-06
-0.001425050408
1.616227409e-05
-1.616227408e-05
0.001425050408
0.0007067567065
8.293720216e-06
-4.574936826e-06
0.0006789720974
4.032370375e-06
-0.0003387617629
-0.0003396677681
5.053886265e-06
0.0006790089916
-4.977761747e-06
-0.0003399735972
-0.0003391115189
0.0006917145725
8.448187645e-06
-9.856284479e-06
-0.0006903064756
0.0006805145034
-0.0006810389146
-4.050525547e-06
-0.0003419211716
-4.570065516e-06
0.0003415939136
-0.0003424842469
0.0003427654706
5.773836565e-06
-3.646406308e-05
-0.001363752864
3.5020685e-05
0.0006840242934
0.0006811719487
-1.575294954e-05
0.0003415793851
1.455470549e-05
-0.0006828653879
5.58478552e-06
-0.0003420855258
-5.420431338e-06
-0.0003400876604
-4.542764788e-06
0.0006811021297
-0.0003406948954
-0.0006796181513
-4.279393777e-06
0.0006796826263
4.214918851e-06
-3.28123088e-06
0.001360564164
3.218685904e-06
-0.001360501619
-4.811551879e-06
4.363461099e-06
-0.000339629438
-0.0003395406226
2.375797139e-06
-0.0003400861961
-2.377261504e-06
0.0006785018537
4.738580642e-06
-0.0003389599801
-0.000339226568
0.0006799356539
-4.692159783e-06
-0.0003401996184
-0.0003398554276
-0.0003429178471
-6.210286552e-06
0.000342391602
-0.0003432786817
0.0003427812665
7.105751266e-06
-1.53138962e-05
-0.0006858642814
0.0006859938305
1.518434712e-05
-6.700076596e-06
6.874578111e-06
-0.0003434531832
6.459894724e-06
-0.0003432218186
-6.155923184e-06
5.790361359e-06
-0.0003418842804
-0.0003425597159
-6.501776066e-06
-0.0006845398728
-1.531562679e-05
0.0006845416034
-0.0003439717241
-4.068914052e-06
0.0006879840243
-0.0003437481372
-0.0003434112118
0.0006867668988
4.369197228e-06
-0.0003436167412
0.001373078372
3.224809006e-06
-0.0006866386437
-0.0006867593643
-2.599514181e-06
2.668255955e-06
-0.0003434799536
2.010256802e-06
-0.0003439003575
-2.081623454e-06
2.308744747e-06
-0.0003402426976
-0.0003431404553
-2.452898519e-06
-0.0006902380906
-9.937560817e-06
0.0003450753702
0.0003449820195
-0.0003448142075
0.0003446969099
5.362445736e-06
-2.632616268e-05
-0.001376367963
2.656458376e-05
0.0006877101956
0.0006884193467
-1.101780945e-05
0.000343941838
1.050053617e-05
-0.0006882387722
1.045738333e-05
-0.0006901680202
-1.052745373e-05
6.761995416e-06
-0.0003438899327
0.0003442017395
-0.0006885079267
-5.441362467e-06
-6.025270276e-06
-0.00137551268
-2.753324265e-05
0.0006884171992
0.0006883025611
-0.0003465617238
-3.001978221e-06
0.0003466399444
-0.0003458136797
0.0003458216347
2.193563711e-06
0.001383161954
2.786901151e-06
-0.0006914911169
-0.0006912227082
-2.522097091e-06
2.313902692e-06
-0.0003456054853
3.617243042e-06
-0.0003463429812
-3.835985578e-06
2.006304136e-06
-0.0003442521246
-0.0003457046635
-2.601603678e-06
-0.0006953026409
-8.670527132e-06
0.0006953167527
-0.0006931015044
0.0006931011076
9.025138974e-06
-0.0003494840852
-4.432170257e-06
0.0003497668303
-0.0003490141627
0.0003491494111
3.50329047e-06
0.000698005487
1.067468099e-06
-0.0006980064189
-4.999543097e-07
-0.0003489260757
0.0003478437404
1.582289527e-06
-4.335072627e-06
4.121093441e-06
-0.0003488001835
3.844440372e-06
-0.0003489129368
-4.415588793e-06
3.330605478e-06
-0.0003463636359
-0.0003497776996
-4.114662955e-06
-2.320723007e-06
0.0003529475784
1.597209788e-05
-0.001395543371
-1.564934577e-05
0.0006973684888
0.0006978521303
-0.0006971455137
0.0006968936498
8.155262837e-06
2.557753355e-06
-0.0003489236928
-0.000712952177
2.912309725e-06
0.000709652882
8.943742978e-07
-5.073890521e-07
-0.0003493791545
0.0003498838189
1.802656647e-06
0.0007033486476
8.840207843e-07
-0.0007032180271
3.884182229e-06
-0.0006949185752
0.0006952779598
-4.243566899e-06
-8.984034045e-07
6.131556106e-07
-0.0003490939067
5.303615582e-06
-0.0007129872507
-5.98141337e-07
-4.670400533e-06
3.272152983e-06
-0.0003475219992
-1.531243748e-06
-0.0003486622
-0.0006950676431
3.121956179e-06
0.0006958298691
0.002699168389
-0.002713369678
2.137123483e-05
-1.291598703e-06
0.001358576453
3.593138893e-06
0.001372706911
-1.664322217e-06
1.456172264e-06
0.001361595478
-0.001361490792
-1.560858652e-06
3.891636397e-06
-3.798822218e-06
0.0006804216892
-1.289720004e-07
0.0006937068801
-1.86333568e-06
4.677532099e-05
-0.000337664599
1.463008042e-05
0.0002762591976
-0.0003552460663
-1.318708288e-05
0.0003603023385
8.130810625e-06
0.001359820034
-0.001359946616
-3.154649052e-06
-4.282388083e-06
0.0006799386482
-4.237187747e-06
0.0006785019915
4.237049935e-06
9.120833691e-05
-0.0003484841547
-3.158896658e-05
0.0002888647844
-0.001388031862
-2.782938183e-05
7.529023043e-05
-0.002740754493
-7.67797617e-05
0.002776658672
0.002762675322
7.903616619e-05
9.031721892e-05
-0.0003493311426
-2.967838245e-05
0.0002886923061
6.001278342e-06
-0.0006960531623
-6.355114369e-06
0.0003481918105
0.0003482151877
-3.362142195e-06
-0.0003475819458
0.0003475182996
3.425788424e-06
-9.847552759e-07
-0.0006947218488
6.389610683e-07
2.237932168e-05
-0.001396715702
-1.961638752e-05
0.001393952768
-0.001395695175
1.642145661e-05
0.0006975131184
0.0006977326982
-4.23390466e-06
0.0006790057085
0.0006790045315
3.859202302e-06
0.001354697346
2.342460175e-06
-0.001355583634
-1.787171505e-06
0.0003394255125
2.504881782e-06
-0.0003401432228
0.0003573628642
1.088238267e-05
-5.979877849e-06
-0.000362265369
0.0003449143663
-1.375908074e-06
-0.0003454706753
1.932217089e-06
-2.652504533e-05
2.095303614e-05
-0.0006850364359
0.0003421384403
-0.0006840122135
-1.722928887e-05
-0.00136155123
-3.398116003e-05
0.0006800879158
0.0006789804114
-0.0003480781895
-3.625445104e-06
0.0003483414924
-6.773361349e-06
-0.000347651186
0.0003485382699
5.886277471e-06
-2.62114874e-05
-0.001384746601
0.00138515265
2.580543777e-05
-9.907064134e-06
9.700530837e-06
-0.0006928949711
9.339102201e-06
-0.0006951631677
-9.478575399e-06
1.000684332e-05
-0.0006910560176
-0.0006923227967
-9.904603895e-06
-0.001385306337
-2.629530767e-05
0.001385390157
-3.867409341e-06
-0.0003500425082
0.0003511863698
2.723547777e-06
0.0003474195967
5.091701259e-06
-0.0003473794908
-5.131807228e-06
-2.066805546e-06
-0.0006968913971
1.907728217e-06
0.0003481818618
0.0003488686126
-0.000663290492
-2.527976276e-06
0.0006632311116
2.587356701e-06
0.001425879706
2.480964011e-05
-3.352367512e-05
-1.469005034e-05
-0.0006955750391
-0.0007069005816
0.000685303185
-0.0006995130253
2.265802792e-05
-0.0006887850958
-2.301049877e-05
0.000689747672
-0.001390108584
-6.861653939e-05
0.0006962924281
0.000671155421
3.435994931e-05
5.691732486e-05
-1.48220101e-05
1.553619381e-05
-0.0006640046757
-0.0004352879254
0.0004820632464
-1.655702194e-05
-0.0006874345835
1.504466827e-05
0.0003442356411
0.0003447112961
-1.28815171e-05
-7.42180544e-05
-0.0003481883539
-9.666663753e-06
7.047761422e-06
-0.0003526271639
-0.0003466984419
-3.847674186e-06
-0.000684782159
-1.45565831e-05
0.0003419153965
0.0003408663236
-6.719853589e-06
-0.0003422951647
0.0003423544303
6.66058798e-06
-0.000342466587
-6.693097582e-06
0.000342439831
-5.004415756e-06
-0.0003450567245
0.0003450255292
5.035611052e-06
-0.0003458399086
-5.41165644e-06
0.0003462471493
-0.0003457674223
6.680561861e-06
-4.611083921e-06
0.0003436979444
-0.0003530892082
0.000444595128
-2.97582878e-07
-9.573371583e-06
-0.0006910215308
0.0006910185682
9.576334166e-06
-9.431718996e-06
5.266516326e-06
-0.0003489240055
6.691935273e-06
-0.0003463257082
-6.13364935e-06
-8.610861238e-06
3.091344137e-05
-0.0003429058454
0.0003206032653
-0.0003468369871
-1.107888656e-05
-0.0006912215626
-9.640205069e-06
0.0003455662993
0.0003457220968
-0.0003479842733
-1.556473884e-06
0.0003481289128
1.41183433e-06
-2.505764763e-06
0.0006959898772
2.440367345e-06
-0.0006959244798
2.440792258e-06
0.0006977620202
-0.0006978267964
-2.376016063e-06
5.025296321e-06
-0.0006969380164
-5.175119645e-06
0.0006970878397
-0.0006961648731
5.589135271e-06
0.0003484344169
0.0003481425993
0.0004467489909
-1.681747402e-06
-0.0003547500246
-1.088532951e-08
-0.0003500389149
0.0003505364695
-4.866692368e-07
-2.04027637e-06
0.0007017892698
1.976904732e-06
-0.0007017258982
1.977503957e-06
0.0007031051682
-2.306040221e-06
-0.0003513107192
-0.0003514659127
-2.246489807e-06
0.0006995748587
2.048800194e-06
-0.0006993771691
0.0007013493922
-0.0007012823204
-2.107348128e-06
-0.0003489292104
-6.434927963e-07
0.0003495618179
0.0003479105974
1.332561933e-06
8.699631079e-05
-0.0004362394702
0.0003379318963
-2.009760167e-06
-0.0003377093076
4.270086067e-06
0.0006793667994
-4.526680684e-06
-0.0003390064661
-0.0003401037386
2.493254148e-06
-3.060042102e-06
0.0003384986842
-2.580604195e-06
0.0003447542529
5.736948694e-06
6.717185601e-06
-2.667119871e-05
0.0003398658253
-0.0003199118122
0.0003398024571
2.116309527e-06
0.0006803133276
5.019069278e-06
-0.0003408899044
-0.0003401724065
2.423063922e-06
0.0006923730231
-0.0006928492834
-1.946803639e-06
1.103845773e-06
-1.498854833e-06
0.0003453093753
1.851376563e-05
0.0003463604491
-7.511350612e-06
-0.0003443650162
-1.398755256e-06
0.0003431831672
-0.000344368211
0.0003444865203
9.855364847e-07
0.0006870931697
2.882713883e-06
-0.0006875528197
7.767710229e-07
-0.0003465208901
-0.0003438922325
8.597783114e-07
-6.540428887e-06
-0.0003424971217
0.0003415948784
7.442672204e-06