/*--------------------------------*- C++ -*----------------------------------*\
| =========                 |                                                 |
| \\      /  F ield         | OpenFOAM: The Open Source CFD Toolbox           |
|  \\    /   O peration     | Version:  v1912                                 |
|   \\  /    A nd           | Website:  www.openfoam.com                      |
|    \\/     M anipulation  |                                                 |
\*---------------------------------------------------------------------------*/
FoamFile
{
    version     2.0;
    format      ascii;
    class       surfaceScalarField;
    location    "1.81";
    object      meshPhi;
}
// * * * * * * * * * * * * * * * * * * * * * * * * * * * * * * * * * * * * * //

dimensions      [0 3 -1 0 0 0 0];
oriented        oriented;


internalField   nonuniform List<scalar> 
25162
(
0
0
0
0
0
0
0
0
0
0
0
0
0
0
0
0
0
0
0
0
0
0
0
0
0
0
0
0
0
0
0
0
0
0
0
0
0
0
0
0
0
0
0
0
0
0
0
0
0
0
0
0
0
0
0
0
0
0
0
0
0
0
0
0
0
0
0
0
0
0
0
0
0
0
0
0
0
0
0
0
0
0
0
0
0
0
0
0
0
0
0
0
0
0
0
0
0
0
0
0
0
0
0
0
-5.804520296e-09
-9.348037321e-08
1.046783355e-06
0
1.018943339e-08
-8.898682466e-07
0
0
0
0
0
0
0
0
0
0
0
0
0
0
0
0
0
0
0
0
0
0
0
0
0
0
0
0
0
0
0
0
0
0
0
0
0
0
0
0
0
0
0
0
0
0
0
0
0
0
0
0
0
0
0
0
0
0
0
0
0
0
0
0
0
0
2.698171512e-08
1.614784892e-06
-2.448890611e-06
-1.023450262e-05
9.443512244e-06
9.065486961e-05
-2.16628178e-05
-0.0001281971474
1.200166236e-05
0.0002370450055
-2.026178243e-05
-0.000265077059
-2.200895168e-06
0.0003049781231
4.610401944e-06
-0.0003012246186
-1.271213868e-05
0.0002408931112
2.336030748e-05
-0.000207547364
-5.955228578e-06
9.29491424e-05
1.62663661e-05
-5.809882928e-05
0
1.740264462e-06
3.743623016e-07
0
0
0
0
0
0
0
0
0
0
0
0
0
0
0
0
0
0
0
0
0
0
0
0
0
0
0
0
0
0
0
0
0
0
0
0
0
0
0
0
0
0
0
0
0
0
0
0
0
0
0
1.30397529e-06
3.609266414e-06
-6.611525361e-06
-2.581988965e-05
4.583906389e-05
0.0002263339426
-7.074977122e-05
-0.0003237968518
8.074978146e-05
0.0006468719932
-0.0001047198369
-0.0007514131916
4.861803785e-05
0.001010929188
-5.69290049e-05
-0.001071800744
-2.166612651e-05
0.001158143597
3.114353019e-05
-0.001152642119
-7.390669054e-05
0.001032948968
9.615994782e-05
-0.0009608464295
-7.339478924e-05
0.000671040563
9.945614681e-05
-0.0005593922925
-2.864088747e-05
0.0002353209051
4.761039015e-05
-0.0001467355149
0
3.687524034e-06
1.063923758e-06
0
0
0
0
0
0
0
0
0
0
0
0
0
0
0
0
0
0
0
0
0
0
0
0
0
0
0
0
0
0
0
0
0
0
0
0
0
0
0
0
0
0
0
0
0
-4.344379297e-07
-1.426899001e-06
5.298815105e-05
0.0001743811047
-7.754758428e-05
-0.0002985175971
0.0001628122381
0.0007902916402
-0.0001954996885
-0.0009735850945
0.0001750838334
0.001498389972
-0.0001952947553
-0.001649268006
7.278935067e-05
0.001989995395
-7.491841154e-05
-0.002062910371
-6.71213454e-05
0.002162363006
7.930433255e-05
-0.002157269468
-0.0001713080308
0.002024016905
0.0001963178301
-0.001937718048
-0.0001896079723
0.001550862055
0.0002212363123
-0.001384205532
-0.0001402083952
0.0008556138012
0.0001739750805
-0.0006757617835
-2.945549989e-05
0.0002044308202
4.576887255e-05
-0.0001019483402
0
0
0
0
0
0
0
0
0
0
0
0
0
0
0
0
0
0
0
0
0
0
0
0
0
0
0
0
0
0
0
0
0
0
0
0
0
0
0
0
0
0
1.315497662e-05
2.101277663e-05
-2.141521957e-05
-9.076858279e-05
0.0001604690782
0.0005511800706
-0.000187719493
-0.0007659564691
0.0003078138732
0.001506605111
-0.0003224021146
-0.001756926233
0.0002466758279
0.002341066722
-0.0002770897128
-0.00246400138
7.66104726e-05
0.002710664857
-8.098229759e-05
-0.002742308824
-0.0001045327195
0.002772042862
0.0001068339428
-0.0027708569
-0.0002668299825
0.00273185133
0.0002813682297
-0.002682818483
-0.0003772564981
0.002429220632
0.0003961553738
-0.002248971416
-0.0002425206579
0.001563213808
0.0002699201068
-0.001318263844
-0.0001034162696
0.0006034513653
0.0001233541486
-0.0004032212417
2.780945848e-05
-3.066009679e-06
5.361160139e-06
-4.261381674e-07
0
0
0
0
0
0
0
0
0
0
0
0
0
0
0
0
0
0
0
0
0
0
0
0
0
0
0
0
0
0
0
0
0
0
0
-3.829075205e-07
-1.609399443e-08
-6.156620302e-07
4.866835047e-05
0.0001088636159
-5.872802817e-05
-0.0002452135034
0.0002593524928
0.000906040564
-0.0002736083232
-0.001195328835
0.0003666144673
0.002047486276
-0.0003799304743
-0.002297420139
0.0002918638855
0.002850055578
-0.0002692733996
-0.002962061763
0.0001261229131
0.003061331568
-0.000128314325
-6.840297822e-05
-0.001471736144
-0.001519001034
0.00146282763
-4.737766423e-05
4.752684556e-05
-0.001462976812
0.001507285913
-0.0003621429482
-0.003036535591
0.001541588532
0.0001646747327
0.0001851293619
0.002863522756
-0.0003988080139
0.0004152514792
-0.002748164735
-0.0003463210145
0.002149953708
0.0003645091026
-0.001881094294
-0.000175770173
0.001004064585
0.0001918452742
-0.0007387352272
0.0001486560123
-2.354721752e-05
3.041532933e-05
-4.729086275e-05
0
0
0
0
0
0
0
0
0
0
0
0
0
0
0
0
0
0
0
0
0
0
0
0
0
0
0
0
0
0
0
0
0
1.60136127e-06
0
-3.41512273e-06
-5.75725685e-06
-8.864905494e-06
7.94533213e-05
0.0001876800709
-8.195299673e-05
-0.0003672141252
0.0003118225702
0.0011639719
-0.0003164352936
-0.001478531653
0.0003993530163
0.002390236397
-0.0003994890513
-0.002643716961
0.0002538173108
0.003110984162
-0.0002491431533
-0.00314573144
4.810948379e-05
0.001589803248
-5.07276205e-05
-0.001587185111
0.001574531269
-0.0001451618647
0.000142790893
-0.001572160297
0.003117503725
-0.0004391496498
0.0004439602376
-0.003052040199
-0.0003973889052
0.002508508318
0.0004038650422
-0.002236817628
-0.0002274433503
0.001302174566
0.0002344195366
-0.0009952666451
0.0002702712051
-4.624312497e-05
5.312936005e-05
-0.0001185782024
0
0
0
0
0
0
0
0
0
0
0
0
0
0
0
0
0
0
0
0
0
0
0
0
0
0
0
0
0
0
0
0
0
4.420418463e-06
0
-5.574638205e-06
-1.6204282e-05
-1.838329317e-05
9.46678134e-05
0.0002417111687
-9.737293847e-05
-0.000445368078
0.0003329685175
0.001311508742
-0.0003362689229
-0.001644900006
0.0004043176021
0.002587486382
-0.0004052989145
-0.002838610629
0.0002442626383
0.003258695226
-0.0002437985941
-0.003272710225
4.180247345e-05
0.00163283537
-4.179474992e-05
-0.001632843093
0.001642395079
-0.0001379489121
0.0001371025874
-0.001641548755
0.003285839862
-0.0004444004017
0.0004439837107
-0.00324500646
-0.0004230695877
0.002744696602
0.0004266546681
-0.002473780825
-0.0002529039395
0.001503260189
0.0002571149563
-0.001172366891
0.0003490845332
-6.173019893e-05
6.452648492e-05
-0.000169782174
0
0
0
0
0
0
0
0
0
0
0
0
0
0
0
0
0
0
0
0
0
0
0
0
0
0
0
0
0
0
0
0
0
6.702447914e-06
0
-8.249095663e-06
-2.525354375e-05
-2.830327198e-05
0.0001040829534
0.0002818668323
-0.0001067906658
-0.0005034133663
0.0003445100256
0.001423751917
-0.0003477445004
-0.00177277955
0.0004079159587
0.002745921158
-0.0004089131626
-0.003000281112
0.000242959487
0.003407195553
-0.0002428564388
-0.003415178396
4.154647844e-05
0.00170203134
-4.208588418e-05
-0.000849211437
-0.0008522804975
0.001712372555
-0.0001346106267
0.000134000921
-0.001711762849
0.003424655939
-0.0004405039591
0.0004388718648
-0.003378890306
-0.0004227595328
0.00284898727
0.0004204093629
-0.002565218752
-0.0002537448065
0.001552893988
0.0002520407105
-0.001209855058
0.0003582227077
-6.254045624e-05
6.165694564e-05
-0.0001732664814
0
0
0
0
0
0
0
0
0
0
0
0
0
0
0
0
0
0
0
0
0
0
0
0
0
0
0
0
0
0
0
0
0
9.928656847e-06
0
-1.185345403e-05
-3.869283594e-05
-4.26726944e-05
0.0001152334569
0.0003315669736
-0.0001181967022
-0.0005733239627
0.0003575221084
0.001552655818
-0.0003608789228
-0.001918037119
0.0004118288968
0.002920917309
-0.0004127926205
-0.003177221603
0.000242104683
0.003565089332
-0.0002419201105
-0.003568331357
4.172281896e-05
0.00177919837
-4.186504437e-05
-0.0008882651013
-0.0008907910438
0.00178579216
-0.0001321463877
0.0001315433365
-0.001785189109
0.003561213759
-0.0004295663308
0.0004255445355
-0.0034798514
-0.0004012969914
0.002840807663
0.0003951880779
-0.002540982606
-0.0002316928036
0.001478092017
0.0002255947638
-0.001129164534
0.0002951100817
-4.911549921e-05
4.623714665e-05
-0.0001267407264
0
0
0
0
0
0
0
0
0
0
0
0
0
0
0
0
0
0
0
0
0
0
0
0
0
0
0
0
0
0
0
0
0
1.418343639e-05
0
-1.504983079e-05
-5.736317693e-05
-5.959779595e-05
0.00012784104
0.0003903978558
-0.0001315976632
-0.0006537136278
0.0003714623352
0.00169301391
-0.0003754797108
-0.002074016725
0.0004157253237
0.003101637058
-0.000416774513
-0.003357604899
0.0002414403078
0.003718556704
-0.0002416342152
-0.003718655095
4.211267181e-05
0.001854581914
-4.208507148e-05
-0.0009257797357
-0.0009288297786
0.001855273543
-0.0001293724695
0.0001292150696
-0.001855116143
0.003647672834
-0.000411977848
0.0004057884938
-0.003509928804
-0.0003662346448
0.002743240733
0.0003531286981
-0.002406747662
-0.0001969743728
0.001299900629
0.000182692818
-0.000955669723
0.0001987619597
-3.11712581e-05
2.667250348e-05
-6.474002479e-05
0
0
0
0
0
0
0
0
0
0
0
0
0
0
0
0
0
0
0
0
0
0
0
0
0
0
0
0
0
0
0
0
0
2.109022238e-05
0
-2.802156151e-05
-9.070992703e-05
-0.0001040221756
0.0001428346893
0.0004725967161
-0.0001524928659
-0.0007577282005
0.0003888670976
0.001862413068
-0.0003936577567
-0.002256491833
0.0004199269018
0.003295803179
-0.0004226248131
-0.003550759861
0.0002413723394
0.003869726092
-0.0002425772066
-0.00192961484
-0.001938906384
2.236081167e-05
0.0009626411076
-2.262623298e-05
-0.0009623756863
-1.280775122e-05
0.0004798805757
1.197786326e-05
-0.0009596790247
0.0004806283369
0.001921792242
-0.0001284074153
0.0002683280809
-0.003853814767
0.001930580171
-0.0001384783108
-0.0003887494748
0.003655926348
0.0003745165239
-0.003447034543
-0.0003151138855
0.002544310492
0.0003024362551
-0.00217346212
-0.0001490915109
0.001053401182
0.000139909386
-0.0007286974234
8.267002768e-05
-1.091369435e-05
8.572292447e-06
-8.143975353e-06
0
0
0
0
0
0
0
0
0
0
0
0
0
0
0
0
0
0
0
0
0
0
0
0
0
0
0
0
0
0
0
0
0
3.105189641e-05
0
-2.560617009e-05
-0.0001242631839
-0.0001143649878
0.000167027275
0.0005593349103
-0.0001620725557
-0.0008738770893
0.0004079499372
0.00204185035
-0.0004018924061
-0.002451023125
0.0004196052673
0.003501832318
-0.0004177988084
-0.003744472895
0.0002363407216
0.004022200949
-0.0002363407216
-0.002006841962
-0.002015358987
2.024919372e-05
0.002006841962
-3.782030193e-05
1.757110822e-05
-0.001001772959
-0.001005069004
-4.788245868e-05
0.001001772994
4.788240535e-05
-0.002006841962
0.001005069022
0.004022200949
-0.0002775269911
0.0002761456457
-0.004012002066
-0.0003460919515
0.003551196403
0.0003376902807
-0.003284329885
-0.0002620411517
0.002218905426
0.0002471487195
-0.001837589159
-0.0001033239288
0.0007470582631
9.186590271e-05
-0.0004761635609
1.150674458e-05
-1.674071449e-06
7.59984187e-07
0
0
0
0
0
0
0
0
0
0
0
0
0
0
0
0
0
0
0
0
0
0
0
0
0
0
0
0
0
0
0
0
0
0
1.600134434e-05
0
-5.887366742e-06
-5.815775094e-05
-3.659425197e-05
0.0001271494551
0.0004071353237
-0.0001103937941
-0.0006848700531
0.0003560519768
0.001785165306
-0.0003319827781
-0.002190151152
0.0003995819127
0.003298609786
-0.0003873699579
-0.003587766335
0.0002410043964
0.004104503526
-0.0002436752952
-0.004159495056
3.782030194e-05
0.004174413693
-6.492921103e-05
-0.004174413693
2.710890912e-05
-0.0001064775128
0.004174413693
0.0001064775128
-0.004174413693
-0.0002644847007
0.004101541329
0.0002558295963
-0.003988847741
-0.0002969026923
0.003297687946
0.0002802670007
-0.002964682851
-0.0001954026601
0.001805799489
0.0001804469856
-0.001413888054
-5.658048189e-05
0.0004322971932
4.581065941e-05
-0.0002262010229
0
0
0
0
0
0
0
0
0
0
0
0
0
0
0
0
0
0
0
0
0
0
0
0
0
0
0
0
0
0
0
0
0
0
0
0
0
1.439260344e-07
0
0
-3.265366014e-07
0
5.496592373e-05
0.0001408220161
-3.782151296e-05
-0.0003158734014
0.0002388611374
0.001160186511
-0.0002033016383
-0.001508328021
0.0003262615107
0.002568245118
-0.0002976351816
-0.002886869089
0.0002353383571
0.003625973054
-0.0002257209445
-0.003790392647
6.771555165e-05
0.004063802113
-6.88649695e-05
-0.004096387055
-9.763787547e-05
0.004057865972
8.903209231e-05
-0.003995765922
-0.0002117691888
0.003607831554
0.0001916718692
-0.003400719902
-0.0002156335779
0.002556890298
0.0001906379198
-0.002220005257
-0.0001252322903
0.001176126153
0.000104952227
-0.0008570599745
-1.909945348e-05
0.0001564159102
1.141499095e-05
-4.277812687e-05
0
0
0
0
0
0
0
0
0
0
0
0
0
0
0
0
0
0
0
0
0
0
0
0
0
0
0
0
0
0
0
0
0
0
0
0
0
0
0
0
0
0
3.964181095e-06
3.261107106e-07
-6.521233491e-07
-2.449314581e-05
9.810853497e-05
0.0004202381685
-6.777987644e-05
-0.0006389224427
0.00019436851
0.001419266685
-0.00015761184
-0.001687137555
0.0001757124626
0.002395176341
-0.0001532276338
-0.002579822271
6.70355998e-05
0.002936725183
-6.342299277e-05
-0.002986762374
-5.377720271e-05
0.002928849047
4.168730275e-05
-0.002840853276
-0.0001236213936
0.002381073363
0.0001010292151
-0.002169489119
-0.0001135097375
0.001420596167
8.925380962e-05
-0.001155640712
-4.669213286e-05
0.0004368857397
3.041237546e-05
-0.0002546797939
-1.647933919e-07
1.082567673e-06
0
0
0
0
0
0
0
0
0
0
0
0
0
0
0
0
0
0
0
0
0
0
0
0
0
0
0
0
0
0
0
0
0
0
0
0
0
0
0
0
0
0
0
0
0
0
0
0
7.839182187e-06
1.112507877e-05
-1.220455888e-06
-5.151176234e-05
5.891663822e-05
0.0003557752872
-3.439280638e-05
-0.0004944812837
7.936525924e-05
0.0009220885886
-5.629531471e-05
-0.001047682398
4.233359092e-05
0.001309297386
-3.301423524e-05
-0.001348796246
-1.385307731e-05
0.001308857538
8.30034321e-06
-0.001244354188
-4.329595448e-05
0.0009258046333
2.888626711e-05
-0.0007900527969
-2.955152672e-05
0.0003666434708
1.589462249e-05
-0.0002416656811
-1.521657147e-06
1.381470608e-05
4.262396778e-09
-1.486152817e-07
0
0
0
0
0
0
0
0
0
0
0
0
0
0
0
0
0
0
0
0
0
0
0
0
0
0
0
0
0
0
0
0
0
0
0
0
0
0
0
0
0
0
0
0
0
0
0
0
0
0
0
0
0
0
1.878666682e-07
0
0
-1.86962701e-06
7.652457536e-06
5.103139925e-05
-1.209728615e-06
-7.902328163e-05
7.660019673e-06
0.0001539709203
-2.595415158e-06
-0.0001672501141
-8.253018064e-07
0.0001556379083
2.053431295e-07
-0.0001358028429
-2.908211303e-06
5.398092593e-05
2.422729968e-07
-2.973679098e-05
0
0
0
0
0
0
0
0
0
0
0
0
0
0
0
0
0
0
0
0
0
0
0
0
0
0
0
0
0
0
0
0
0
0
0
0
0
0
0
0
0
0
0
0
0
0
0
0
0
0
0
0
0
0
0
0
0
0
0
0
0
0
0
0
0
0
0
0
0
0
0
0
0
0
0
0
0
0
0
0
0
0
0
0
0
0
0
0
0
0
0
0
0
0
0
0
0
0
0
0
0
0
0
0
0
0
0
0
0
0
0
0
0
0
0
0
0
0
0
0
0
0
0
0
0
0
0
0
0
0
0
0
0
0
0
0
0
0
0
0
0
0
0
0
0
0
0
0
0
0
0
0
0
0
0
0
0
0
0
0
0
0
0
0
0
0
0
0
0
0
0
0
0
0
0
0
0
0
0
0
0
0
0
0
0
0
0
0
0
0
0
0
0
0
0
0
0
0
0
0
0
0
0
0
0
0
0
0
0
0
0
0
0
0
0
0
0
0
0
0
0
0
0
0
0
0
0
0
0
0
0
0
0
0
0
0
0
0
0
0
0
0
0
0
0
0
0
0
0
0
0
0
0
0
0
0
0
0
0
0
0
0
0
0
0
0
0
0
0
0
0
0
0
0
0
0
0
0
0
0
0
0
0
0
0
0
0
0
0
0
0
0
0
0
0
0
0
0
0
0
0
0
0
0
0
0
0
0
0
0
0
0
0
0
0
0
0
0
0
0
0
0
0
0
0
0
0
0
0
0
0
0
0
0
0
0
0
0
0
0
0
0
0
0
0
0
0
0
0
0
0
0
0
0
0
0
0
0
0
0
0
0
0
0
0
0
0
0
0
0
0
0
0
0
0
0
0
0
0
0
0
0
0
0
0
0
0
0
0
0
0
0
0
0
0
0
0
0
0
0
0
0
0
0
0
0
0
0
0
0
0
0
0
0
0
0
0
0
0
0
0
0
0
0
0
0
0
0
0
0
0
0
0
0
0
0
0
0
0
0
0
0
0
0
0
0
0
0
0
0
0
0
0
0
0
0
0
0
0
0
0
0
0
0
0
0
0
0
0
0
0
0
0
0
0
0
0
0
0
0
0
0
0
0
0
0
0
0
0
0
0
0
0
0
0
0
0
0
0
0
0
0
0
0
0
0
0
0
0
0
0
0
0
0
0
0
0
0
0
0
0
0
0
0
0
0
0
0
0
0
0
0
0
0
0
0
0
0
0
0
0
0
0
0
0
0
0
0
0
0
0
0
0
0
0
0
0
0
0
0
0
0
0
0
0
0
0
0
0
0
0
0
0
0
0
0
0
0
0
0
0
0
0
0
0
0
0
0
0
0
0
0
0
0
0
0
0
0
0
0
0
0
0
0
0
0
0
0
0
0
0
0
0
0
0
0
0
0
0
0
0
0
0
0
0
0
0
0
0
0
0
0
0
0
0
0
0
0
0
0
0
0
0
0
0
0
0
0
0
0
0
0
0
0
0
0
0
0
0
0
0
0
0
0
0
0
0
0
0
0
0
0
0
0
0
0
0
0
0
0
0
0
0
0
0
0
0
0
0
0
0
0
0
0
0
0
0
0
0
0
0
0
0
0
0
0
0
0
0
0
0
0
0
0
0
0
0
0
0
0
0
0
0
0
0
0
0
0
0
0
0
0
0
0
0
0
0
0
0
0
0
0
0
0
0
0
0
0
0
0
0
0
0
0
0
0
0
0
0
0
0
0
0
0
0
0
0
0
0
0
0
0
0
0
0
0
0
0
0
0
0
0
0
0
0
0
0
0
0
0
0
0
0
0
0
0
0
0
0
0
0
0
0
0
0
0
0
0
0
0
0
0
0
0
0
0
0
0
0
0
0
0
0
0
0
0
0
0
0
0
0
0
0
0
0
0
0
0
0
0
0
0
0
0
0
0
0
0
0
0
0
0
0
0
0
0
0
0
0
0
0
0
0
0
0
0
0
0
0
0
0
0
0
0
0
0
0
0
0
0
0
0
0
0
0
0
0
0
0
0
0
0
0
0
0
0
0
0
0
0
0
0
0
0
0
0
0
0
0
0
0
0
0
0
0
0
0
0
0
0
0
0
0
0
0
0
0
0
0
0
0
0
0
0
0
0
0
0
0
0
0
0
0
0
0
0
0
0
0
0
0
0
0
0
0
0
0
0
0
0
0
0
0
0
0
0
0
0
0
0
0
0
0
0
0
0
0
0
0
0
0
0
0
0
0
0
0
0
0
0
0
0
0
0
0
0
0
0
0
0
0
0
0
0
0
0
0
0
0
0
0
0
0
0
0
0
0
0
0
0
0
0
0
0
0
0
0
0
0
0
0
0
0
0
0
0
0
0
0
0
0
0
0
0
0
0
0
0
0
0
0
0
0
0
0
0
0
0
0
0
0
0
0
0
0
0
0
0
0
0
0
0
0
0
0
0
0
0
0
0
0
0
0
0
0
0
0
0
0
0
0
0
0
0
0
0
0
0
0
0
0
0
0
0
0
0
0
0
0
0
0
0
0
0
0
0
0
0
0
0
0
0
0
0
0
0
0
0
0
0
0
0
0
0
0
0
0
0
0
0
0
0
0
0
0
0
0
0
0
0
0
0
0
0
0
0
0
0
0
0
0
0
0
0
0
0
0
0
0
0
0
0
0
0
0
0
0
0
0
0
0
0
0
0
0
0
0
0
0
0
0
0
0
0
0
0
0
0
0
0
0
0
0
0
0
0
0
0
0
0
0
0
0
0
0
0
0
0
0
0
0
0
0
0
0
0
0
0
0
0
0
0
0
0
0
0
0
0
0
0
0
0
0
0
0
0
0
0
0
0
0
0
0
0
0
0
0
0
0
0
0
0
0
0
0
0
0
0
0
0
0
0
0
0
0
0
0
0
0
0
0
0
0
0
0
0
0
0
0
0
0
0
0
0
0
0
0
0
0
0
0
0
0
0
0
0
0
0
0
0
0
0
0
0
0
0
0
0
0
0
0
0
0
0
0
0
0
0
0
0
0
0
0
0
0
0
0
0
0
0
0
0
0
0
0
0
0
0
0
0
0
0
0
0
0
0
0
0
0
0
0
0
0
0
0
0
0
0
0
0
0
0
0
0
0
0
0
0
0
0
0
0
0
0
0
0
0
0
0
0
0
0
0
0
0
0
0
0
0
0
0
0
0
0
0
0
0
0
0
0
0
0
0
0
0
0
0
0
0
0.001625813061
-0.001625893436
4.188284875e-05
0.0001294740052
-0.001630250237
-0.0001303729008
0.0008181813622
0.0008129677704
-0.0001439819457
0.001581163085
0.0001373501297
0.001692676917
4.117020545e-05
-0.0008454439272
-0.0008468567166
0.0001232121922
-0.001704890319
-0.0001240563224
0.0008539384809
0.0008517959685
0.0001267210098
0.0008238885505
0.0008212595243
0.001769587931
4.149785843e-05
-0.0008837062886
-0.000885656682
0.0001215000688
-0.001774774655
-0.0001203487368
0.0008876556093
0.0008859677141
0.0001226061515
0.0008565776087
0.0008564009867
0.001844624078
4.179728912e-05
-0.000921060869
-0.000923247826
0.0001171364983
-0.001845045368
-0.0001183889209
0.00184629779
0.001786629218
0.0001206630108
0.0009611755421
-0.0009611794139
2.236468346e-05
-0.0004801595059
5.668284032e-06
-5.795772718e-06
0.0004802869946
0.0004795629959
-0.0009586408122
-1.388944076e-05
0.0001162902718
-0.001914660194
-0.000116238976
0.001914608898
0.001855650854
0.0001167591872
0.001000338945
-0.001000338945
2.024919372e-05
-0.001000339044
1.992400746e-05
-1.992423299e-05
0.001000339269
0.0004803942844
5.154575304e-06
-0.001997386237
0.0009154559709
2.578730272e-05
7.92146055e-06
0.0001992623182
-0.003938149932
0.001992125276
0.001971399378
-0.0001080868169
-0.000116550224
0.001921704144
0.0001163783697
0.001579902039
-0.001579171371
4.737881608e-05
-3.589622771e-05
0.001463364767
3.535909123e-05
-0.00157251375
-0.0001413729123
0.001569904717
-0.0001534558843
0.001495416558
0.0001653252395
2.204225796e-05
-0.0004037262732
-2.225194275e-05
0.000403935958
-0.0007977205834
-5.470739215e-05
0.0007998872332
5.254074229e-05
-0.001629615523
-0.0001385836264
0.00041288812
-0.003242072683
-0.0004172743714
0.003247344217
-0.0004255497569
0.003138398502
0.000416803128
0.00336837164
-0.003377731234
0.0002431196473
-5.218973186e-05
5.212821297e-05
0.001692738436
5.237715113e-05
0.001632675647
-5.22174286e-05
2.437109067e-05
-0.0004180822995
-2.407363461e-05
0.0004177848434
-2.113663185e-05
-0.000410259823
0.0004099452771
2.145117775e-05
-0.001704451865
-0.0001350490811
0.0004075813113
-0.003393972156
-0.0004089869494
0.003395558418
0.003287916321
0.0004111216922
0.003526499898
-0.003530782319
0.0002423089972
-5.219029261e-05
5.212944088e-05
0.001769648783
0.00170209124
-5.224963207e-05
-4.187972465e-05
0.001732517055
4.181798708e-05
-0.0008648839682
-0.0008675713495
-3.96464898e-06
-0.0004341231758
3.961077607e-06
0.0008675748975
-0.0004334481504
3.802828616e-06
-0.000423685306
0.0008489071994
-4.11835709e-06
-0.000424906365
2.085014795e-05
-0.0004365569579
-2.096951416e-05
0.0004366763241
-2.309435028e-05
-0.0004276109313
0.0004268488212
2.385646046e-05
-0.001774908168
-0.0001320128751
0.000400012201
-0.003526143762
-0.000402973334
0.003535880891
0.00342673403
0.0004060976203
0.003679629275
-0.0036803395
0.0002412863564
-5.232013534e-05
5.226275888e-05
0.001844681454
0.001779173802
-5.216572368e-05
-4.128948318e-05
0.001807624245
4.165147481e-05
-0.0009029380139
-0.0009050482225
-1.53277101e-06
-0.0004527948374
1.45044828e-06
0.0004528771601
4.286246064e-06
-0.0004437649144
0.0008882815933
-4.20295257e-06
-0.0004445999724
3.883013426e-05
-0.0009062271932
-3.915219393e-05
0.0009065492529
-4.047686047e-05
-0.0008920429339
3.855649363e-05
0.0004477185186
0.0004462447821
0.003832195659
0.000241790246
-0.00191159026
-0.001921023306
-5.26767596e-05
-0.0009596123473
5.240355521e-05
0.001921061094
0.001854641737
-5.237995823e-05
-2.231676848e-05
0.0009431605756
-0.0009432557281
2.241192096e-05
2.227330357e-07
-0.000472629337
2.167720706e-07
0.0004721898319
6.800531643e-07
-0.0004618911196
0.0004620589003
-8.478338337e-07
0.0004751745133
9.215550618e-06
-0.0004738400572
-1.055000675e-05
3.690824651e-05
-0.0009426634726
-3.663252966e-05
0.0009423877557
-3.814197915e-05
-0.000926797822
0.0009268111248
3.812867631e-05
0.003914134091
0.0002338673352
-0.001914274467
-0.001997386237
-4.853499555e-05
-0.0009970472917
4.853499554e-05
0.001997386237
-0.0009668932798
0.001929524376
-5.266674838e-05
-2.234556915e-05
0.0009801925952
-0.0009801028596
2.225583351e-05
-1.333060859e-06
-0.000487353017
1.413584805e-07
0.0004885447193
-9.320277618e-07
-0.0004787112029
0.0004792447107
3.985199414e-07
0.002073023258
-0.002073023258
3.782030194e-05
-0.002073023258
3.716940121e-05
-3.716940121e-05
0.002073023258
0.001001773121
1.992388082e-05
1.241271837e-06
0.0007998500172
-1.887355255e-06
-0.0003988233268
-0.000400380607
-7.066687596e-07
0.0008134608883
7.859888423e-07
-0.0004070380367
-0.0004065021717
0.000798777033
1.618697048e-05
-1.788001913e-05
-0.0007970839843
0.0007997145275
-0.0008003255177
1.852262004e-06
-0.0004099666646
-2.086315956e-05
0.0004096931924
-0.0004031768044
0.0004035210448
2.169801752e-05
-0.0001331230709
-0.001608510833
0.0001314162718
0.0008077847864
0.0008024328459
-4.973812224e-05
0.0004026531848
4.831391173e-05
-0.0008044057786
2.224823952e-05
-0.000410104866
-2.211003815e-05
-0.0004229416561
3.409969958e-06
0.0008465542348
-0.00042321972
-0.0008314408232
3.72431702e-06
0.0008315178458
-3.801339523e-06
4.152789494e-05
0.001666371709
-4.159275867e-05
-0.001666306846
9.518952558e-07
-1.494660927e-06
-0.0004152698834
-0.0004156281742
-8.000938889e-07
-0.0004229411764
7.996141869e-07
0.0008147840295
-1.08448667e-06
-0.0004067941932
-0.0004076120184
0.0008299274161
1.103561504e-06
-0.0004150132599
-0.0004150658224
-0.0004262873777
-2.22502076e-05
0.0004254432351
-0.0004198427748
0.0004192512898
2.49625757e-05
-6.41137796e-05
-0.000839083882
0.0008392529872
6.394467445e-05
-2.474944965e-05
2.492759905e-05
-0.0004200209242
2.31361925e-05
-0.0004267841575
-2.263941277e-05
2.238383032e-05
-0.0004103954138
-0.0004183449308
-2.448681831e-05
-0.0008355422161
-6.412186113e-05
0.0008355502977
-0.0004429271393
3.9584454e-06
0.0008854289955
-0.0004421740555
-0.0004351163694
0.0008706716156
-3.64232789e-06
-0.0004358775673
0.001742620669
-4.145826062e-05
-0.0008704993777
-0.0008725427556
5.545115692e-07
-4.703564469e-07
-0.0004352005245
-1.211139734e-06
-0.0004428445033
1.128503745e-06
-8.786840752e-07
-0.0004236067158
-0.0004342841301
7.154659093e-07
-0.0008885284803
-4.027686423e-05
0.0004444594273
0.0004438690568
-0.0004370241308
0.0004369003302
2.097394849e-05
-0.0001204316895
-0.001746998478
0.0001206650246
0.000873877574
0.000872887569
-4.38468957e-05
0.0004363675703
4.316726233e-05
-0.0008727120677
4.296367177e-05
-0.0008884167703
-4.307538173e-05
2.362654615e-05
-0.000428101285
0.0004353498593
-0.0008711752764
-2.169280987e-05
-2.288562663e-05
-0.001738366399
-0.0001219682737
0.0008709638952
0.0008689390881
-0.0004613008089
5.979658435e-07
0.0004613828962
-0.0004533011754
0.0004532988171
-1.530412704e-06
0.001815715292
-4.185364679e-05
-0.0009068203364
-0.0009083307922
6.239189653e-07
-8.775046144e-07
-0.0004530475897
7.003619143e-07
-0.0004610411441
-9.600266553e-07
-1.212343256e-06
-0.0004437637108
-0.0004527100091
5.390906525e-07
-0.0009250815669
-3.820662144e-05
0.0009251462092
-0.0009091729862
0.0009091814889
3.882163152e-05
-0.0004800753955
-1.280691645e-06
0.0004804240594
-0.0004724531332
0.0004726237254
5.214079849e-08
0.0009452616097
-2.231089699e-05
-0.0009452674812
-5.827255314e-06
-0.0004725470462
0.0004710322005
7.342101048e-06
-1.65310355e-06
1.393260816e-06
-0.0004721932905
1.154918616e-06
-0.000479357091
-1.873223048e-06
3.531307228e-07
-0.0004615438884
-0.0004729076864
-1.374754176e-06
-8.369559706e-06
0.0004777168177
7.149761158e-05
-0.001913832777
-7.116033902e-05
0.0009573232651
0.0009561722397
-0.0009441865259
0.0009438814785
3.721329387e-05
9.206632148e-06
-0.0004725381277
-0.001008674749
-4.290581973e-06
0.001004048895
5.719192303e-06
3.19724435e-06
-0.0004879416215
0.0004885956372
-1.987076533e-06
0.0009821957111
-2.252988843e-05
-0.0009820113918
-3.337750733e-06
-0.0009703939464
0.0009710113209
2.720376227e-06
2.265883265e-06
-2.667554685e-06
-0.0004875399501
1.165338792e-06
-0.001008695125
2.54283887e-06
-3.687802222e-06
4.209748936e-07
-0.0004779772592
1.413326405e-06
-0.0004865004601
-0.0009687950327
-4.527206678e-06
0.0009699844887
0.003221940302
-0.0032389729
0.0002454334585
5.253528975e-05
0.001625654922
5.816241826e-05
0.001587623101
-5.598227082e-05
-4.375143239e-05
0.001598212429
-0.001598071676
4.361067986e-05
-4.186985552e-06
4.290373907e-06
0.0007996111392
8.435619219e-06
0.0008011250631
-1.078364931e-05
6.247895412e-05
-0.0003937801023
6.54334639e-06
0.0003247578018
-0.0004098312042
-2.615567706e-05
0.000415586099
2.040078221e-05
0.001657837981
-0.00165800532
4.169523374e-05
3.725201469e-06
0.0008299265316
3.802106733e-06
0.0008147848977
-3.802974952e-06
0.0001305688138
-0.000453073711
-5.121637782e-05
0.000373721275
-0.001844473488
-0.0001299443497
0.000392514666
-0.003633776877
-0.0003955605351
0.003681612936
0.003573819046
0.0003998968524
0.0001283666407
-0.0004689123105
-4.575325572e-05
0.0003862989256
2.629369096e-05
-0.0009336544332
-2.683977121e-05
0.0004673278598
0.0004668726536
-1.395518589e-05
-0.0004632126582
0.0004631335213
1.403432282e-05
9.410669819e-06
-0.0009682148662
-9.990836397e-06
8.022505119e-05
-0.00194436375
-7.632297543e-05
0.001940461674
-0.001921296419
7.199673661e-05
0.0009611572069
0.000959640087
3.800220367e-06
0.0008134627746
0.0007998911779
-4.228146217e-06
0.001597850741
-4.27049146e-05
-0.001598897259
-2.681187293e-06
0.0004034685492
3.494223869e-06
-0.0004042815857
0.0004122525597
1.164395125e-05
-6.031732259e-06
-0.0004178647787
0.000401549774
-8.08334052e-07
-0.0004021775528
1.436112865e-06
-6.213290258e-05
5.562474177e-05
-0.0007912124226
0.0004017721408
-0.0008037914346
-5.144510155e-05
-0.00159810514
-0.0001301335199
0.0007991773647
0.0007959382238
-0.0004634241431
-1.431847568e-05
0.0004637874328
-1.883053676e-05
-0.0004596514113
0.0004609137232
1.756822493e-05
-0.000119748728
-0.001817918821
0.001818541415
0.0001191261343
-4.209108252e-05
4.177827713e-05
-0.0009088601808
4.112568133e-05
-0.0009248578389
-4.134940937e-05
4.23690818e-05
-0.0008914483439
-0.0009062260475
-4.209222822e-05
-0.001811168406
-0.0001199448058
0.001811364484
-1.049711116e-05
-0.000477743853
0.0004793544984
8.88646581e-06
0.0004810260163
8.51242496e-06
-0.0004809637141
-8.574727208e-06
6.277177988e-06
-0.0009642039605
-6.589514025e-06
0.0004820121934
0.0004825041031
-0.0007495113577
-1.416841549e-05
0.0007494773807
1.420239247e-05
0.001615304966
3.736988793e-05
-4.201022934e-05
-2.282246638e-05
-0.0007864327475
-0.0008014094109
0.0007893373099
-0.0008056721051
3.252176561e-05
-0.0007935897467
-5.580000851e-05
0.000794682363
-0.001576626538
-0.0001355691202
0.0007908929072
0.0007590710168
6.888741248e-05
9.334432126e-05
-3.12183595e-05
3.214298459e-05
-0.0007504359828
-0.0005045220676
0.0005670010217
-4.8436857e-05
-0.0008018957504
4.676134485e-05
0.0004017617206
0.000401809542
-2.59239903e-05
-7.299997588e-05
-0.0004055981014
-2.249141662e-05
1.956575224e-05
-0.0004069055398
-0.0004038029408
-1.59011518e-05
-0.000796797552
-4.604447922e-05
0.00039806529
0.0003963398842
-2.199328345e-05
-0.0004145348532
0.0004145993697
2.19287669e-05
-0.0004144467449
-2.20464023e-05
0.0004144998637
-2.044263635e-05
-0.0004334658027
0.000433355319
2.055312007e-05
-0.0004340924446
-2.101405189e-05
0.0004346638601
-0.0004528131783
1.876515321e-05
-1.579690615e-05
0.0004498449313
-0.0004600709141
0.0005818930899
8.746638013e-06
-3.966555838e-05
-0.0008989455693
0.0008989438323
3.96672953e-05
-2.312865343e-05
1.724453649e-05
-0.0004541867971
1.926697881e-05
-0.0004536284689
-1.84516882e-05
-2.084145441e-05
5.063588509e-05
-0.0004415796667
0.000411785236
-0.0004507371178
-2.546524658e-05
-0.0008973225054
-3.976731426e-05
0.0004488537541
0.0004485705072
-0.0004673852984
2.293224144e-06
0.0004675563731
-2.464298864e-06
1.21181699e-05
0.0009351486027
-1.219818294e-05
-0.0009350685897
-1.218422095e-05
0.0009431004489
-0.0009431934756
1.227724771e-05
2.47703021e-05
-0.0009422147334
-2.503187026e-05
0.0009424763016
-0.0009356548737
2.56786946e-05
0.0004685668971
0.0004677029729
0.000602028496
3.290803105e-06
-0.0004769526584
4.283705105e-06
-0.0004850113862
0.0004856330231
-4.905342075e-06
1.263371092e-05
0.0009726443148
-1.272635266e-05
-0.000972551673
-1.272821998e-05
0.0009800147213
1.227607648e-05
-0.0004894358528
-0.000490126725
1.240671163e-05
0.000962215585
-1.266464778e-05
-0.0009619576488
0.0009701965976
-0.0009701144999
1.255161325e-05
-0.0004830875623
3.475216152e-06
0.0004838960512
0.000409670285
9.064991043e-07
0.0001036098423
-0.0005141866263
0.0004012062639
-2.989063357e-06
-0.0004008983879
-1.608810308e-06
0.0008061587283
1.305839011e-06
-0.0004020335885
-0.0004038221685
3.080741818e-06
-3.790477472e-06
0.0004019159996
-3.2502579e-06
0.0004058767599
7.043782957e-06
8.351204459e-06
-3.228179115e-05
0.0004074186758
-0.0003834880891
0.0004039497497
2.599541266e-06
0.0008092242341
-7.16398826e-07
-0.0004052430199
-0.0004048736256
-3.721960312e-06
0.0008056319943
-0.0008061610238
4.250989769e-06
1.536621658e-06
-1.996359363e-06
0.0004020095117
2.100248619e-05
0.0003996020048
-8.351931231e-06
-0.0004049515311
-1.825947777e-06
0.0004035272209
-0.0004014317691
0.000401557695
1.410695745e-06
0.0008014856504
-3.203056778e-06
-0.0008020045539
1.717602719e-06
-0.0004039577059
-0.000404413164
3.681320136e-07
-2.267748601e-05
-0.0004072035754
0.0004062225427
2.365851869e-05
-0.0004056444795
-2.273600645e-05
0.0004057029999
-7.229731444e-07