/*--------------------------------*- C++ -*----------------------------------*\
| =========                 |                                                 |
| \\      /  F ield         | OpenFOAM: The Open Source CFD Toolbox           |
|  \\    /   O peration     | Version:  v1912                                 |
|   \\  /    A nd           | Website:  www.openfoam.com                      |
|    \\/     M anipulation  |                                                 |
\*---------------------------------------------------------------------------*/
FoamFile
{
    version     2.0;
    format      ascii;
    class       volScalarField;
    location    "1.81";
    object      p;
}
// * * * * * * * * * * * * * * * * * * * * * * * * * * * * * * * * * * * * * //

dimensions      [0 2 -2 0 0 0 0];


internalField   nonuniform List<scalar> 
12556
(
858.9544235
857.3932788
853.7705644
846.6848556
837.1428154
817.4046462
786.0974393
737.4145622
666.0181243
565.8122626
433.2238217
270.1616688
85.87742951
-102.8884852
-277.8266238
-427.0004248
-545.731678
-635.2047669
-699.6572236
-743.8357856
-779.9901651
-795.9677105
-805.0383942
-809.1625477
859.9325224
858.7939898
856.0097793
850.4369723
840.8323628
823.7345419
795.6623112
755.9540302
691.077083
597.1173147
468.3380483
304.1107899
113.5364946
-84.42834891
-270.0239539
-426.3083297
-548.6772268
-639.4605447
-710.5193777
-751.4934574
-786.6853971
-800.4154005
-808.2599928
-811.81107
862.2663122
862.0526137
861.2189644
858.9592289
851.6557952
840.5416756
820.3177502
785.3630766
729.6883005
642.6584982
513.0413951
336.2024027
121.7444763
-103.1724287
-306.478505
-469.816775
-589.9855754
-673.4352601
-740.1830431
-773.0937788
-802.0066094
-810.9864349
-816.0834406
-818.2920101
865.2178629
866.313117
868.2573174
870.3946472
867.8673824
865.1523863
857.219922
833.6401524
795.5244159
724.0673122
600.6189408
405.9341996
141.8463551
-142.8601872
-383.4507437
-553.9659533
-665.2558581
-734.6579325
-785.726394
-805.4865525
-823.6068226
-826.3428219
-827.3311923
-827.5687165
867.4039411
869.9986669
875.2006943
882.4537411
886.0932082
894.2696573
902.0878143
898.0927343
886.9407427
848.1771185
751.8231868
542.9673222
182.7249152
-227.0696504
-528.5013574
-699.1207166
-781.6206476
-819.551177
-844.4543208
-846.0689195
-848.5185322
-843.5016411
-839.5147498
-837.4189924
867.3434155
871.4396505
879.9087147
892.8637069
902.4154024
923.2940171
949.2542635
968.9293059
997.6710599
1016.882826
996.7812478
822.6194066
261.147543
-442.6458947
-810.1270526
-924.5704919
-938.7204819
-925.1439977
-911.6593172
-889.8734654
-873.1818633
-859.5009674
-850.0767758
-845.5261065
863.6080073
869.0335284
880.2794293
898.1409213
915.0544459
946.8381399
990.2873488
1034.397337
1105.119475
1200.944043
1336.8005
1455.878981
511.5355525
-1119.449974
-1318.650176
-1236.960612
-1127.297444
-1039.092468
-978.148479
-930.6356498
-893.8413967
-871.0296937
-856.4835504
-849.6513214
854.9605331
861.3507463
874.5779293
895.9036122
919.0899633
959.2087075
1015.019789
1079.403253
1181.393924
1334.230119
1602.295516
2157.455489
-2896.227133
-2042.690541
-1583.853301
-1309.755206
-1141.473163
-1030.843125
-960.7570254
-904.5902798
-874.7007556
-856.2832578
-847.5485443
840.4574124
847.3248686
861.5066087
884.4727496
912.3551126
956.523343
1018.008999
1093.342055
1205.780976
1363.498639
1597.17253
1893.096076
-4308.779001
-2553.228035
-1821.507436
-1429.57215
-1204.688568
-1057.392026
-972.1399359
-901.878415
-867.9143052
-847.3001255
-837.4653586
819.5866619
826.3969417
840.4068014
863.0251798
893.5423284
937.3196291
997.4480327
1073.318119
1177.434831
1311.492446
1476.405087
1633.532256
-3962.757276
-2530.689206
-1836.637718
-1440.613799
-1208.364892
-1049.068982
-960.4607668
-883.5655641
-849.1658295
-828.3227022
-818.3439958
792.33023
798.588897
811.3739819
831.7566441
863.0078359
902.5302873
955.7542412
1025.179597
1112.833795
1218.742546
1339.860257
1455.069438
-2968.478913
-2129.155191
-1651.1478
-1344.800892
-1151.03709
-1005.202184
-925.0823899
-849.5891067
-818.3771758
-799.2636655
-790.051255
759.1240043
764.4233431
775.2191678
791.5311859
822.7037846
854.5426788
897.0780425
955.627541
1023.488502
1102.943302
1195.68788
1308.796714
-1940.195061
-1588.921087
-1357.239108
-1177.66355
-1047.05066
-932.3589019
-869.5146984
-801.8347675
-776.9779301
-761.0876458
-753.369924
720.8106169
724.8830063
733.3104927
745.3086814
772.6677859
796.2969515
825.715214
871.3257167
917.2833911
968.5918599
1027.923714
1128.93738
-784.3279732
-1000.594214
-1072.404258
-1045.448591
-983.4414892
-918.3814111
-841.6311544
-799.2330339
-745.1723734
-727.5011626
-715.5770559
-709.8096818
678.4395028
681.178676
687.0292489
694.9594444
717.3139025
732.3283567
748.6021251
779.1590234
802.3474581
821.9632195
833.2511249
864.3046181
251.3528342
-418.1186058
-677.4095232
-776.5597283
-797.5824442
-784.0068252
-744.5366146
-721.8575711
-683.3934042
-672.6227602
-664.9449963
-661.2979306
633.1975449
634.528681
637.4714364
641.0919278
658.6623217
664.4069616
668.6083055
682.9508771
684.363011
673.4623969
634.2241035
524.0090163
220.2585632
-175.8614625
-433.8914406
-575.0941274
-639.222417
-659.5328803
-648.8194178
-643.6165154
-619.420232
-615.0092431
-611.4807662
-609.856444
586.285622
586.3175149
586.4862939
586.0993584
599.0511724
596.9149337
591.0662494
590.8785689
573.8920888
540.6529167
475.975671
359.5899783
159.3733517
-94.96169282
-300.6424933
-436.5246842
-513.3344949
-551.4791485
-560.8276033
-568.5419617
-556.1863153
-557.1723287
-557.2636549
-557.3706957
538.8747919
537.8224526
535.6683238
531.9562984
540.5811591
532.1500362
518.4261735
507.2853924
476.0548996
428.841148
356.4985886
253.5162833
103.0539721
-71.65085868
-225.9092426
-340.669538
-415.1735418
-461.1505942
-482.6014526
-499.0145473
-495.9361141
-501.0941463
-504.0185171
-505.4377495
492.005236
490.1012306
486.1222335
479.8502354
484.7768714
471.7529821
452.6068439
434.8907523
395.2198925
340.9250696
269.6681391
179.7452242
63.79628786
-63.18706135
-179.2455675
-270.9755178
-338.2255533
-386.3017762
-414.6722641
-436.2104735
-439.9232204
-447.9785092
-452.967267
-455.3171284
446.4971402
443.9645144
438.6369823
430.5383383
432.5991508
416.5820172
394.2543451
373.0638314
331.7586853
277.2733757
210.3672379
134.411264
41.04844632
-55.45507242
-143.8220285
-219.0641906
-279.465706
-325.9012069
-356.7252657
-380.598599
-388.6996801
-398.5393615
-404.8679538
-407.876567
402.9588825
400.0102348
393.7872234
384.5267318
384.5212544
366.8600438
342.9348793
320.6630586
280.3426215
229.9630776
170.3488994
105.6024859
31.1789345
-45.47032047
-117.2714121
-180.6481968
-233.8039756
-276.743528
-307.5739652
-331.8273027
-342.4432242
-353.1758612
-360.2381178
-363.5977393
361.8097069
358.6346672
351.9220523
342.0602558
340.6932378
322.4211636
298.2375867
276.218608
238.2515097
192.6738145
140.6742352
85.43702661
24.34366979
-38.32910217
-97.69733068
-151.2797674
-197.6028212
-236.2981431
-265.8053918
-289.2241428
-301.0115556
-311.9575119
-319.2734707
-322.7601372
323.30246
320.0548958
313.1882336
303.1902345
300.9521564
282.8709637
259.3800741
238.3610425
203.4226859
162.7199336
117.3944857
70.21379498
19.11550277
-32.97502922
-82.6384668
-128.1430791
-168.3336083
-202.7526578
-230.0752929
-252.0362188
-264.0607076
-274.7409239
-281.9656685
-285.4151234
287.5442905
284.3411045
277.5736508
267.7920925
265.0840528
247.731192
225.6289239
205.9316431
174.2750141
138.2180921
98.72013366
58.24481026
15.0676125
-28.72078207
-70.63204277
-109.4306679
-144.2290474
-174.5832314
-199.3600544
-219.5198388
-231.1609596
-241.266045
-248.169533
-251.4701557
254.5264052
251.453033
244.9653764
235.6475607
232.7738575
216.4972459
196.0902026
177.9980083
149.6166708
117.8526439
83.45728925
48.61830386
11.90035439
-25.18681496
-60.77133563
-93.94844363
-124.0379348
-150.6460376
-172.7913342
-191.0044784
-201.8722706
-211.2183231
-217.6553713
-220.7356139
224.1576113
221.2740786
215.1902736
206.4999481
203.6874051
188.6960179
170.1311121
153.7725652
128.5438034
100.6876216
70.77924514
40.7412045
9.40181687
-22.15173048
-52.47488682
-80.88856031
-106.8679048
-130.0774355
-149.6482361
-165.9003108
-175.7701441
-184.2613202
-190.1481125
-192.9660794
196.2911733
193.6369921
188.0376505
180.0758265
177.4842156
163.8837575
147.2069591
132.6126264
110.3587409
86.04017259
60.09902288
34.20083659
7.418083888
-19.47856904
-45.35377763
-69.6865336
-92.06793094
-112.2177439
-129.3449938
-143.6968415
-152.455946
-160.0566465
-165.3537562
-167.8893084
170.740849
168.3394572
163.2719528
156.0935103
153.8374865
141.6643832
126.8568202
113.9981592
94.51954367
73.40186526
50.9884167
28.701215
5.835593045
-17.07877579
-39.13928972
-59.93872174
-79.15568788
-96.55862989
-111.4058928
-123.9585613
-131.5617831
-138.2755688
-142.9739135
-145.2219253
147.294417
145.1574308
140.6447939
134.2721859
132.4321523
121.6786667
108.6834036
97.5002975
80.59530388
62.38069575
43.12423676
24.0230492
4.568589009
-14.89181173
-33.63761352
-51.34584222
-67.76247958
-82.69798139
-95.43598703
-106.3076532
-112.7525359
-118.6064389
-122.7160799
-124.6809124
125.7267028
123.8576894
119.9062934
114.3402066
112.9744547
103.6065586
92.34727239
82.76289691
68.24062443
52.67069147
36.26002275
19.99889172
3.551334813
-12.87465037
-28.70502037
-43.68099534
-57.60145653
-70.3138756
-81.10772388
-90.41926742
-95.72579208
-100.7595993
-104.3015637
-105.9930017
105.8075258
104.2047565
100.8101709
96.03768605
95.18937919
87.15976748
77.56967533
69.47934669
57.17169368
44.02585932
30.20070459
16.49772566
2.732321139
-10.99472185
-24.23036886
-36.76580444
-48.44153952
-59.13609111
-68.14610682
-76.0102424
-80.20855749
-84.46727654
-87.4680392
-88.89865985
87.30281017
85.96208373
83.11400556
79.11191254
78.82671171
72.0747378
64.11086692
57.39771752
47.15479401
36.24513189
24.78887463
13.41517096
2.070617286
-9.22638967
-20.12526648
-30.4573884
-40.0959695
-48.93349528
-56.31162516
-62.83155262
-65.94916861
-69.48021695
-71.96752973
-73.15017977
69.99818747
68.91237437
66.59760292
63.34074505
63.63923961
58.10897322
51.69086854
46.31305954
37.99419888
29.16037805
19.89451989
10.66653055
1.533317184
-7.548420506
-16.31715903
-24.63846475
-32.4145362
-39.55537054
-45.3718156
-50.65716214
-52.73438995
-55.58053822
-57.58129077
-58.52977716
53.61634496
52.78465666
50.99509181
48.45149018
49.435996
45.04118291
40.02012688
36.03617418
29.51448703
22.62475093
15.40609875
8.180203792
1.093486742
-5.94182791
-12.74320191
-19.20658264
-25.26189308
-30.85519542
-35.14894097
-39.28428917
-40.30991436
-42.51911838
-44.05281641
-44.77297396
38.1378866
37.53979256
36.25878864
34.44781197
35.83939946
32.66880127
28.98708525
26.36189015
21.55374965
16.50739869
11.22613563
5.894199165
0.7289952875
-4.389238206
-9.347858445
-14.07009065
-18.51032606
-22.63336167
-25.506623
-28.51333722
-28.68913876
-30.25412041
-31.34364674
-31.86004096
22.6370794
22.32915593
21.56872578
20.47705147
22.86935524
20.80575484
18.4128364
17.12505491
13.96547758
10.68743789
7.265086418
3.754951908
0.4220995937
-2.874155749
-6.080393512
-9.145674527
-12.04651453
-14.768288
-16.27296237
-18.24725226
-17.09106427
-18.03018282
-18.67226101
-18.92824289
10.01252407
9.784324101
9.424946057
8.897355599
10.17866284
9.182709479
8.046563589
8.170691132
6.616875056
5.04756027
3.434064562
1.711377694
0.1607234628
-1.381054122
-2.893633594
-4.357337263
-5.765315062
-7.136051198
-7.243091572
-8.162649409
-7.793428273
-8.246747709
-8.560595491
-8.778149089
1938.09563
-4619.271535
-3075.263142
1659.55777
-4317.747659
-4671.011865
1474.416427
-3228.434501
-4204.043037
1327.849502
-2111.987449
-3083.666806
1142.907491
-839.1359618
-880.1199831
-1116.647862
-1979.53666
895.442913
339.0785777
-790.9393937
199.6909508
-429.5424983
-1005.544994
2116.2249
744.6018536
-2710.4187
-925.8720474
-6167.352653
-3989.429056
-4251.241468
-2738.444343
-2205.725244
1509.476864
1642.366427
1857.16341
-6138.763622
-6511.148083
-4058.888392
-2844.897158
-2831.481046
1374.358952
1462.202415
1617.25609
1560.442313
1598.557078
1693.19707
-4488.317872
-5341.213456
-3100.191877
-2428.252804
-2775.804949
1233.225824
1312.446729
1442.663734
1400.172468
1445.285507
1502.178795
-2954.830075
-3603.024308
1072.904477
1137.442311
1293.119996
1238.077531
1306.758286
1376.956981
-1652.024898
-1609.001182
-2180.288735
882.8300678
895.606739
1111.344246
1028.702398
1088.975625
1203.68406
592.9409081
333.7201038
352.2960399
2404.42757
2011.477023
2892.424884
2483.444585
-6524.59795
-6223.175979
-4226.514162
-5948.400769
-6356.298167
1705.803697
1797.407504
1745.62927
1801.718401
1710.138146
1976.347492
1817.085438
-5392.84334
-6102.580521
-4524.383587
-5969.493503
-5301.366553
-6345.659975
-6003.838614
-4559.899341
1511.456201
1585.909333
1537.587307
1593.430849
1513.539655
1703.483899
1600.319733
-3699.255963
-4427.950519
-3661.079521
-4321.799258
-3626.673593
-5250.711311
-4431.11322
-3803.184786
1381.740721
1441.902242
1382.401897
1445.879802
1386.688835
1508.704291
1449.017909
-2264.079992
-2865.724595
1210.494882
1301.706003
1226.481776
-1606.825203
1307.781615
1216.374819
1381.784464
1312.892375
-1648.873289
-1029.949421
-1529.807042
-1601.244556
1034.480954
1080.409656
1011.742855
-46.2781391
1086.743519
944.0945711
1209.561519
1094.513606
-123.1793349
1616.964845
1895.006931
2042.480856
2123.786027
2437.544227
2745.451957
-7798.837658
-5028.992133
1778.130392
1813.297105
1977.026694
-3530.504926
-2064.467039
-1812.836009
-2282.836727
-2063.050353
-2007.004002
-2307.252212
-178.8938129
-499.4348048
-885.6660928
2011.368768
2369.97725
2082.00803
2112.450622
3770.189387
3265.585108
-3788.077542
-5809.464181
-4003.097699
-2356.443381
-2680.81413
-2520.07995
-2821.613171
-2237.984267
-3534.066488
-2907.881863
-2659.092793
-1194.85363
-312.6465478
-471.6094576
1168.761953
2053.605809
2851.169991
-3504.127593
-1083.420054
849.9464654
-7905.55125
-5582.757466
-7633.744388
-4786.362935
-7481.811417
-5250.799418
-6316.798279
-6344.126043
-4891.276366
-4949.131107
-3121.135801
-3458.18434
-3226.634102
-3436.84519
-3093.20027
-3865.216762
-3488.43673
-3319.359339
1339.900084
1306.160735
1275.250485
-1640.317584
-1915.572816
-1983.402091
1147.139146
1108.411381
1059.781353
1165.622276
1123.368785
1154.09387
2438.883418
2146.786996
2200.263891
2156.355081
2461.102768
1966.189428
2124.389699
2144.889959
2808.703079
3203.148411
3618.125971
2523.816209
3106.615868
2733.246079
3148.680473
2513.424716
-6499.90876
-6487.347901
1757.365296
1814.03333
1751.099054
1893.051988
1872.03669
1954.559339
1817.925804
1863.621192
1871.145542
-5725.553519
-5769.712544
-5669.560311
-5068.669422
-5236.150682
-4790.712592
-5004.478966
-5626.048912
-6211.868386
-5413.375655
-5434.306984
-5282.298161
-5390.12751
-6185.905839
1552.852843
1547.205961
1656.03391
1648.542508
-3999.423565
-3906.561553
-4052.403925
1419.291316
1415.060065
1477.777993
1473.82873
-3041.494559
-2706.499352
-2603.81769
-2726.705349
-3063.811852
1251.105214
1216.994617
1178.811327
1264.294238
1229.355874
1258.444643
-1245.516951
1263.238759
1255.403499
1348.702409
1344.661128
-1991.108332
-1246.861907
-1278.508576
-1549.469191
1041.757204
985.1845789
954.2657806
975.8228982
479.0093322
179.0680722
1160.698548
-300.8891231
135.3079136
-214.3930477
1154.42994
-378.7582516
-248.3980032
102.2314533
-6361.174027
-2214.664597
-2371.361625
680.8321601
627.8579141
858.6837129
740.3940444
753.7787594
978.0697267
232.7701956
-120.6641975
-313.0519327
4680.6637
-2406.425152
-2577.63096
-931.7150636
-1189.362896
-1197.687526
-139.5196112
-391.7587143
-105.6194852
1818.918539
2767.420525
3723.078064
-4396.464208
-1311.07252
950.6689264
-6225.552289
-7039.699608
-6922.836446
-6449.804443
-4659.224158
-4855.471237
-4652.86116
-5611.398362
-5438.12878
-5179.420528
1470.855495
1447.687623
1422.575824
1483.47533
1456.352375
1475.11863
1344.566794
1315.960088
1344.207043
1114.682007
1098.049014
1071.35246
888.4186408
658.817139
390.0016329
-6527.784299
-7055.269308
-7084.857187
-6302.086552
-5255.597538
-4970.209492
-5422.315127
-5317.049562
-6309.091065
-5541.876593
-5827.037027
-5670.288604
-5972.426795
1540.696636
1522.718223
1492.926643
1521.770393
1534.303846
1527.229574
-4589.421544
-4404.785806
-4263.435021
-4011.826996
-3762.210106
-4024.794859
-4876.103879
-4464.532773
-4712.759152
-4113.3231
-4378.091052
-4820.653238
1410.909146
1380.54539
1353.824699
1414.332594
1389.199396
1415.103362
1435.84106
1451.409703
1457.9167
1401.212787
1420.344646
1400.394209
1495.017896
1502.076983
1517.089473
1459.686233
1466.999772
1458.832949
-2518.238982
-2660.644858
-2350.011583
-1445.908711
-1451.412464
1291.258428
1225.924278
1366.616123
1376.515349
1396.862834
1347.392962
1326.640185
-1787.406601
815.5239868
968.0483304
922.7547404
1061.785982
1029.142717
1045.138001
145.6649301
386.6032914
150.7353698
1053.87696
437.7214345
706.6105788
516.3319731
601.8517782
1184.272881
1120.907692
-7150.497877
-6126.382273
-6790.442502
-3672.082125
-3736.460774
-2025.22074
-2166.871536
-2179.747499
2042.637093
2020.762668
3687.963923
4172.476525
4394.981484
3997.171753
3602.21568
-2756.158889
-2583.782581
-2538.693635
-2586.944456
-2774.498609
-1205.179911
-1027.057623
-1040.389063
-1030.418078
-1207.931798
-806.6557634
-981.0069847
-565.3949057
-591.4067149
-756.7311139
-378.6492612
-537.5629652
-464.0873025
-7905.274593
-6890.423248
-6441.086252
-7210.947242
-6996.310217
-6256.534741
-5541.03977
-6669.781033
-6701.460826
-6600.353647
-6246.752557
-6425.472246
-6877.136115
-6744.097676
-5109.94979
-4920.86852
-4717.867637
-4978.507999
-5178.7407
-4713.906495
-4917.791229
-5239.956877
-5122.815895
-5381.848791
-5174.067584
-3264.032039
-3326.277579
-3294.576448
-3209.95176
-3352.1545
-3710.176899
-3600.357364
-3752.37374
-3399.701311
-3550.19184
-3654.210565
-1853.215617
-1830.042135
-1974.498812
1129.862249
1106.533117
1119.598851
1172.522645
1158.587995
1137.696519
2291.613323
2251.378922
2263.605048
2288.870323
2182.38035
2466.691159
2329.230131
2306.185727
2026.634668
2048.854781
1990.181214
2151.334941
2071.577731
2049.483138
2743.321467
2691.791505
2523.323637
2842.219374
2746.138768
-7121.875746
-7062.478555
-6524.454107
-7232.476297
-7336.065681
-7194.6458
-7300.07576
-7275.472206
-7378.595819
-7302.569963
-6410.355271
-7070.804594
-7142.012989
1785.407899
1784.191709
1768.406978
1810.868977
1790.743936
1793.700551
1746.26612
1732.157816
1764.610404
1750.714504
1902.119007
1917.458615
1883.900417
1973.870943
1930.226705
1912.966656
1838.5847
1840.143391
1817.606749
1874.085268
1848.257651
1846.983799
-6017.328814
-5875.679589
-5589.461559
-5919.585308
-6223.104929
-6056.598913
1577.367875
1561.324248
1602.76686
1581.97219
1536.201521
1524.75838
1555.15947
1539.826555
1696.227872
1672.06561
1726.478
1704.22291
1631.571107
1608.841431
1663.987806
1639.811808
-4005.75728
-4170.96045
-3804.498468
-3956.392417
-4053.686948
-4455.352365
-4644.462003
-4224.53747
-4398.087261
1431.165574
1447.242688
1432.011116
1453.279685
1434.200277
1461.453235
1457.977002
1430.350348
1403.736008
1421.43674
1426.871638
1486.810351
1497.289032
1490.303481
1500.811676
1489.984112
1519.971827
1504.880035
1468.491731
1462.386524
1483.152085
1471.348542
1462.365424
1470.066823
1482.106974
-2782.996316
-2873.241994
-2940.087326
-2770.825358
-2991.749698
-2918.592215
-1218.361053
-1403.811502
-1432.226013
-1218.430298
1285.581378
1234.097018
1359.942981
1371.117022
1361.755542
1331.589576
1352.848241
1357.765258
-1871.393129
1028.472657
1016.921145
981.1347946
628.3469196
536.1220348
1039.193554
260.8360938
415.5324229
312.4675983
1175.423525
-456.3443881
-17.7480233
205.7256528
-63.04809344
1119.303837
-2596.018449
-1971.974964
-1316.602598
-2357.080212
-2411.544628
-1137.243617
-1202.574249
-1654.041002
-2420.643155
-991.0031836
-978.9270241
-812.6306612
-2156.599378
-1634.401469
-1592.5646
2122.839248
3407.676241
4431.387661
-5085.323362
-1575.065276
1112.192222
-1743.47636
-1384.498263
-3382.775708
-5904.946725
-6674.19261
-6913.07148
1639.045688
1614.723608
1578.107046
1666.109229
1627.424785
1652.886673
-1637.443676
-1781.277085
-1791.868584
-2259.017003
-1987.903614
-1931.143003
1186.391559
1166.112873
1180.481741
-6974.099998
-7055.853411
-6386.390609
1566.397329
1533.212828
1551.27536
1575.292467
1580.983081
1600.813247
1607.221585
1629.057652
1620.223853
1224.394151
1211.419968
1193.334277
-1620.043061
-1572.5717
-1561.632469
1221.784645
1229.379172
1222.217199
-1719.552818
-1731.355864
-1633.709042
-1450.228875
-1442.135535
-1588.51657
1077.702818
1202.787114
1209.961641
1215.475178
1099.786815
-7697.582935
-3567.82394
-2043.903811
-2113.364021
-2119.686426
-2353.000844
-2204.862397
-2169.58898
2082.890462
-4835.731718
-4310.380503
-5177.058114
-2493.241916
-2549.09477
-2397.548429
-807.6948299
-822.4660208
-641.5348092
-647.4036647
-748.7714329
-2200.730201
-1674.756911
-4260.819951
-7785.404295
-7383.022509
-7232.875579
-7744.777103
-7736.920851
-3168.93421
-3201.582704
-3151.383898
-3475.228294
-3467.228505
-3439.459352
-3018.920287
-3159.936283
-3238.604526
-3827.527878
-3774.249816
-3826.283193
-1975.688797
-1952.753961
-1986.216043
2381.59467
2447.916547
2181.048931
2189.940351
2200.626423
2167.047846
1978.968092
1992.823101
1976.545294
2135.726953
2107.114397
2095.704602
2945.95348
2755.93224
2829.764249
3038.371403
3047.919
3191.36546
2508.047528
2572.154457
2582.316838
1773.568344
1771.888332
1773.858158
1812.577518
1806.622622
1808.511324
1749.500039
1746.48494
1771.830973
1766.438157
1882.823611
1886.741037
1876.605175
1961.732616
1947.120017
1941.056652
1822.207576
1823.479711
1817.807106
1867.681742
1860.537549
1858.359483
1559.301275
1575.591253
1569.109882
1532.274179
1538.491486
1553.629459
1668.129492
1691.34062
1676.806145
1687.824903
1679.181715
1742.276579
1734.564916
1617.569889
1670.618919
1662.133997
1627.65155
1636.891104
1660.319755
-4180.592658
-4246.409682
-3878.117445
-3938.67734
-3964.743161
-4309.765129
-4330.31287
-4207.224293
-4347.923048
-4180.720306
1236.914547
1218.086101
1230.581171
1279.189172
1262.064264
1243.801238
1267.769404
1277.132743
1271.325668
1248.05271
1252.082652
1259.339427
-1989.606768
970.3489088
979.6693262
961.4058693
685.5930249
979.2906879
354.6124447
483.0762033
605.030101
1167.222206
1170.003046
1165.404981
-365.8007675
-206.9668244
-183.7922329
-199.5871407
1146.036523
1153.237768
1161.750698
-97.92004895
-178.156822
-325.8560735
-2251.14597
-2295.536135
-2396.750041
-2348.772289
-2326.536428
4739.955426
4991.668674
4584.134344
-2462.529967
-2488.291472
-2407.766209
-2596.407592
-2540.889931
-2528.432805
-2781.773315
-2004.820289
-4853.518331
-6484.120041
-6490.072832
-6411.097523
-6452.966466
-6998.681409
-6830.134256
-6863.90836
-6763.762997
-6797.618981
-6961.810703
-5557.040879
-5473.599778
-5528.848872
-5355.752197
-5417.395245
-5500.747862
-7104.136365
-6911.509647
-6892.344829
-6894.382984
-6910.294167
-7114.356154
-5772.554633
-5686.075148
-5736.992299
-5583.535685
-5635.022323
-5722.731196
-6338.902272
-6374.691182
-6233.991971
-6289.458538
1454.141222
1448.816118
1445.645608
1405.998783
1401.9599
1396.797525
1412.533446
1407.812997
1412.876437
-1575.791705
-1629.480477
-1440.921031
-1521.219552
1306.90896
1304.318362
1316.347216
1310.256869
1229.613703
1224.43135
1231.480692
1224.275694
1383.274593
1380.105703
1374.109743
1391.927192
1386.361475
1390.737386
1327.745327
1324.401685
1339.618504
1323.348485
1331.029228
-1794.448791
-1786.109929
-1775.38592
-1634.84424
967.7870811
999.9894056
1112.044505
1058.804349
1051.229694
1037.878859
1067.403102
381.8864382
366.7765305
1085.065958
962.2811454
731.7045411
1186.247943
1200.065339
1194.400955
1110.180427
-7480.989729
-7787.080973
-7460.590454
-6911.90279
-6561.356866
-5726.86903
-7344.009494
-7013.327895
-3613.870199
-3762.258186
-2176.631648
-2164.579539
-2173.614008
2061.372837
1994.753432
4302.672705
4134.322251
4018.007144
3497.7883
3357.179154
3859.117698
3660.360159
3789.553877
-2666.19817
-2600.037384
-2718.418139
-1046.901727
-1043.160496
-1031.835123
-1149.13372
-845.8800053
-825.037564
-810.9672622
-970.831158
-911.6137963
-909.7239868
-571.4182693
-627.9965625
-625.3843817
-443.9810932
-450.2450296
-498.2251217
-7607.902172
-7503.043381
-7851.411871
-7143.404693
-7454.882802
-7505.515535
-7732.477069
-7710.563457
-6657.389674
-6543.511467
-6576.381352
-6502.110688
-6515.692007
-6618.890902
-6828.569454
-6686.898791
-6726.619393
-6612.112481
-6648.481265
-6785.346942
-5049.43842
-4973.997717
-5034.268618
-5042.720647
-5113.266069
-4768.397055
-4797.087206
-4761.161596
-4857.561404
-5307.189792
-5350.797648
-5308.026824
-5222.23919
-5290.013703
-5096.557988
-5160.195746
-5243.287244
-3303.15107
-3219.401944
-3207.333886
-3233.38433
-3165.984646
-3222.579284
-3390.44218
-3417.321093
-3355.286973
-3669.932726
-3715.880006
-3743.580976
2334.973368
2214.750701
2034.977121
2011.895684
1997.964431
2071.441789
2081.534507
2057.990084
2832.108119
2929.000205
2941.702915
3220.145951
3091.858799
2658.702164
2648.175194
2736.921238
-7095.871459
-6895.156082
-6905.873903
-6884.534638
-6886.944541
-7075.823993
-7266.645911
-7296.918478
-7318.787176
-7584.01607
-7535.109831
-7592.229482
-7614.656082
-7310.731201
-7382.254799
-7520.535547
-7526.878292
-7324.410877
1785.469397
1779.70831
1779.630804
1801.645593
1799.885246
1792.718552
1754.991115
1752.156754
1761.594371
1758.043075
1907.490804
1896.95955
1892.755166
1926.332984
1932.638499
1919.241006
1838.903029
1830.681799
1829.375619
1853.393178
1853.967008
1846.8166
-5974.860804
-5880.856878
-5923.636698
-5785.151916
-5833.479883
-5924.131561
-6165.478528
-6078.116069
-6163.110708
-5965.105366
-6013.5542
-6105.770688
1572.605869
1574.635184
1578.461238
1563.236544
1569.581277
1567.245145
1594.939378
1593.800244
1603.584308
1581.550172
1586.0273
1587.594637
1532.736481
1535.131199
1537.750057
1528.011309
1531.966289
1528.98047
1549.321923
1549.840623
1556.26996
1540.463354
1544.403136
1544.157863
1705.36454
1696.637751
1688.236859
1692.705421
1701.000027
1675.901223
1684.2944
1680.165521
1724.054711
1714.134968
1637.320648
1629.839584
1623.502849
1626.665755
1634.477882
1610.23785
1612.091101
1614.448915
1655.929082
1659.285841
1667.569561
1642.901846
1651.074687
1647.882997
1653.858824
1645.664419
-4094.089205
-4129.942223
-4029.729845
-3996.31514
-4029.115349
-4510.663404
-4543.773198
-4494.422809
-4684.591778
-4605.949028
-4572.678959
-4273.210787
-4308.714412
-4273.567682
-4442.156241
-4389.6466
-4335.954698
1435.933631
1431.994496
1427.283286
1441.699903
1436.977261
1441.646595
1446.015548
1439.152823
1460.755138
1459.775453
1428.005233
1418.945193
1413.677098
1413.555849
1413.505917
1422.714311
1418.819641
1424.11825
1489.135082
1493.649814
1503.99305
1492.788331
1514.830896
1517.35937
1522.938519
1507.809517
1512.370319
1509.862861
1465.884052
1463.811327
1477.740596
1474.249346
-2884.518493
-2866.381121
-2927.360945
-2760.495108
-2810.962321
-2846.235311
-3061.01842
-3105.349719
-2973.716876
-2984.729351
-2996.416313
-1367.587644
-1370.790491
-1426.827786
-1233.095162
-1296.955098
-1305.670752
1282.628841
1271.338282
1300.644005
1293.476497
1239.296899
1244.954024
1240.742037
1248.127271
1242.73646
1262.150203
1254.908047
1363.023467
1360.511608
1357.002504
1368.926166
1364.461945
1366.732191
1355.314124
1348.528613
1344.509256
1353.972898
1351.304476
1356.504262
-1931.0276
1022.161271
1004.881637
1009.932909
585.5426443
600.4439003
660.3569256
540.6861416
548.424726
531.85268
1023.053763
356.9573628
305.1777812
238.0341745
1169.579191
1171.743555
1175.816623
-433.9361745
74.14600875
15.04575615
188.1127354
175.5751567
188.0207324
-4.094583698
-138.7938678
-119.3647212
-16.55328197
1131.754223
1145.563719
1137.995431
775.9959654
734.7104909
710.3877115
717.3084714
653.8593739
624.3357167
627.8006356
535.2340223
504.2381312
498.2882663
372.4952127
347.8521978
325.0415207
172.6447843
161.1869261
118.6076508
-43.47823402
-36.87524512
-97.08291457
-247.4340928
-226.4948516
-294.1833104
-418.7256375
-390.2625172
-455.6524069
-549.5665016
-520.725179
-576.5126141
-643.4272819
-618.732815
819.9542246
789.8831355
746.2329088
776.5526416
723.2134708
668.0806748
699.9974942
610.8772498
550.1007685
573.7377743
437.6063272
384.7948004
383.8258215
201.3128506
177.8442846
135.3522909
-65.33678962
-47.64656289
-130.1388703
-307.350637
-258.8372922
-359.3035067
-491.5752112
-432.8643612
-528.1929573
-618.3403431
-563.6223239
-642.7492534
-701.6139519
-655.3666432
880.8004502
868.5815776
807.4943298
861.7932289
829.1436185
746.0428106
812.880539
740.6746576
637.5294666
706.5314949
563.1532799
461.908507
499.5315184
261.3097383
212.5236474
169.7978829
-111.2290355
-73.66268249
-199.1686583
-423.4499149
-329.6732412
-483.2264909
-620.8319189
-517.6584421
-655.2412184
-731.10575
-641.6985698
-748.9239112
-787.0335618
-720.6747033
951.2359952
965.6818419
891.7363763
969.3610528
973.9795733
861.6993467
971.8380408
944.7449807
783.902051
925.0715439
803.3529901
609.2703271
731.5903249
388.3366386
284.4827596
236.8375299
-231.4773336
-130.4150308
-365.9425663
-657.1059463
-466.8950866
-721.2829451
-840.0144659
-665.9434108
-860.3738317
-891.5254529
-766.7521355
-895.6388355
-898.1732789
-812.5248557
1019.411996
1063.468609
990.8300809
1079.909827
1135.778647
1014.024801
1156.885397
1225.847649
1009.583906
1247.995203
1275.332156
893.556581
1243.962253
668.7041102
440.1113841
477.7805731
-665.2579451
-291.9519864
-867.0945905
-1141.704221
-747.8102904
-1166.969586
-1165.443887
-910.3779388
-1151.531104
-1097.550249
-939.1623439
-1078.703651
-1026.517638
-929.2790995
1070.853859
1139.609179
1085.584389
1166.812171
1267.519201
1173.809583
1309.865658
1480.602298
1298.92331
1559.810259
2007.552796
1442.902545
1743.538295
1813.416792
1306.878006
636.9212703
-747.4635815
-236.7348142
-1551.084761
-1523.876312
-1235.171896
-1858.206957
-1576.744353
-1263.939392
-1500.909009
-1316.662938
-1153.389497
-1267.634127
-1149.883605
-1058.861349
1092.770785
1172.789485
1152.433335
1204.286518
1318.946536
1288.924639