/*--------------------------------*- C++ -*----------------------------------*\
| =========                 |                                                 |
| \\      /  F ield         | OpenFOAM: The Open Source CFD Toolbox           |
|  \\    /   O peration     | Version:  v1912                                 |
|   \\  /    A nd           | Website:  www.openfoam.com                      |
|    \\/     M anipulation  |                                                 |
\*---------------------------------------------------------------------------*/
FoamFile
{
    version     2.0;
    format      ascii;
    class       surfaceScalarField;
    location    "0.62";
    object      meshPhi;
}
// * * * * * * * * * * * * * * * * * * * * * * * * * * * * * * * * * * * * * //

dimensions      [0 3 -1 0 0 0 0];
oriented        oriented;


internalField   nonuniform List<scalar> 
25162
(
0
0
0
0
0
0
0
0
0
0
0
0
0
0
0
0
0
0
0
0
0
0
0
0
0
0
0
0
0
0
0
0
0
0
0
0
0
0
0
0
0
0
0
0
0
0
0
0
0
0
0
0
0
0
0
0
0
0
0
0
0
0
0
0
0
0
0
0
0
0
0
0
0
0
0
0
0
0
0
0
0
0
0
0
0
0
0
0
0
0
0
0
0
0
0
0
0
0
0
0
0
0
0
0
3.720930177e-10
8.485560888e-08
-9.502398897e-07
0
4.276959999e-10
8.078596597e-07
0
0
0
0
0
0
0
0
0
0
0
0
0
0
0
0
0
0
0
0
0
0
0
0
0
0
0
0
0
0
0
0
0
0
0
0
0
0
0
0
0
0
0
0
0
0
0
0
0
0
0
0
0
0
0
0
0
0
0
0
0
0
0
0
0
0
-1.530230021e-09
-1.376577957e-06
2.138199957e-07
8.680146446e-06
-9.17299027e-07
-7.627690379e-05
2.301251226e-06
0.0001078057062
-8.600920309e-08
-0.0002003739006
-1.099984331e-06
0.0002248524134
1.839801276e-06
-0.0002620184186
-5.057912198e-06
0.0002599110651
8.400364469e-07
-0.0002100072561
-2.31900259e-06
0.0001812943396
7.540629042e-08
-8.112310208e-05
1.015423969e-07
5.054710065e-05
0
-1.487348319e-06
-1.782186517e-08
0
0
0
0
0
0
0
0
0
0
0
0
0
0
0
0
0
0
0
0
0
0
0
0
0
0
0
0
0
0
0
0
0
0
0
0
0
0
0
0
0
0
0
0
0
0
0
0
0
0
0
-9.617868177e-08
-2.898335753e-06
7.635679565e-07
2.057533565e-05
-8.052393582e-06
-0.0001767611391
1.380856523e-05
0.0002519568246
-6.80733028e-06
-0.000503482141
6.449952188e-06
0.0005868008631
1.880674576e-05
-0.0008022868733
-3.140460602e-05
0.0008561742242
3.358467662e-05
-0.0009440785294
-5.07632963e-05
0.0009457351075
1.828713198e-05
-0.0008622542788
-2.921272305e-05
0.0008057351464
-1.824653217e-06
-0.0005672860917
1.839686264e-06
0.0004730554495
-1.847031708e-06
-0.0001974152187
4.599504279e-06
0.0001223605298
0
-2.965246662e-06
-8.350092911e-08
0
0
0
0
0
0
0
0
0
0
0
0
0
0
0
0
0
0
0
0
0
0
0
0
0
0
0
0
0
0
0
0
0
0
0
0
0
0
0
0
0
0
0
0
0
2.836046343e-08
1.081661955e-06
-1.16738695e-05
-0.0001290597287
1.987219309e-05
0.0002197372383
-3.662405928e-05
-0.0005766397173
4.425302722e-05
0.0007105249576
7.742010527e-06
-0.001104709349
-1.731048502e-05
0.001222676868
8.717347038e-05
-0.001502425742
-0.0001085582517
0.001566646006
0.0001186685633
-0.001668954803
-0.000142203937
0.001673673488
8.004647737e-05
-0.001595607536
-0.0001013489756
0.001535741987
6.10746866e-06
-0.001245303977
-1.268326808e-05
0.001114533604
-7.15191954e-06
-0.0006890378702
1.2270573e-05
0.0005425368614
-2.650781502e-06
-0.0001618818882
6.018515593e-06
7.998817959e-05
0
0
0
0
0
0
0
0
0
0
0
0
0
0
0
0
0
0
0
0
0
0
0
0
0
0
0
0
0
0
0
0
0
0
0
0
0
0
0
0
0
0
-1.903661778e-06
-1.514335351e-05
3.69090215e-06
6.489437702e-05
-4.84032528e-05
-0.0003858665487
5.911008114e-05
0.0005339938725
-7.051533284e-05
-0.001047280721
6.5098212e-05
0.001223512905
5.718006277e-05
-0.00165680256
-5.647980211e-05
0.001752413211
0.0001619509872
-0.001959182021
-0.0001710647302
0.00198944
0.0001914913354
-0.002018939221
-0.0001962158049
0.002020050119
0.000171664969
-0.002007309115
-0.0001900483421
0.001980042449
9.161175413e-05
-0.00181771334
-0.0001063461525
0.001695831167
-4.410140384e-05
-0.001192084266
4.758790456e-05
0.001005905587
-2.382498978e-05
-0.0004569786496
3.108257106e-05
0.0003036152096
-2.035545364e-05
8.629293068e-08
-3.473589619e-08
3.083697899e-07
0
0
0
0
0
0
0
0
0
0
0
0
0
0
0
0
0
0
0
0
0
0
0
0
0
0
0
0
0
0
0
0
0
0
0
2.416179462e-08
1.11051952e-08
4.196256228e-07
-1.111427964e-05
-7.456945453e-05
1.435200884e-05
0.0001670085236
-9.437145173e-05
-0.0006094878192
9.353844763e-05
0.0008096238256
-5.383116374e-05
-0.001385881819
5.240099074e-05
0.001558742265
9.541059698e-05
-0.00195355673
-0.0001229656699
0.002038589993
0.0001518956511
-0.002111189522
-3.252644731e-05
-7.476825897e-05
0.001022170759
0.001044417818
-0.001017246542
9.829897913e-05
-9.874407774e-05
0.001017691641
-0.001047910954
0.0002603255338
0.002103248212
-0.001065350159
-0.0001146038485
-0.0001357087842
-0.002003646056
0.0001167249755
-0.0001339910335
0.00193195996
-4.3231959e-05
-0.001523199495
3.510586201e-05
0.001339592042
-5.163007485e-05
-0.0007207379244
5.997875898e-05
0.0005287743733
-0.0001047576357
-2.152108123e-06
3.480555189e-06
3.308612752e-05
0
0
0
0
0
0
0
0
0
0
0
0
0
0
0
0
0
0
0
0
0
0
0
0
0
0
0
0
0
0
0
0
0
-1.018419213e-07
0
2.167064555e-07
3.813572104e-06
5.789640448e-06
-2.164736218e-05
-0.0001239958082
2.258306886e-05
0.0002423294635
-0.0001095025677
-0.0007661721382
0.000111559291
0.000972836759
-4.189294409e-05
-0.001572665191
3.952027398e-05
0.001740198339
0.0001547263995
-0.00205330882
-0.0001607966756
0.002078866448
8.776382399e-05
-0.001053231818
-8.610637095e-05
0.001051574365
-0.001044087779
0.0001074312808
-0.0001057849585
0.001042441457
-0.002063861595
0.0001710296433
-0.0001787290751
0.002025516643
-3.271133958e-05
-0.001675748318
3.020224953e-05
0.001496589282
-7.566058701e-05
-0.0008728488629
7.70367195e-05
0.0006667935383
-0.0001818742829
-7.396810549e-06
9.295577223e-06
7.947118536e-05
0
0
0
0
0
0
0
0
0
0
0
0
0
0
0
0
0
0
0
0
0
0
0
0
0
0
0
0
0
0
0
0
0
-2.765794309e-07
0
3.584567488e-07
1.027180587e-05
1.153282679e-05
-2.722192903e-05
-0.0001528948939
2.824232848e-05
0.0002814551999
-0.0001172512513
-0.0008276478603
0.0001184772679
0.001037958282
-3.355393824e-05
-0.001633659379
3.26505098e-05
0.001792880419
0.0001688010415
-0.002061132878
-0.0001698508087
0.002070662324
9.177293572e-05
-0.001035758823
-9.176089127e-05
0.001035746778
-0.001041807898
0.0001024103615
-0.0001018653115
0.001041262847
-0.002078845073
0.0001896023431
-0.0001913968738
0.002055138689
-1.790496316e-05
-0.001746202014
1.491350384e-05
0.001576452478
-8.472744525e-05
-0.0009614554702
8.571071554e-05
0.0007502287908
-0.000223043245
-1.205801434e-05
1.297155288e-05
0.0001083151468
0
0
0
0
0
0
0
0
0
0
0
0
0
0
0
0
0
0
0
0
0
0
0
0
0
0
0
0
0
0
0
0
0
-4.501756598e-07
0
5.845764396e-07
1.535524978e-05
1.703735492e-05
-3.081190877e-05
-0.0001710308521
3.186123386e-05
0.0003051893176
-0.0001217739313
-0.0008619740645
0.0001230007906
0.001073204636
-3.099685823e-05
-0.001663245202
3.014656704e-05
0.001818007295
0.000171964287
-0.002067664562
-0.0001726005484
0.002073016818
9.174984831e-05
-0.001035647157
-9.139692425e-05
0.0005173701443
0.0005179240885
-0.001041496845
0.0001003633814
-0.000100011008
0.001041144472
-0.002077813944
0.0001887699222
-0.0001866016334
0.002048799429
-1.455775168e-05
-0.001726377587
1.464704051e-05
0.00155462198
-8.43244376e-05
-0.0009421116955
8.332279091e-05
0.0007343573794
-0.0002178161821
-1.238090577e-05
1.208038519e-05
0.0001054217879
0
0
0
0
0
0
0
0
0
0
0
0
0
0
0
0
0
0
0
0
0
0
0
0
0
0
0
0
0
0
0
0
0
-7.389406158e-07
0
9.30891689e-07
2.261116157e-05
2.469723906e-05
-3.517871749e-05
-0.0001932900697
3.635879916e-05
0.0003339229051
-0.0001266716321
-0.000903120147
0.0001279177734
0.001115597814
-2.735963366e-05
-0.001700151095
2.632270751e-05
0.001850195708
0.0001745309734
-0.002079774024
-0.0001750475199
0.002082032095
9.141098075e-05
-0.001040530315
-9.129061334e-05
0.0005200941926
0.0005203157554
-0.001043671997
9.909584265e-05
-9.877962335e-05
0.001043355777
-0.002074651748
0.0001735667045
-0.0001671480513
0.00202285086
-2.243514098e-05
-0.001637175489
1.677746087e-05
0.001468588727
-7.657031225e-05
-0.0008545413204
7.374045117e-05
0.0006534840552
-0.0001716832288
-8.352522886e-06
7.493689163e-06
7.390180167e-05
0
0
0
0
0
0
0
0
0
0
0
0
0
0
0
0
0
0
0
0
0
0
0
0
0
0
0
0
0
0
0
0
0
-1.191293815e-06
0
1.295239527e-06
3.225310984e-05
3.332089594e-05
-4.025118504e-05
-0.000218864123
4.178578583e-05
0.0003660985644
-0.0001317407583
-0.0009468078397
0.0001331240856
0.001159939069
-2.269190052e-05
-0.001736880426
2.112638766e-05
0.001881552057
0.0001762587306
-0.002089082923
-0.0001763433913
0.002089317454
9.089984618e-05
-0.001044376779
-9.088052541e-05
0.0005219222233
0.0005224352345
-0.001043833183
9.787051475e-05
-9.783343816e-05
0.001043796106
-0.002042538214
0.0001482775914
-0.0001403618764
0.00196023461
-2.484779481e-05
-0.001528535311
3.817594957e-05
0.00133033747
-6.317970186e-05
-0.0007132886456
5.894779902e-05
0.0005244422835
-0.0001109222441
-3.831327445e-06
2.899172975e-06
3.630642316e-05
0
0
0
0
0
0
0
0
0
0
0
0
0
0
0
0
0
0
0
0
0
0
0
0
0
0
0
0
0
0
0
0
0
-2.141007415e-06
0
3.580677637e-06
4.899325659e-05
5.580914385e-05
-4.590507186e-05
-0.000253388683
5.019669729e-05
0.0004049806883
-0.000137485585
-0.001000568922
0.0001371218856
0.001214394816
-1.522042546e-05
-0.001783897479
2.019122574e-05
0.001917602159
0.0001767188652
-0.002096623715
-0.0001761418991
0.001047842288
0.001048204461
4.533701871e-05
-0.0005233915061
-4.519526858e-05
0.000523249756
4.146573979e-05
-0.0002604410871
-4.09995315e-05
0.000520647761
-0.0002606728822
-0.001042577709
9.795949138e-05
-0.0001973903922
0.002086506162
-0.001042725255
9.822770341e-05
0.0001208475065
-0.001967674093
-0.0001054797247
0.001845813141
-4.57943136e-05
-0.001354502364
4.55032645e-05
0.001156048027
-4.555766389e-05
-0.0005615574575
4.118375638e-05
0.0003894311728
-4.470045025e-05
-5.024625284e-07
2.693375607e-07
4.427985195e-06
0
0
0
0
0
0
0
0
0
0
0
0
0
0
0
0
0
0
0
0
0
0
0
0
0
0
0
0
0
0
0
0
0
-3.760193952e-06
0
2.799339772e-06
6.548340395e-05
5.990731001e-05
-5.670701523e-05
-0.0002957655409
5.447512547e-05
0.0004627076988
-0.0001421664809
-0.001082884873
0.0001405151237
0.001299364583
-1.889893904e-06
-0.001848975627
6.710623098e-06
0.001972859174
0.0001779619986
-0.002104532569
-0.0001779619986
0.001052268994
0.001052263575
4.647489989e-05
-0.001052268994
-9.30867847e-05
4.661188484e-05
0.0005258296663
0.0005264393276
9.747354797e-05
-0.0005258297476
-9.747342607e-05
0.001052268994
-0.0005264393683
-0.002104532569
0.0002036713482
-0.0002014577239
0.002097771339
8.267399047e-05
-0.001842708673
-7.675054231e-05
0.001700237846
-4.071312384e-05
-0.001143208573
4.874254205e-05
0.0009379723766
-2.696480791e-05
-0.0003807164019
1.946295261e-05
0.0002453877285
-6.038923996e-06
5.473608798e-08
-3.27472592e-08
0
0
0
0
0
0
0
0
0
0
0
0
0
0
0
0
0
0
0
0
0
0
0
0
0
0
0
0
0
0
0
0
0
0
-1.409113818e-06
0
3.824262594e-07
2.983419628e-05
1.861512382e-05
-3.922287252e-05
-0.000211712943
3.235574309e-05
0.0003582066743
-0.0001243528096
-0.0009436105828
0.0001149632104
0.001158595411
-3.262533636e-05
-0.001733739644
4.169424599e-05
0.001876537198
0.0001570502965
-0.002104272906
-0.0001372325458
0.002117078163
9.308678471e-05
-0.002112759368
-0.0001867256072
0.002112759368
9.363882249e-05
0.0001954943615
-0.002112759368
-0.0001954943615
0.002112759368
0.0001852868466
-0.002072025739
-0.0001749548501
0.002009902394
4.759473504e-05
-0.001643943376
-3.906877792e-05
0.001472858902
-4.546674703e-05
-0.0008920055911
4.165625264e-05
0.0006986520559
-9.015232592e-06
-0.0002154866943
7.769503198e-06
0.0001125215302
0
0
0
0
0
0
0
0
0
0
0
0
0
0
0
0
0
0
0
0
0
0
0
0
0
0
0
0
0
0
0
0
0
0
0
0
0
-7.41094193e-09
0
0
1.613129722e-07
0
-1.248240048e-05
-7.092202216e-05
7.500763917e-06
0.0001606925119
-7.692933175e-05
-0.000603481455
6.254856154e-05
0.0007877813023
-5.676583541e-05
-0.001343304156
5.613599879e-05
0.001505620379
7.493034124e-05
-0.001861752791
-5.601548488e-05
0.001933818226
0.0001649574721
-0.00203803176
-0.0001473285404
0.002045669248
0.0001819068821
-0.002007584777
-0.0001657473912
0.001970803157
0.0001276103627
-0.001757000282
-0.0001077980149
0.001647171083
1.356812324e-05
-0.001218196742
-6.826928098e-06
0.001053190563
-2.646981359e-05
-0.0005558669529
2.075772479e-05
0.0004061045947
-1.623122235e-06
-7.554703828e-05
5.738784932e-07
2.086368403e-05
0
0
0
0
0
0
0
0
0
0
0
0
0
0
0
0
0
0
0
0
0
0
0
0
0
0
0
0
0
0
0
0
0
0
0
0
0
0
0
0
0
0
-3.64455001e-07
-1.561982424e-07
3.799076779e-08
1.184984435e-05
-2.385729548e-05
-0.0002099185601
1.454751348e-05
0.0003216757089
-3.96199404e-05
-0.000723784562
3.143913853e-05
0.0008610566096
1.38311129e-05
-0.001214576822
-5.536767648e-06
0.001302469345
8.180690175e-05
-0.001457689
-6.077062129e-05
0.001473086667
9.67600502e-05
-0.001415396928
-7.307135789e-05
0.001363071597
4.959645929e-05
-0.001117691445
-3.407759256e-05
0.001011377582
-3.76291992e-06
-0.0006522225566
4.208697507e-06
0.0005294641085
-6.016614222e-06
-0.0002014492577
2.927656949e-06
0.0001182115439
8.0691736e-09
-5.180970286e-07
0
0
0
0
0
0
0
0
0
0
0
0
0
0
0
0
0
0
0
0
0
0
0
0
0
0
0
0
0
0
0
0
0
0
0
0
0
0
0
0
0
0
0
0
0
0
0
0
-8.573919651e-07
-5.202246476e-06
8.281576798e-08
2.432628871e-05
-9.476626544e-06
-0.0001716814426
4.816252369e-06
0.0002395715267
-4.110954545e-06
-0.0004478498603
3.834804594e-06
0.0005078322981
1.569852426e-05
-0.0006267717921
-7.845219394e-06
0.000641954074
2.053508248e-05
-0.0006106730368
-1.099101875e-05
0.0005766136717
6.430789752e-06
-0.0004213497389
-2.836952634e-06
0.0003580462132
-1.326475902e-06
-0.0001655709129
4.389196113e-07
0.000109415217
3.702650742e-08
-6.386443414e-06
-2.177006955e-10
6.907658707e-08
0
0
0
0
0
0
0
0
0
0
0
0
0
0
0
0
0
0
0
0
0
0
0
0
0
0
0
0
0
0
0
0
0
0
0
0
0
0
0
0
0
0
0
0
0
0
0
0
0
0
0
0
0
0
-1.027243785e-08
0
0
8.450592553e-07
-5.824072623e-07
-2.328104844e-05
7.714331482e-08
3.609347481e-05
-4.095443407e-08
-7.01728329e-05
1.029343812e-07
7.606207376e-05
4.430399462e-07
-7.022585175e-05
-4.891565244e-08
6.113329006e-05
9.080399138e-08
-2.423723431e-05
-1.023571067e-08
1.337023067e-05
0
0
0
0
0
0
0
0
0
0
0
0
0
0
0
0
0
0
0
0
0
0
0
0
0
0
0
0
0
0
0
0
0
0
0
0
0
0
0
0
0
0
0
0
0
0
0
0
0
0
0
0
0
0
0
0
0
0
0
0
0
0
0
0
0
0
0
0
0
0
0
0
0
0
0
0
0
0
0
0
0
0
0
0
0
0
0
0
0
0
0
0
0
0
0
0
0
0
0
0
0
0
0
0
0
0
0
0
0
0
0
0
0
0
0
0
0
0
0
0
0
0
0
0
0
0
0
0
0
0
0
0
0
0
0
0
0
0
0
0
0
0
0
0
0
0
0
0
0
0
0
0
0
0
0
0
0
0
0
0
0
0
0
0
0
0
0
0
0
0
0
0
0
0
0
0
0
0
0
0
0
0
0
0
0
0
0
0
0
0
0
0
0
0
0
0
0
0
0
0
0
0
0
0
0
0
0
0
0
0
0
0
0
0
0
0
0
0
0
0
0
0
0
0
0
0
0
0
0
0
0
0
0
0
0
0
0
0
0
0
0
0
0
0
0
0
0
0
0
0
0
0
0
0
0
0
0
0
0
0
0
0
0
0
0
0
0
0
0
0
0
0
0
0
0
0
0
0
0
0
0
0
0
0
0
0
0
0
0
0
0
0
0
0
0
0
0
0
0
0
0
0
0
0
0
0
0
0
0
0
0
0
0
0
0
0
0
0
0
0
0
0
0
0
0
0
0
0
0
0
0
0
0
0
0
0
0
0
0
0
0
0
0
0
0
0
0
0
0
0
0
0
0
0
0
0
0
0
0
0
0
0
0
0
0
0
0
0
0
0
0
0
0
0
0
0
0
0
0
0
0
0
0
0
0
0
0
0
0
0
0
0
0
0
0
0
0
0
0
0
0
0
0
0
0
0
0
0
0
0
0
0
0
0
0
0
0
0
0
0
0
0
0
0
0
0
0
0
0
0
0
0
0
0
0
0
0
0
0
0
0
0
0
0
0
0
0
0
0
0
0
0
0
0
0
0
0
0
0
0
0
0
0
0
0
0
0
0
0
0
0
0
0
0
0
0
0
0
0
0
0
0
0
0
0
0
0
0
0
0
0
0
0
0
0
0
0
0
0
0
0
0
0
0
0
0
0
0
0
0
0
0
0
0
0
0
0
0
0
0
0
0
0
0
0
0
0
0
0
0
0
0
0
0
0
0
0
0
0
0
0
0
0
0
0
0
0
0
0
0
0
0
0
0
0
0
0
0
0
0
0
0
0
0
0
0
0
0
0
0
0
0
0
0
0
0
0
0
0
0
0
0
0
0
0
0
0
0
0
0
0
0
0
0
0
0
0
0
0
0
0
0
0
0
0
0
0
0
0
0
0
0
0
0
0
0
0
0
0
0
0
0
0
0
0
0
0
0
0
0
0
0
0
0
0
0
0
0
0
0
0
0
0
0
0
0
0
0
0
0
0
0
0
0
0
0
0
0
0
0
0
0
0
0
0
0
0
0
0
0
0
0
0
0
0
0
0
0
0
0
0
0
0
0
0
0
0
0
0
0
0
0
0
0
0
0
0
0
0
0
0
0
0
0
0
0
0
0
0
0
0
0
0
0
0
0
0
0
0
0
0
0
0
0
0
0
0
0
0
0
0
0
0
0
0
0
0
0
0
0
0
0
0
0
0
0
0
0
0
0
0
0
0
0
0
0
0
0
0
0
0
0
0
0
0
0
0
0
0
0
0
0
0
0
0
0
0
0
0
0
0
0
0
0
0
0
0
0
0
0
0
0
0
0
0
0
0
0
0
0
0
0
0
0
0
0
0
0
0
0
0
0
0
0
0
0
0
0
0
0
0
0
0
0
0
0
0
0
0
0
0
0
0
0
0
0
0
0
0
0
0
0
0
0
0
0
0
0
0
0
0
0
0
0
0
0
0
0
0
0
0
0
0
0
0
0
0
0
0
0
0
0
0
0
0
0
0
0
0
0
0
0
0
0
0
0
0
0
0
0
0
0
0
0
0
0
0
0
0
0
0
0
0
0
0
0
0
0
0
0
0
0
0
0
0
0
0
0
0
0
0
0
0
0
0
0
0
0
0
0
0
0
0
0
0
0
0
0
0
0
0
0
0
0
0
0
0
0
0
0
0
0
0
0
0
0
0
0
0
0
0
0
0
0
0
0
0
0
0
0
0
0
0
0
0
0
0
0
0
0
0
0
0
0
0
0
0
0
0
0
0
0
0
0
0
0
0
0
0
0
0
0
0
0
0
0
0
0
0
0
0
0
0
0
0
0
0
0
0
0
0
0
0
0
0
0
0
0
0
0
0
0
0
0
0
0
0
0
0
0
0
0
0
0
0
0
0
0
0
0
0
0
0
0
0
0
0
0
0
0
0
0
0
0
0
0
0
0
0
0
0
0
0
0
0
0
0
0
0
0
0
0
0
0
0
0
0
0
0
0
0
0
0
0
0
0
0
0
0
0
0
0
0
0
0
0
0
0
0
0
0
0
0
0
0
0
0
0
0
0
0
0
0
0
0
0
0
0
0
0
0
0
0
0
0
0
0
0
0
0
0
0
0
0
0
0
0
0
0
0
0
0
0
0
0
0
0
0
0
0
0
0
0
0
0
0
0
0
0
0
0
0
0
0
0
0
0
0
0
0
0
0
0
0
0
0
0
0
0
0
0
0
0
0
0
0
0
0
0
0
0
0
0
0
0
0
0
0
0
0
0
0
0
0
0
0
0
0
0
0
0
0
0
0
0
0
0
0
0
0
0
0
0
0
0
0
0
0
0
0
0
0
0
0
0
0
0
0
0
0
0
0
0
0
0
0
0
0
0
0
0
0
0
0
0
0
0
0
0
0
0
0
0
0
0
0
0
0
0
0
0
0
0
0
0
0
0
0
0
0
0
0
0
0
0
0
0
0
0
0
0
0
0
0
0
0
0
0
0
0
0
0
0
0
0
0
0
0
0
0
0
0
0
0
0
0
0
0
0
0
0
0
0
0
0
0
0
0
0
0
0
0
0
0
0
0
0
0
0
0
0
0
0
0
0
0
0
0
0
0
0
0
0
0
0
0
0
0
0
0
0
0
0
0
0
0
0
0
0
0
0
0
0
0
0
0
0
0
0
0
0
0
0
0
0
0
0
0
0
0
0
0
0
0
0
0
0
0
0
0
0
0
0
0
0
0
0
0
0
-0.00103683442
0.001036870198
9.173715727e-05
-0.0001031828308
0.001039703641
0.0001037788231
-0.0005211115697
-0.0005191880639
0.000113209626
-0.001048628634
-0.0001086687714
-0.001035212782
9.200621458e-05
0.000517706716
0.0005172496996
-9.927293616e-05
0.001042277488
9.977376723e-05
-0.0005213715749
-0.0005214067444
-0.0001014168525
-0.0005219161893
-0.0005216576865
-0.001039942232
9.157554033e-05
0.0005199492214
0.0005198284509
-9.846156163e-05
0.001042329975
9.775350886e-05
-0.0005206673361
-0.0005209545863
-9.892489671e-05
-0.0005203115383
-0.0005215333466
-0.001043594498
9.111313763e-05
0.0005216767052
0.0005217045018
-9.635006624e-05
0.001042913048
9.697771804e-05
-0.001043540699
-0.001044124213
-9.800934556e-05
-0.000523761756
0.0005237661005
4.533267417e-05
0.0002609782446
-2.084418321e-05
2.09413763e-05
-0.0002610754377
-0.0002609304835
0.0005213124961
4.206197186e-05
-9.646511767e-05
0.001043394723
9.633696183e-05
-0.001043266567
-0.001044029277
-9.615397175e-05
-0.0005261973835
0.0005261973835
4.647489988e-05
0.0005261976095
-4.853170928e-05
4.853232924e-05
-0.0005261982294
-0.0002607876622
-2.049760817e-05
0.00105178533
-0.0004774672367
2.06672463e-05
2.868581743e-05
-0.0001819406393
0.002076313492
-0.00104823434
-0.001041475805
9.806495572e-05
9.727233584e-05
-0.001042428443
-9.661438368e-05
-0.001052448264
0.001052008017
8.820407177e-05
9.642642434e-05
-0.001017404262
-9.62687045e-05
0.001048784487
0.0001115902166
-0.001047165078
0.0001216995604
-0.001039942552
-0.0001296679618
-2.496840042e-05
0.0002627294622
2.507763537e-05
-0.0002628386972
0.0005301424527
5.743163722e-05
-0.0005316578733
-5.591621661e-05
0.001039285149
0.0001028288534
-0.0002113827737
0.002073488169
0.0002139074441
-0.002076571232
0.0002138730143
-0.002074604399
-0.0002110664204
-0.002065092981
0.002071265371
0.000171373052
-9.122767972e-05
9.12873727e-05
-0.001035272475
9.126935603e-05
-0.001035670732
-9.135744638e-05
-2.789861726e-05
0.0002604252905
2.771485363e-05
-0.0002602415269
2.476176858e-05
0.0002609281564
-0.0002608859579
-2.480396714e-05
0.001042026234
0.0001006146353
-0.0002083559706
0.002080473702
0.0002092244311
-0.002081455171
-0.002079987434
-0.0002104326233
-0.002077312599
0.002080223037
0.0001739760307
-9.10191889e-05
9.107884775e-05
-0.001040001891
-0.001035710914
-9.116392304e-05
-9.143763181e-05
-0.001038409833
9.150977549e-05
0.0005190139742
0.0005193237152
-4.665412323e-05
0.0002597612986
4.649839733e-05
-0.0005193612152
0.0002597556425
4.663534107e-05
0.0002582602597
-0.0005171408369
-4.640960263e-05
0.0002586548388
-2.411631085e-05
0.0002610804015
2.425468998e-05
-0.0002612187806
2.576978309e-05
0.0002604002355
-0.0002597690389
-2.640097968e-05
0.001042435953
9.898986523e-05
-0.0002015548999
0.002075170378
0.0002044927656
-0.002082128687
-0.002079186142
-0.0002073493873
-0.002086335256
0.002087097105
0.0001759556168
-9.072416476e-05
9.078364585e-05
-0.00104365398
-0.001040545645
-9.100385959e-05
-9.151834992e-05
-0.001042057441
9.134413944e-05
0.0005211259435
0.0005211057076
-2.341372865e-05
0.0002603924714
2.353129287e-05
-0.0002605100356
4.60101067e-05
0.0002599074745
-0.0005200494247
-4.60211554e-05
0.0002601529988
-4.685179249e-05
0.0005212893505
4.704951496e-05
-0.000521487073
4.780510339e-05
0.0005219128389
-4.669117675e-05
-0.0002618000112
-0.0002612267544
-0.002094946792
0.0001764106113
0.001047377978
0.001047877068
-9.046616182e-05
0.0005240870518
9.056269852e-05
-0.001047945345
-0.001044432238
-9.066870503e-05
-4.537923179e-05
-0.0005232813521
0.0005233261794
4.533440446e-05
-2.568434362e-05
0.0002624926008
2.522529613e-05
-0.0002620335533
2.461907551e-05
0.0002602079587
-0.0002604639801
-2.436305419e-05
-0.0002635881066
-2.259539286e-05
0.0002626753331
2.35081664e-05
-4.603119324e-05
0.0005223162336
4.587715247e-05
-0.0005221621928
4.655376501e-05
0.0005219322985
-0.000521912661
-4.657340244e-05
-0.002088103196
0.0001803206356
0.001033959228
0.00105178533
-9.254287111e-05
0.0005255879469
9.254287111e-05
-0.00105178533
0.0005245186619
-0.00104789307
-9.048325993e-05
-4.536682391e-05
-0.0005246998077
0.0005246511109
4.541552067e-05
-2.368283959e-05
0.0002592582632
2.482554483e-05
-0.0002604009685
2.641789905e-05
0.0002595446654
-0.0002602023168
-2.576024771e-05
-0.001055654189
0.001055654189
9.308678471e-05
0.001055654189
-9.692543526e-05
9.692543527e-05
-0.001055654189
-0.0005258300892
-4.853136759e-05
4.681393333e-05
-0.0005191603328
-4.642369484e-05
0.0002590722091
0.0002596978853
-4.737141229e-05
-0.0005180955371
4.720631685e-05
0.0002595370193
0.0002587236132
-0.0005298324272
3.711772582e-05
-3.604318741e-05
0.0005287578888
-0.0005204749866
0.000520875077
4.641384287e-05
0.0002610256251
2.468300141e-05
-0.0002609468579
0.0002619857372
-0.0002622214646
-2.473267297e-05
0.0001056797225
0.00104286307
-0.000104520177
-0.0005230252484
-0.000520997367
5.223377463e-05
-0.0002613142362
-5.12768713e-05
0.0005223430701
-2.485058897e-05
0.0002610696448
2.480656928e-05
0.0002581132757
4.69008487e-05
-0.000517020482
0.0002586416986
0.000517028908
4.661711963e-05
-0.000517089394
-4.655663364e-05
9.185710319e-05
-0.001034993305
-9.179723913e-05
0.001034933441
4.675716427e-05
-4.636882305e-05
0.0002583447301
0.0002582958367
-2.356082685e-05
0.000258100397
2.357370556e-05
-0.0005175042566
-4.712408931e-05
0.0002586151985
0.0002586417352
-0.0005174159385
4.672131731e-05
0.0002588612994
0.000258590486
0.0002599194031
2.508530796e-05
-0.000259234928
0.00026129424
-0.0002609455473
-2.824730994e-05
5.041954999e-05
0.0005217242239
-0.0005218293802
-5.031439369e-05
2.735684129e-05
-2.743814962e-05
0.0002613755484
-2.528518396e-05
0.0002603202728
2.488431428e-05
-2.485274923e-05
0.0002609303167
0.000260607119
2.717501276e-05
0.0005208939047
5.042410986e-05
-0.0005208984646
0.0002597447413
4.628208441e-05
-0.0005196139938
0.0002595972748
0.000260080734
-0.0005198792556
-4.690508814e-05
0.0002600494865
-0.001039283637
-9.166313758e-05
0.000519790525
0.0005197186175
2.400218382e-05
-2.409206019e-05
0.0002601706103
-2.289549517e-05
0.000259628405
2.301183146e-05
-2.347869885e-05
0.0002581781317
0.0002600360446
2.372743774e-05
0.0005211346529
4.769738391e-05
-0.0002605269069
-0.0002605000265
0.0002609658043
-0.0002609098208
-2.417229429e-05
9.770271045e-05
0.001041315973
-9.78703401e-05
-0.0005202204374
-0.0005209279061
4.836293941e-05
-0.0002602283253
-4.79554187e-05
0.0005207866089
-4.784465956e-05
0.0005210715633
4.790774913e-05
-2.56778466e-05
0.0002607928981
-0.0002606605673
0.0005211863876
2.431049986e-05
2.460702076e-05
0.001041369412
9.858201698e-05
-0.0005210734175
-0.0005211753005
0.000260225449
2.479965456e-05
-0.000260406028
0.0002603746787
-0.000260451683
-2.333672429e-05
-0.001041778032
-9.116001298e-05
0.0005208876045
0.0005205320903
2.381105779e-05
-2.352478538e-05
0.0002600884063
-2.566409929e-05
0.0002598501304
2.603941786e-05
-2.286060297e-05
0.0002598725823
0.0002602038738
2.399965541e-05
0.0005221571444
4.659273143e-05
-0.0005221961108
0.0005217801357
-0.0005217643992
-4.686752894e-05
0.0002610786416
2.683233974e-05
-0.0002614930823
0.0002615587771
-0.0002617145968
-2.55285239e-05
-0.0005232565004
-4.537953212e-05
0.0005232568007
2.071618489e-05
0.0002614644205
-0.0002604275859
-2.175301948e-05
2.668672574e-05
-2.635576567e-05
0.000261227817
-2.58412321e-05
0.0002602271254
2.669274826e-05
-2.521158404e-05
0.0002597554435
0.0002628568502
2.632247631e-05
2.243318104e-05
-0.0002653051027
-9.260999768e-05
0.001042442162
9.223620696e-05
-0.0005207557823
-0.0005213125891
0.0005219457608
-0.0005217553891
-4.622156492e-05
-2.258598023e-05
0.0002614550078
0.0005306808616
-4.58705427e-05
-0.0005280560491
2.119442337e-05
2.205130689e-05
0.0002592021232
-0.0002599564862
-2.292847663e-05
-0.0005246092547
-4.527332892e-05
0.0005245157597
3.74869167e-05
0.0005166999198
-0.000517015557
-3.717127957e-05
1.965088304e-05
-1.928846486e-05
0.0002588397051
-4.745540208e-05
0.0005309767203
2.196328735e-05
2.519625602e-05
-2.50013555e-05
0.0002587047888
2.045593015e-05
0.0002584532161
0.0005169303946
3.815757597e-05
-0.0005176010539
-0.002059488991
0.002071352722
0.0001669435238
9.11854932e-05
-0.001036750557
8.759708701e-05
-0.001051786519
-8.904238575e-05
-9.058813952e-05
-0.001041597744
0.001041511681
9.067420287e-05
-4.646018078e-05
4.638831765e-05
-0.0005204031234
4.367529779e-05
-0.0005313283834
-4.217934151e-05
-5.147157405e-05
0.0002600835386
9.468569679e-06
-0.0002180805343
0.0002725592337
3.166602764e-05
-0.0002763062756
-2.791898581e-05
-0.001035081936
0.001035162123
9.177691627e-05
4.664609993e-05
-0.0005174449188
4.676391964e-05
-0.000517504301
-4.676387523e-05
-9.448682867e-05
0.0002636346016
4.552210013e-05
-0.000214669873
0.001042656474
9.812708858e-05
-0.0001855910309
0.002055076412
0.0001911853041
-0.002086154848
-0.00208407452
-0.0001994629632
-9.363208302e-05
0.0002622535313
4.369889623e-05
-0.0002123203445
-4.518535983e-05
0.0005220721734
4.555075721e-05
-0.0002612149315
-0.0002612226393
2.287065502e-05
0.0002609784684
-0.0002609286552
-2.292046825e-05
-3.991065875e-05
0.0005166878147
4.015323865e-05
-9.854041383e-05
0.001040321182
9.600998493e-05
-0.001037790753
0.00104180496
-9.30719877e-05
-0.000520501439
-0.0005208415311
4.673084409e-05
-0.0005180624615
-0.0005191886381
-4.643187552e-05
-0.001035746137
-9.124310609e-05
0.001036401104
2.04352484e-05
-0.0002578167007
-2.080044987e-05
0.0002581819022
-0.0002733448831
1.335475484e-05
-1.697074275e-05
0.000276960871
-0.0002642791858
-2.036503675e-05
0.0002643953871
2.024883542e-05
6.077011275e-05
-5.631466867e-05
0.0005256870086
-0.0002618018122
0.0005234085834
5.335646559e-05
0.001041895663
0.000103764121
-0.0005203205306
-0.000519659531
0.0002614281264
2.308432369e-05
-0.0002616417951
2.617788982e-05
0.0002615445259
-0.0002624134417
-2.530897405e-05
9.760972568e-05
0.001042216511
-0.001042529583
-9.729665329e-05
4.740487797e-05
-4.721799512e-05
0.0005215932529
-4.693339673e-05
0.0005220375839
4.705295722e-05
-4.750715742e-05
0.0005215753368
0.0005213137563
4.738047219e-05
0.001043303373
9.768044789e-05
-0.001043374095
2.390970204e-05
0.0002618662962
-0.0002629096775
-2.286632072e-05
-0.0002585586812
-2.567110838e-05
0.0002587029562
2.552683338e-05
-3.90364012e-05
0.0005193948411
3.921178629e-05
-0.0002595180716
-0.0002600521546
0.0005099253009
4.778542128e-05
-0.0005099363735
-4.777434863e-05
-0.001089458795
7.071106888e-05
-1.972104722e-05
-3.303214306e-05
0.0005315374501
0.0005399634663
-0.0005251558849
0.0005356238873
2.664972338e-05
0.0005289374891
5.8249073e-05
-0.0005297549249
0.00107244924
0.0001375481493
-0.0005380053566
-0.0005167223122
-6.794445142e-05
-8.732526932e-05
5.873451802e-05
-5.959237064e-05
0.0005107831535
0.0003278485436
-0.0003793201176
5.30654072e-05
0.0005266830598
-5.19918568e-05
-0.000263675435
-0.0002640811753
3.024713037e-05
3.130877724e-05
0.000266292636
2.854518744e-05
-2.669302985e-05
0.0002707070762
0.0002660238681
2.430680093e-05
0.000524821889
5.148016678e-05
-0.0002620042976
-0.0002612323511
2.418655272e-05
0.0002605717054
-0.0002606016969
-2.415656125e-05
0.0002610022137
2.429070534e-05
-0.0002611063664
2.374711334e-05
0.0002614231586
-0.0002612910389
-2.387923301e-05
0.000262231778
2.414381526e-05
-0.0002626284799
0.000260211378
-2.626587558e-05
2.413196659e-05
-0.000258077469
0.0002681499958
-0.0003436200028
-1.901682167e-05
4.732865022e-05
0.000520874552
-0.0005208495841
-4.735361809e-05
2.888718692e-05
-2.472928872e-05
0.0002639920976
-2.608655299e-05
0.0002608062106
2.549172041e-05
2.581286192e-05
-4.479037126e-05
0.0002577683454
-0.0002387908361
0.0002619514777
3.057031077e-05
0.0005211839313
4.737588856e-05
-0.0002605478842
-0.0002606832854
0.0002609207792
2.236501704e-05
-0.0002611628709
-2.212292533e-05
4.551978291e-05
-0.0005223573372
-4.545499745e-05
0.0005222925517
-4.543912559e-05
-0.0005232134373
0.0005232540094
4.53985535e-05
-4.429091123e-05
0.0005219671178
4.445262835e-05
-0.0005221288349
0.0005219777517
-4.4805088e-05
-0.0002612763892
-0.0002610816343
-0.0003422629147
-1.863961441e-05
0.0002672704461
2.027696105e-05
0.0002609229025
-0.0002616573647
-1.954249889e-05
4.493172876e-05
-0.0005241470815
-4.490361588e-05
0.0005241189686
-4.491181337e-05
-0.0005245942029
4.517620695e-05
0.0002621500611
0.0002621797482
4.523737379e-05
-0.0005231367672
-4.505454148e-05
0.0005229539349
-0.0005239736267
0.000523896295
4.500906037e-05
0.0002597855651
2.114236629e-05
-0.0002606509703
-0.0002690952811
1.838486464e-05
-9.313147002e-05
0.0003438418865
-0.0002565954595
2.07777877e-05
0.0002562529202
-4.652065851e-05
-0.0005189498621
4.67577795e-05
0.0002589629565
0.0002597497847
-2.298835737e-05
2.381165366e-05
-0.0002574187558
2.325761927e-05
-0.0002652888906
-2.706400975e-05
-2.599706274e-05
4.308237056e-05
-0.0002601354015
0.0002430500937
-0.0002584881088
-2.231694935e-05
-0.0005195202106
-4.706282928e-05
0.0002603138557
0.0002597485256
-4.519080652e-05
-0.000529981823
0.0005303514076
4.482122195e-05
-2.256774376e-05
2.283871207e-05
-0.0002645501541
7.751333083e-06
-0.0002652305619
-1.586565427e-05
0.0002649199333
2.185451346e-05
-0.0002635168275
0.0002643028946
-0.0002641088789
-2.276175943e-05
-0.0005258979826
-4.554912903e-05
0.0005262563052
-2.214506576e-05
0.0002660829236
0.0002642967103
1.900808769e-05
2.539984634e-05
0.0002617332551
-0.0002611794555
-2.595364593e-05
0.0002610620283
2.547125701e-05