/*--------------------------------*- C++ -*----------------------------------*\
| =========                 |                                                 |
| \\      /  F ield         | OpenFOAM: The Open Source CFD Toolbox           |
|  \\    /   O peration     | Version:  v1912                                 |
|   \\  /    A nd           | Website:  www.openfoam.com                      |
|    \\/     M anipulation  |                                                 |
\*---------------------------------------------------------------------------*/
FoamFile
{
    version     2.0;
    format      ascii;
    class       volScalarField;
    location    "0.62";
    object      p;
}
// * * * * * * * * * * * * * * * * * * * * * * * * * * * * * * * * * * * * * //

dimensions      [0 2 -2 0 0 0 0];


internalField   nonuniform List<scalar> 
12556
(
1029.938295
1028.78475
1025.891914
1019.831766
1010.879535
991.8006036
960.372744
910.0682113
834.6446379
726.6451139
580.9390814
397.5149628
186.7655157
-32.93769476
-241.7816571
-422.9512769
-568.7963884
-679.940812
-760.7074109
-816.5422456
-862.7126949
-883.1811425
-894.9423741
-900.3368165
1030.67047
1029.972333
1027.979006
1023.607057
1014.654935
998.5263454
970.7500273
929.9132089
861.9896953
761.5637017
620.9932177
437.0891522
220.7403458
-8.565500411
-228.9419919
-420.1189458
-571.4509616
-684.7022338
-774.0943727
-826.1169158
-871.1584049
-888.8493539
-899.122561
-903.7923674
1032.355625
1032.666022
1032.796525
1031.850941
1026.089805
1016.321259
997.3653975
962.3303262
905.4381556
814.1585542
670.4644909
465.7616941
219.1180849
-38.37377027
-273.0532132
-469.8214858
-620.7340315
-726.2402208
-810.8156485
-853.0516666
-890.518411
-902.3671917
-909.2731196
-912.2618391
1034.192096
1035.928316
1039.150923
1043.063723
1042.400238
1042.06675
1036.66558
1014.816224
977.8795136
898.0590848
748.3947945
513.9475346
196.5161402
-127.4744324
-391.087376
-578.707652
-711.990302
-801.5811456
-867.7191362
-893.7378173
-917.9161677
-922.0748747
-923.9065629
-924.4630299
1034.725287
1038.092789
1044.850443
1054.651756
1059.981986
1072.156229
1084.09245
1083.672062
1074.181828
1022.328587
888.1346681
610.0187425
167.1085703
-298.6515311
-612.351006
-778.7844298
-861.2482669
-907.5874875
-941.395737
-944.9693733
-949.7243241
-944.2733463
-939.947054
-937.6277687
1032.337695
1037.331072
1047.54907
1063.35216
1076.216887
1101.568672
1133.393225
1158.846728
1191.563331
1205.07177
1150.066017
881.696902
158.6853236
-643.432715
-999.435351
-1078.60046
-1066.132617
-1041.512426
-1026.453127
-1000.566148
-981.4587018
-965.2995365
-954.2461618
-948.8927648
1025.486145
1031.887882
1045.06134
1066.088907
1086.794093
1124.231302
1174.893764
1227.860156
1311.71302
1422.811502
1566.466413
1616.363704
285.3636398
-1535.61404
-1624.497178
-1464.405321
-1305.412902
-1187.362672
-1111.351334
-1052.487748
-1008.421513
-981.0362421
-963.6607245
-955.4959021
1012.840381
1020.237807
1035.48708
1060.113012
1087.841247
1134.068565
1198.458436
1275.025643
1401.390893
1597.268724
1936.8957
2595.327645
-3648.147163
-2431.989166
-1858.462431
-1524.545227
-1316.408389
-1178.322495
-1091.479612
-1023.262465
-987.2485859
-965.1407762
-954.6852593
993.4100678
1001.248145
1017.394709
1043.548972
1076.307901
1126.729842
1197.411804
1287.445125
1432.630541
1646.170837
1964.199188
2384.87994
-4969.171797
-2918.831192
-2095.386348
-1655.674729
-1392.202967
-1211.557204
-1107.041591
-1021.637106
-980.7359261
-956.0400884
-944.2815976
966.6879374
974.3580014
990.1086878
1015.516634
1050.973864
1100.337772
1169.353207
1260.345797
1396.729309
1581.137475
1804.831914
2018.543116
-4343.086749
-2795.939392
-2065.076755
-1643.382137
-1391.069569
-1200.913373
-1094.103472
-1000.8437
-959.7530995
-934.9274293
-923.0492481
932.7246319
939.6688637
953.8406777
976.2966683
1012.366754
1056.18645
1116.641583
1199.699804
1314.871721
1457.133098
1608.254098
1743.13585
-3147.58652
-2292.219971
-1821.708796
-1521.699331
-1318.215185
-1147.021242
-1052.17227
-961.2969951
-924.3782837
-901.7897567
-890.9051348
892.084474
897.8490401
909.6083495
927.2803584
962.4336346
997.101632
1044.31605
1113.767657
1202.007293
1302.561959
1401.085082
1510.037619
-1992.492657
-1675.338631
-1476.358302
-1319.649724
-1191.04317
-1059.091969
-986.1494027
-905.7522339
-876.500671
-857.9141276
-848.8816923
845.7863603
850.0805624
858.9827028
871.5591957
901.985737
926.743782
958.1273511
1011.896193
1071.42823
1130.921501
1174.960916
1242.612822
-685.5979996
-997.9737302
-1111.507403
-1125.906608
-1094.027649
-1038.166662
-951.5725198
-903.5414612
-839.7122659
-819.2693527
-805.5442628
-798.8673434
795.0629258
797.7962847
803.6523038
811.4810791
835.9563839
850.6276022
866.6976683
902.8905247
935.1831632
955.7933846
942.6995323
904.5741854
295.0072636
-395.8617105
-691.3617235
-831.8013598
-884.3446093
-881.1228925
-838.1650353
-813.1416603
-768.2764348
-756.074781
-747.3855459
-743.2131859
741.303962
742.4226032
744.9245607
747.8302214
766.7800815
770.8823098
772.694637
789.420434
796.0821798
786.498923
734.3279986
584.9060227
293.3713182
-139.1078967
-435.9977803
-615.2879672
-707.5905687
-737.6470313
-727.5368922
-722.5869617
-694.7747274
-690.0541134
-686.1554031
-684.3342286
685.8840187
685.5369783
684.9019335
683.2841646
697.0328006
692.3557427
682.8833045
680.8221801
665.6766521
633.7513984
564.3097934
438.5414744
225.8601395
-60.72940597
-300.8249327
-469.0744794
-567.9663916
-614.4103151
-626.8343287
-636.5063989
-622.5983755
-624.0466873
-624.2570598
-624.4281413
630.1193906
628.5656037
625.3470765
620.0336807
628.9251581
617.3882167
599.394677
584.2744699
549.4823376
500.912006
425.849728
318.1835832
148.5910857
-48.77161074
-231.8841736
-370.6472041
-459.259496
-512.6575114
-538.3300167
-557.4167808
-554.1305277
-560.2386853
-563.6468133
-565.3170015
575.1685026
572.6777221
567.4550172
559.3321306
564.1481637
547.6438266
523.8576434
501.7516574
454.6561585
394.7839082
317.8300673
224.5720763
91.18017875
-54.74870522
-189.8326762
-296.4261807
-373.3729346
-428.7355771
-461.4989281
-486.1678058
-490.6035937
-499.947683
-505.6893701
-508.4152763
521.9374427
518.7646624
512.0833218
501.9839152
503.6855479
484.0169111
456.9706829
431.4035743
382.9839618
320.8036233
244.3776811
165.0780782
56.56554463
-53.50623675
-153.5867386
-238.8551251
-307.5798027
-360.6030312
-395.9562539
-423.2418936
-432.6368172
-443.9743824
-451.2215332
-454.6851703
471.0925194
467.4789772
459.8540667
448.5276883
448.0156376
426.680309
398.1022778
371.6491802
324.7470532
267.4573094
199.6224163
130.7764064
43.86479324
-43.18235808
-124.4935876
-196.2656615
-256.5777066
-305.4146738
-340.5936194
-368.2278186
-380.4376239
-392.7494805
-400.8057433
-404.6559584
423.0875336
419.2460813
411.1354616
399.2183507
397.2448218
375.3993372
346.7373545
320.8135601
276.8259502
225.2140098
166.296245
106.4760965
35.54621004
-35.76380571
-103.07963
-163.7533657
-216.2330725
-260.1335165
-293.6952687
-320.3050888
-333.8083664
-346.3209716
-354.6404107
-358.6241654
378.1904713
374.2923422
366.0682119
354.0793913
351.1939453
329.7082101
302.0075939
277.3719987
237.0012415
191.0455877
139.6515754
88.35671598
28.9770364
-30.33198409
-86.67423475
-138.198733
-183.6877563
-222.668705
-253.6896673
-278.5845841
-292.3220134
-304.4980195
-312.6943736
-316.6266317
336.5071329
332.6818307
324.6222804
312.9504138
309.5952854
289.0530936
263.079209
240.0503676
203.5451898
162.8822144
118.0786886
73.93857042
23.75778709
-26.1153665
-73.66807064
-117.5943045
-156.9538351
-191.2894149
-219.379039
-242.1948916
-255.4703198
-266.9661388
-274.7837123
-278.5391905
298.0150952
294.3570278
286.6595897
275.575669
272.0851686
252.8625461
228.9182874
207.811491
175.1455346
139.3164279
100.3035227
62.19740606
19.55556292
-22.68710194
-63.05532901
-100.6094118
-134.6247079
-164.695081
-189.7751741
-210.360564
-222.7405368
-233.3541214
-240.6323712
-244.1313901
262.6012074
259.1763835
251.9760851
241.6582548
238.2811817
220.600128
198.8381424
179.7779519
150.7937299
119.3439277
85.42280692
52.4764755
16.13184743
-19.80004078
-54.18822892
-86.34144937
-115.6968595
-141.9067895
-164.0543633
-182.4032929
-193.6404377
-203.268915
-209.9162848
-213.1128834
230.0911052
226.9425141
220.32608
210.8827232
207.7936938
191.7621353
172.2215326
155.231616
129.705852
102.2171087
72.79619294
44.3212871
13.3140582
-17.30184501
-46.63244504
-74.15847189
-99.43783373
-122.1780204
-141.5498513
-157.7383501
-167.7101943
-176.3181124
-182.292795
-185.1655557
200.2666312
197.4193152
191.4365947
182.9249363
180.2495917
165.8999705
148.5498975
133.5894244
111.2746614
87.37403492
61.94456163
37.40004283
10.97426237
-15.09429859
-40.08738516
-63.6077895
-85.30459847
-104.9338288
-121.7207782
-135.8681997
-144.5275962
-152.1228307
-157.4167097
-159.9609741
172.8808379
170.3467509
165.0207875
157.4623441
155.2888765
142.6056022
127.3740698
114.367805
95.01901529
74.37932524
52.51439888
31.45958851
9.014855564
-13.11063295
-34.33607378
-54.35333674
-72.88183274
-89.71955036
-104.1187294
-116.3622621
-123.7093651
-130.3254481
-134.9514922
-137.1731011
147.6724142
145.4547127
140.7903966
134.1828026
132.5756358
121.5150521
108.3115344
97.16226734
80.55308322
62.88983604
44.23349754
26.30512554
7.360197174
-11.30364428
-29.21750053
-46.14007439
-61.84622259
-76.17117093
-88.37212243
-98.85085452
-104.9104501
-110.5945996
-114.5777361
-116.4884685
124.3749245
122.4709981
118.4615499
112.7878058
111.7943093
102.2985096
91.06219664
81.62435996
67.55975645
52.6295499
36.88316738
21.78213797
5.950272889
-9.638081982
-24.60729166
-38.76754156
-51.93736154
-63.98301089
-74.16929374
-83.01206859
-87.82015687
-92.62473791
-95.99570175
-97.61032239
102.7157891
101.120706
97.75338934
92.98519008
92.65790352
84.65236896
75.32346587
67.47807597
55.77828491
43.37112275
30.28615262
17.76643208
4.736704083
-8.086546782
-20.40681209
-32.07537369
-42.94522175
-52.89398302
-61.23838175
-68.56308079
-72.1529491
-76.13201826
-78.9227851
-80.25623712
82.4507261
81.15611121
78.41556844
74.52457625
74.87920891
68.30051439
60.749575
54.49412564
44.98697326
34.92340787
24.2951777
14.15606158
3.679808583
-6.62680924
-16.53546781
-25.93212536
-34.70123007
-42.73964409
-49.31446633
-55.24822539
-57.66645993
-60.86843981
-63.10997378
-64.17813745
63.2396879
62.24683347
60.12596564
57.07197858
58.25806673
52.99271244
47.04207708
42.4325428
34.98186204
27.11725189
18.78270682
10.86505369
2.746386885
-5.239707135
-12.92406543
-20.22309342
-27.05154681
-33.34428276
-38.20463078
-42.83849563
-44.0698677
-46.5512959
-48.26643953
-49.07623699
45.12586708
44.40743954
42.88914108
40.71400215
42.2886495
38.49387988
34.11325919
31.06881338
25.57709087
19.80092979
13.63693753
7.820082318
1.90849057
-3.908508554
-9.512366326
-14.84641458
-19.85264261
-24.48761773
-27.74953693
-31.1062768
-31.38497998
-33.13403217
-34.3476231
-34.92665241
26.79298052
26.433255
25.53516589
24.23034534
27.06389594
24.59948147
21.72099555
20.2169149
16.60260354
12.83141516
8.755664001
4.95837448
1.142274259
-2.618580786
-6.246959216
-9.710787358
-12.97781588
-16.03017314
-17.75291296
-19.94583121
-18.71086494
-19.75623504
-20.46910576
-20.75457542
12.65807249
12.36031566
11.91892142
11.27302384
12.20582636
10.96922673
9.58628193
9.707779422
7.8950237
6.055436481
4.041108745
2.236994124
0.428121254
-1.357384614
-3.080446425
-4.734218105
-6.309792898
-7.817306939
-7.977304659
-8.979608309
-8.699444273
-9.170001167
-9.500165141
-9.736182866
2440.23944
-5377.943774
-3916.817586
2057.762594
-4747.714434
-5385.662475
1773.94464
-3428.808941
-4598.344449
1539.835407
-2171.078983
-3261.96615
1263.672193
-729.0317933
-779.9611418
-1107.136975
-2025.885695
932.7438388
374.5889468
-681.3888537
237.8802049
-402.238274
-991.3849921
2517.469745
581.764694
-3507.788318
-1325.872668
-7663.726576
-5438.431902
-4947.268819
-3169.227681
-2644.986798
1850.895367
2033.535216
2328.962334
-6818.075838
-7469.263669
-4471.005986
-3162.52372
-3240.535572
1658.378197
1760.906085
1996.30966
1907.183584
1948.422777
2093.563639
-4798.937823
-5799.913171
-3300.034081
-2620.532894
-3060.822914
1454.321675
1526.496483
1730.519101
1655.071285
1696.070791
1795.222971
-3054.317361
-3782.797483
1232.853762
1263.594505
1496.712002
1405.881442
1465.654393
1579.679756
-1564.796943
-1581.426738
-2198.176826
998.478352
948.3305057
1226.005025
1095.503
1107.88428
1304.191982
659.8385224
417.2130078
391.5275731
3071.777331
2598.975532
3399.935308
3154.018375
-7505.1668
-7683.733214
-5096.295782
-7307.40458
-7320.906899
2114.241804
2270.605187
2184.828515
2278.205043
2118.271607
2550.475781
2304.176209
-5863.201035
-6769.587743
-5068.74338
-6631.246442
-5768.369926
-7288.144018
-6679.370883
-5125.872807
1810.531717
1929.145034
1872.274278
1939.377259
1812.13538
2107.319662
1949.953962
-3892.627556
-4731.225613
-3935.500849
-4619.741496
-3821.189334
-5706.568813
-4745.354587
-4105.294147
1587.234286
1689.836023
1626.516837
1693.772945
1592.045239
1803.938253
1699.803689
-2289.691758
-2955.179871
1314.846236
1457.50979
1388.047569
-1510.225257
1463.262358
1320.634256
1584.342336
1471.490735
-1552.983992
-981.7610634
-1499.712168
-1511.677908
935.9974431
1090.986816
1073.863696
6.777461645
1096.07686
895.676656
1309.98137
1111.980079
-61.79932283
1984.874754
2374.460757
2460.944485
2629.175273
3080.054951
3242.387727
-10587.47347
-7281.280345
2231.071899
2297.188644
2542.218017
-3657.605013
-2129.836656
-1909.794459
-2447.853807
-2000.307794
-1978.808721
-2304.887004
-120.2428503
-454.9398523
-835.9508604
2588.499639
3010.980951
2594.650722
2803.970985
4236.739696
4058.711753
-5112.616387
-7219.42639
-4890.617382
-2358.627558
-2714.488611
-2623.834855
-2913.269323
-2266.44501
-3715.717757
-3009.616581
-2779.602465
-1084.086106
-194.3687858
-376.5625543
793.9456709
2188.6084
3304.638878
-4865.77212
-1834.280443
384.8828788
-10657.53464
-7219.142711
-10129.8964
-6869.243611
-9964.973729
-6868.663594
-7117.948776
-7162.748053
-5267.345589
-5335.533904
-3208.38251
-3562.603812
-3358.23501
-3552.908166
-3179.654829
-4036.035063
-3610.614004
-3462.64351
1519.747262
1485.992368
1437.581102
-1587.739331
-1880.410365
-1907.773765
1211.430412
1178.121451
1099.929486
1268.404989
1201.905862
1223.502716
3216.031768
2847.951005
2838.943494
2850.325257
3225.434734
2584.55722
2808.033522
2771.696435
3436.142444
3971.486205
4101.556722
3295.220657
3888.307569
3383.576505
3957.91795
3300.511619
-7670.291278
-7690.176729
2201.510022
2303.654616
2190.179023
2427.644226
2423.500172
2563.707112
2313.898817
2407.513057
2393.20473
-6282.860018
-6342.848564
-6235.631506
-5602.532794
-5841.148625
-5238.318838
-5515.892024
-6178.3736
-7019.69403
-6153.506191
-6266.543151
-5912.612856
-6101.471783
-6976.591833
1876.362771
1867.221836
2033.443408
2021.981941
-4239.276294
-4087.116342
-4299.057891
1647.30695
1640.273054
1751.852426
1745.041511
-3120.049005
-2747.338153
-2664.023239
-2763.607128
-3139.875883
1381.390111
1348.090079
1289.054622
1420.601209
1366.979143
1392.085816
-1135.036301
1396.665038
1385.465539
1531.267339
1524.3259
-1911.033764
-1143.125737
-1211.739606
-1492.27149
1071.768851
985.0010031
861.4917559
889.9412954
471.7421341
218.6741448
1229.614624
-182.140686
183.6898374
-101.5624796
1218.145047
-291.9168983
-135.9275009
155.9006466
-9561.91602
-2181.093549
-2353.990651
782.2596902
712.014054
911.954599
800.3252642
822.4903467
921.7543604
301.6376855
-77.41399531
-282.8720175
4873.900776
-2385.500073
-2580.284911
-861.6601446
-1120.794345
-1093.457567
-99.45119422
-349.8152391
-53.45997016
1148.660224
2774.799262
4117.928251
-6524.003277
-2564.770929
-9.381785053
-6959.039544
-8053.429595
-7861.102411
-7344.262219
-4995.067233
-5192.523517
-4971.104463
-6081.904534
-5880.757394
-5604.354514
1742.02894
1716.652742
1674.650939
1775.452132
1731.017339
1749.165913
1546.903653
1501.488352
1526.914903
1155.416187
1142.816732
1097.353632
861.640657
706.3282328
453.9584098
-7582.970298
-8176.420256
-8125.369304
-7476.808313
-6255.780971
-6061.970079
-6287.160963
-6283.216325
-7453.619128
-6048.082742
-6346.797256
-6153.690546
-6597.891656
1858.271179
1838.270334
1790.725981
1820.322302
1842.23764
1834.711883
-4904.440998
-4679.728057
-4540.760323
-4262.34969
-4007.727794
-4313.801876
-5260.552963
-4835.989005
-5140.299479
-4417.776701
-4732.058772
-5195.584027
1636.210568
1604.963235
1561.69319
1660.838006
1619.122429
1643.185583
1675.135854
1690.311126
1705.544968
1606.202914
1632.839315
1614.126531
1781.582763
1788.562882
1812.572515
1710.265024
1726.449399
1718.35337
-2569.364386
-2697.123576
-2358.839447
-1316.591464
-1345.662549
1437.583861
1342.155765
1560.690269
1570.227501
1598.994961
1514.85749
1494.670037
-1693.463129
678.8475868
956.2927373
909.9342317
1080.873176
1025.773479
1026.724783
191.825289
393.5183473
185.2188562
1032.940979
403.2229596
707.3700576
510.0783583
480.2791732
1272.011759
1158.962085
-9709.954285
-9232.788169
-9261.80362
-3824.820542
-3895.149936
-1979.516055
-2129.306065
-2119.856087
2701.448176
2670.259869
4352.819039
4901.168027
4718.64095
4780.329795
4312.762632
-2784.677441
-2584.502006
-2557.819361
-2579.015193
-2796.645582
-1073.930822
-894.6735836
-928.5249088
-894.6141742
-1068.988167
-669.1728048
-845.0216448
-424.1536557
-466.340344
-622.5943311
-272.8433261
-416.3722264
-327.9506505
-10464.38863
-8907.188168
-8459.100675
-9032.695247
-8987.347096
-8260.286443
-7457.264217
-9017.279598
-7527.37106
-7395.194797
-6999.008895
-7299.948086
-7791.431616
-7592.678839
-5493.573891
-5270.456132
-5062.949466
-5331.330577
-5555.117514
-5040.91023
-5263.830629
-5640.955952
-5537.463627
-5818.937926
-5581.783083
-3353.739366
-3429.80862
-3400.868802
-3323.162878
-3480.636123
-3873.551423
-3760.743457
-3930.632845
-3533.158667
-3705.175392
-3814.078702
-1775.468418
-1770.394979
-1923.911201
1196.965579
1158.290722
1167.053792
1256.160588
1244.223343
1210.036831
3039.336551
2986.20653
2989.509951
2981.422447
2851.113148
3185.97
3028.964139
3043.397883
2670.614356
2674.959054
2592.305481
2811.661193
2706.135632
2703.003632
3533.645661
3419.78563
3244.368005
3661.452698
3560.09473
-8366.843088
-8195.103117
-7606.095778
-8384.894531
-8620.923158
-8333.738769
-8812.061468
-9051.578441
-8710.710172
-8742.309187
-7719.836912
-8494.544204
-8434.561243
2252.200827
2248.096214
2216.87302
2296.830477
2259.981142
2265.930533
2169.964291
2142.200326
2207.80689
2179.163231
2477.099088
2481.869109
2426.967341
2568.337549
2502.011178
2496.25627
2353.853791
2350.172914
2309.412547
2410.265177
2364.594304
2368.974592
-6584.357155
-6409.925907
-6108.141889
-6533.538208
-6847.531347
-6639.307429
1911.199454
1885.315638
1950.007047
1919.214863
1844.192887
1823.305041
1875.959626
1851.035871
2085.992356
2050.571837
2132.217527
2097.856271
1992.34533
1959.607368
2038.850047
2004.028151
-4214.99908
-4419.134481
-3992.942493
-4161.566105
-4238.21216
-4732.406946
-4964.182917
-4475.967149
-4665.262035
1658.7564
1683.304254
1668.474217
1689.268836
1661.690364
1709.029464
1696.767267
1655.007164
1620.387903
1636.633991
1651.674021
1761.078922
1780.704033
1773.528194
1783.96716
1763.598159
1815.436241
1791.23749
1727.960017
1712.937548
1754.380549
1733.801333
1724.805283
1732.489128
1753.411288
-2792.239183
-2930.61267
-2989.93468
-2784.586885
-3044.738425
-2979.046843
-1078.652442
-1298.190319
-1305.283607
-1082.038223
1428.743715
1353.692239
1542.079774
1561.956081
1552.977084
1502.552707
1523.209317
1536.971444
-1787.900738
998.4037054
1005.616148
941.8141195
545.1001185
480.2745455
1006.011915
273.8197828
393.7432509
324.734109
1258.68308
-319.4317806
58.68812712
231.0502149
22.57737123
1165.601583
-3311.844393
-2395.319015
-1648.090739
-2328.722962
-2385.306128
-1136.674838
-1241.280951
-1732.976785
-2385.739164
-877.8307738
-847.2620953
-683.1563326
-2177.877302
-1621.24412
-1608.493435
927.3253604
3112.222731
4437.129126
-8100.157424
-3544.27142
-429.1534235
-2358.741983
-2112.222652
-4634.12973
-7482.899841
-8539.218246
-8649.988421
2009.468334
1982.392737
1925.234938
2062.966332
2002.18963
2030.476552
-1565.200675
-1717.801552
-1707.762527
-2260.36838
-1966.77743
-1928.076586
1288.518933
1256.418726
1268.571507
-8647.738985
-8534.886226
-7736.371234
1906.919321
1854.803337
1875.145429
1911.67656
1917.944112
1947.710515
1957.628123
1989.601765
1979.659078
1340.681095
1328.682918
1299.545247
-1518.786035
-1470.600366
-1464.241346
1325.720955
1336.402276
1330.266204
-1630.131472
-1635.257157
-1528.498151
-1352.147821
-1360.975388
-1515.228323
1077.764383
1299.122257
1306.243539
1315.801971
1124.595173
-10460.53196
-3698.354209
-1986.191017
-2065.578227
-2062.898437
-2339.686754
-2176.747075
-2154.64693
2763.929077
-5948.738669
-5446.153728
-6651.565841
-2508.491377
-2554.02431
-2385.629643
-658.8338051
-672.5167814
-495.3201408
-503.2003831
-603.1329248
-3260.234088
-2890.511761
-6241.3376
-10376.8143
-9726.15841
-9533.978474
-9854.780551
-9992.013989
-3258.046545
-3291.441494
-3238.471228
-3574.576589
-3584.357203
-3562.795457
-3110.023857
-3266.480095
-3333.487595
-3995.82824
-3936.184246
-3998.798025
-1907.6255
-1889.506795
-1921.016421
3150.929703
3240.278273
2892.896046
2893.936783
2895.596971
2851.983956
2605.622578
2615.904054
2590.743465
2810.609182
2772.625408
2769.262323
3654.381805
3484.204942
3622.555931
3858.802184
3886.13743
4024.12673
3309.253441
3384.550878
3379.16054
2230.217161
2226.532179
2222.852751
2301.182935
2289.276721
2292.074402
2164.273457
2156.634491
2215.980252
2205.732802
2441.822749
2443.224295
2425.654197
2566.916339
2543.607093
2541.206004
2324.577658
2324.677558
2312.601077
2409.430715
2395.036001
2394.606253
1883.175065
1909.234272
1901.917218
1843.194564
1849.605942
1874.304933
2046.365343
2080.825264
2064.98842
2070.424027
2058.099249
2147.986751
2136.179691
1972.553551
2045.898401
2033.814413
1990.879173
2000.865946
2034.913951
-4408.283347
-4491.318514
-4064.654484
-4142.502017
-4160.495165
-4565.131476
-4562.384029
-4476.664602
-4613.09616
-4429.642917
1368.172345
1339.237107
1350.458827
1422.588821
1406.348399
1378.588782
1400.986818
1413.669274
1408.054996
1374.689296
1378.434729
1389.168323
-1913.405994
908.5515738
929.6430403
887.5844337
562.4123341
914.4948574
361.9845194
448.1250232
540.9874698
1236.048036
1243.70982
1239.240478
-241.5823043
-95.46173924
-80.02412037
-94.74756429
1204.327853
1211.425376
1225.388132
-10.40823059
-93.32211441
-225.3066568
-2208.540604
-2260.330843
-2375.719253
-2325.877775
-2308.701311
5122.883735
4972.008341
5178.385677
-2450.822218
-2473.309546
-2377.180064
-2592.793379
-2534.236097
-2528.607801
-4521.124364
-3902.372613
-7642.134056
-7213.938526
-7252.991625
-7126.070141
-7173.326594
-7985.337919
-7793.644725
-7851.303696
-7683.481562
-7738.921216
-7922.693968
-6019.215889
-5929.38784
-5995.932988
-5782.46798
-5860.185768
-5953.951905
-8172.162709
-7977.026551
-7992.802267
-7909.00134
-7953.644749
-8171.293238
-6278.105895
-6189.390357
-6253.066935
-6063.155523
-6127.044492
-6218.884457
-7024.896815
-7075.948983
-6892.08651
-6957.51281
1695.924439
1690.777181
1684.737169
1613.808906
1609.859583
1601.876882
1625.906193
1618.407972
1623.226353
-1464.494056
-1521.592711
-1315.887582
-1404.314823
1456.153317
1450.389808
1471.536246
1462.625618
1346.615558
1336.560274
1342.069147
1340.252414
1579.831958
1576.709186
1567.879255
1594.159336
1585.775281
1590.087172
1488.215109
1481.981829
1506.956838
1488.326066
1496.777786
-1695.689057
-1691.140386
-1687.743503
-1526.476443
919.1564266
917.6060922
944.2222148
1050.882567
1046.707837
1023.674342
1057.457716
363.0452232
356.3567189
895.9803785
801.9552981
620.0110093
1273.839532
1292.115392
1286.493475
1141.609736
-10457.81472
-10712.59298
-10091.49033
-10204.72938
-9557.467672
-8540.501485
-10513.47611
-10173.26646
-3753.519808
-3902.571185
-2122.419078
-2118.604566
-2118.951624
2731.182844
2636.835987
4931.208403
4734.008059
4709.512791
4351.045126
4223.693857
4611.120072
4464.319635
4608.616399
-2675.322569
-2587.708193
-2736.253307
-906.8982769
-900.1330814
-888.1754153
-1011.383887
-705.0114322
-677.39681
-668.1954061
-828.8497857
-766.5588418
-770.5728921
-435.0701476
-488.0540281
-479.7952535
-314.5259105
-323.091869
-365.4363337
-9952.172792
-9870.052906
-10458.5357
-9033.810357
-9478.381469
-9425.366816
-10118.14764
-10115.24283
-7458.092071
-7345.928234
-7395.803842
-7294.56173
-7290.70396
-7390.358006
-7720.064707
-7564.480219
-7624.840164
-7450.769204
-7506.401479
-7656.183606
-5416.396579
-5341.458023
-5417.511617
-5399.03164
-5476.47533
-5071.606669
-5099.195473
-5086.674924
-5197.785583
-5728.746835
-5746.986676
-5703.700755
-5620.823383
-5700.096507
-5496.990011
-5565.728556
-5662.423827
-3394.23299
-3291.024101
-3291.295619
-3302.610637
-3247.066797
-3307.157234
-3510.192157
-3528.377434
-3452.962703
-3830.947243
-3870.834143
-3886.970894
3094.864731
2937.66128
2673.658619
2642.955743
2632.604734
2734.874114
2737.797484
2705.254464
3675.509175
3775.797479
3761.608208
4082.696748
3954.873065
3465.413249
3470.983934
3571.356128
-8299.292209
-8081.132779
-8125.618529
-8008.355832
-8041.81857
-8244.632952
-8465.127359
-8535.535883
-8907.314227
-9283.040178
-9139.976546
-9501.417883
-9434.43498
-9004.445745
-8752.366515
-9037.636138
-8969.149931
-8712.50285
2251.410817
2240.133819
2241.052728
2279.433751
2276.802913
2264.062379
2179.382344
2171.689887
2195.930367
2187.381693
2479.562022
2461.120626
2459.587724
2517.964368
2520.83063
2499.339714
2352.684329
2338.209817
2338.12436
2382.387281
2381.219188
2367.196557
-6531.67464
-6434.963425
-6489.191749
-6314.783733
-6375.549405
-6468.240716
-6809.099979
-6708.118904
-6777.890259
-6548.417958
-6625.570294
-6721.667867
1903.089935
1905.312056
1912.521425
1887.449574
1896.987971
1894.4568
1938.822241
1937.965711
1950.737823
1919.115029
1927.03946
1928.197901
1837.54349
1840.019974
1845.844523
1826.629505
1833.700054
1830.641127
1866.922196
1867.672983
1877.335328
1851.836952
1859.023446
1858.569482
2095.476778
2082.961672
2074.18863
2078.846731
2090.9557
2054.597931
2066.686179
2062.365752
2121.825424
2108.085927
1998.411948
1987.534476
1980.884494
1983.979641
1995.392242
1960.681858
1966.348446
1968.839531
2027.195598
2030.732083
2042.61901
2007.262396
2018.961638
2015.601362
2021.969323
2010.228736
-4308.879583
-4347.404091
-4233.321694
-4205.396715
-4216.047045
-4795.195685
-4824.164558
-4772.15056
-4997.017161
-4897.299795
-4871.214847
-4517.013257
-4543.843098
-4533.379555
-4714.68117
-4657.937275
-4589.489076
1666.37511
1662.614526
1655.091097
1677.948167
1670.405222
1674.898191
1679.216682
1669.520501
1705.36191
1701.455215
1649.851125
1639.134631
1633.171039
1633.098653
1630.002716
1647.762796
1640.9828
1645.9054
1769.721881
1775.08099
1787.296986
1769.197591
1807.242303
1809.834918
1818.483252
1794.116582
1801.734626
1799.212834
1722.384539
1717.339328
1746.213531
1739.728509
-2922.553334
-2910.216695
-2983.118918
-2786.050194
-2842.752733
-2876.828166
-3122.844406
-3174.12637
-3032.565506
-3028.978429
-3036.770351
-1241.904484
-1252.422974
-1307.754975
-1104.949843
-1172.590072
-1175.452868
1419.171429
1404.525437
1443.564261
1433.25498
1358.402772
1367.830567
1363.956859
1370.892979
1361.994137
1391.911343
1381.181982
1548.078521
1545.640536
1539.220109
1559.834455
1552.489478
1554.687403
1528.615829
1521.930733
1514.989446
1533.266384
1527.66352
1532.76451
-1852.547957
997.3896015
967.7655863
966.0654094
517.5009994
516.9071883
549.3214794
478.4191343
480.4128644
473.9314436
975.7943661
353.6283696
316.3334593
260.9107896
1248.161217
1250.108416
1258.763689
-301.9464888
129.9848504
82.88007745
220.8115421
216.2981802
222.1623859
71.13470467
-43.61423444
-26.97328194
63.37437573
1179.953578
1198.182492
1190.314208
952.0935939
909.7180491
882.4699941
891.6379351
825.0195456
791.0326496
797.3565681
696.6668846
660.8844557
655.5460235
512.7363264
486.6823228
457.9143807
282.8824516
275.8104877
222.5943264
35.89827891
46.56900583
-25.99205044
-201.1741802
-177.2828088
-256.6725457
-407.6679009
-376.0344442
-453.2460662
-570.8972957
-537.0214564
-604.7668425
-688.8233732
-658.9168466
999.9888736
970.6228926
922.4977232
957.2986626
900.3124362
841.1847285
874.0760212
769.4393182
712.2775665
724.9814125
562.6640121
522.635023
498.0900821
280.2733601
284.1614434
203.5148546
-26.01714514
25.19084414
-98.82904898
-295.6825452
-217.4518243
-353.187678
-501.4948316
-424.3261862
-543.8021557
-653.2705504
-587.3260839
-684.2646998
-759.9799298
-703.3847158
1065.395858
1055.147554
989.8509587
1047.802639
1007.65744
923.6272444
986.4077747
890.0000493
793.6230497
844.3970643
656.2551691
581.1570997
574.4328495
283.6758473
279.3205218
174.1935444
-148.5008481
-50.12883858
-245.4820881
-483.7725194
-332.6419209
-545.0721239
-683.5071269
-537.9645195
-718.4626198
-798.5040278
-682.2829744
-818.5657493
-866.0836921
-783.4170547
1140.119269
1157.44823
1079.453813
1161.120528
1160.192217
1041.051316
1153.742549
1102.130996
932.524377
1069.34136
886.7762192
696.6306259
786.7116814
341.3122548
291.6099672
157.6539119
-384.0768855
-192.5477815
-529.2755548
-823.2041698
-550.5399762
-882.3171242
-981.7188421
-746.4285274
-995.4276149
-1009.989368
-845.6694847
-1010.629173
-1007.163488
-898.1464895
1212.014378
1263.970524
1184.36826
1283.03842
1345.686359
1205.004978
1368.393479
1435.672698
1175.064117
1452.95214
1432.345957
984.1693957
1362.842035
525.043444
378.4436768
283.9444604
-1005.393173
-481.6419123
-1211.73071
-1438.865246
-944.4426088
-1444.63437
-1390.41745
-1073.413203
-1362.009588
-1272.723869
-1072.312998
-1244.772519
-1171.906929
-1047.021666
1266.225748
1350.134635
1288.493425
1383.939804
1510.319757
1391.982023
1563.573889
1775.422273
1528.888321
1871.075926
2396.554329
1642.22873
1989.771802
1964.683534
1371.151894
224.9278352
-1361.867406
-595.3413631
-2083.550823
-1957.119381
-1617.870237
-2234.604682
-1863.997809
-1507.672726
-1767.708267
-1536.650523
-1341.884929
-1475.249214
-1327.151074
-1213.052664
1288.63154
1389.880785
1364.893233
1430.613564
1582.343587
1538.944608
1645.68311