/*--------------------------------*- C++ -*----------------------------------*\
| =========                 |                                                 |
| \\      /  F ield         | OpenFOAM: The Open Source CFD Toolbox           |
|  \\    /   O peration     | Version:  v1912                                 |
|   \\  /    A nd           | Website:  www.openfoam.com                      |
|    \\/     M anipulation  |                                                 |
\*---------------------------------------------------------------------------*/
FoamFile
{
    version     2.0;
    format      ascii;
    class       surfaceVectorField;
    location    "0.62";
    object      Uf;
}
// * * * * * * * * * * * * * * * * * * * * * * * * * * * * * * * * * * * * * //

dimensions      [0 1 -1 0 0 0 0];


internalField   nonuniform List<vector> 
25162
(
(99.99855098 0.005902221182 -2.302382156e-21)
(99.99447252 0.00515080577 6.816059379e-21)
(99.99762982 0.0149147386 -2.272390741e-21)
(99.99156376 0.01822677948 2.301857387e-21)
(99.99577928 0.03059264179 -4.533013496e-21)
(99.98532771 0.04044033608 1.36871087e-20)
(99.99797931 0.03648860632 1.41167189e-21)
(99.97362885 0.07940687709 -9.014460837e-21)
(99.98863032 0.08106912971 -1.507118626e-21)
(99.99668126 0.06659514017 2.189257046e-21)
(99.99892013 0.04003107107 1.083485456e-21)
(99.98647376 0.1136386706 2.176011637e-21)
(99.99690103 0.06484968712 1.064578232e-21)
(99.99770654 0.05038340026 -1.097844063e-21)
(99.9961513 0.08301809534 1.064534752e-21)
(99.97897188 0.1874727211 2.118303945e-21)
(99.99577868 0.1055052717 0)
(99.9955196 0.1302735416 -3.886102274e-21)
(99.9724933 0.2885827868 -3.886082049e-21)
(99.99488253 0.1596958353 -1.011718152e-21)
(99.99418415 0.1935051578 3.3867394e-21)
(99.96443298 0.4237981686 3.688682721e-21)
(99.993542 0.2315835671 4.554506257e-22)
(99.99304587 0.2732927943 -3.016422428e-21)
(99.95865232 0.5902298447 4.29194759e-22)
(99.99279634 0.3175377096 -3.070749715e-21)
(99.9928313 0.3625852646 3.238981865e-22)
(99.95899785 0.770159351 -2.052451491e-21)
(99.99276557 0.4064542915 2.756880933e-21)
(99.99296442 0.446382081 2.341386038e-21)
(99.9698141 0.925816194 -1.03596708e-21)
(99.99453682 0.4787514906 0)
(99.99696762 0.5004803281 0)
(99.99022058 1.012963411 2.294352247e-22)
(99.99935839 0.5109658166 0)
(100.0018332 0.5099963225 3.772084707e-22)
(100.0122401 1.008485635 -8.925148318e-24)
(100.0042335 0.4969283062 9.759382368e-22)
(100.006335 0.4733243672 -1.163819639e-22)
(100.0306252 0.9144907222 -6.313475344e-22)
(100.0073582 0.4405486325 -1.068064248e-21)
(100.0070405 0.4020411578 9.42167937e-23)
(100.0383619 0.7644065701 1.786838385e-21)
(100.0067785 0.3610255916 4.630627544e-22)
(100.0067694 0.3193312225 0)
(100.0380541 0.5976385839 0)
(100.0064716 0.2786400911 0)
(100.0061506 0.2402340932 7.848797305e-22)
(100.0325596 0.4451822275 1.644824435e-21)
(100.0062149 0.2054255927 -3.979547773e-21)
(100.0059927 0.172044237 -1.469629402e-21)
(100.0269752 0.3136595967 3.22804248e-21)
(100.0051315 0.1432133479 3.227801599e-21)
(100.0038318 0.1190596567 -9.094494184e-22)
(100.016179 0.2147770801 -5.773809355e-23)
(100.0010147 0.1017754682 1.769199457e-21)
(100.0099799 0.09827120558 -7.900205369e-21)
(100.0571262 0.241054884 5.481296583e-22)
(100.020358 0.2170759671 -2.811307576e-21)
(100.003309 0.1014146889 -1.631028933e-21)
(100.00702 0.05701038106 -9.929604251e-22)
(100.0385867 0.1472473297 1.573995937e-20)
(100.0058174 0.02665716325 -7.976318887e-21)
(100.0285184 0.07869466278 -1.678304234e-20)
(100.0251214 0.02480791088 1.500208796e-21)
(99.98648797 0.01616327388 1.138188439e-20)
(99.9792828 0.00792603345 3.251990601e-22)
(99.97744148 0.04128448621 1.818592365e-20)
(99.96802055 0.02915147499 -1.5912776e-20)
(99.96066502 0.08528413836 9.559170834e-21)
(99.94415424 0.06735241439 -2.46743348e-20)
(99.95171436 0.143276327 -1.599995816e-21)
(99.90471993 0.135272171 4.753482989e-20)
(99.91660841 0.1747015746 -1.048396499e-20)
(99.92783541 0.1847347687 -2.250906254e-21)
(99.94427946 0.1843742218 4.442153107e-21)
(99.96629402 0.1302776953 2.204099496e-21)
(99.94524226 0.222301713 2.153199276e-21)
(99.92745646 0.241878406 2.192679395e-21)
(99.87774829 0.3210496974 -4.427613763e-21)
(99.90900155 0.3140312874 -2.037140787e-23)
(99.91519504 0.3657026128 2.118636386e-21)
(99.88733238 0.4031600576 -1.978155615e-23)
(99.8149491 0.5290879512 0)
(99.87628432 0.4760065792 0)
(99.84259819 0.5446857984 -2.652498782e-21)
(99.88361945 0.5518374596 -5.215096476e-21)
(99.86911959 0.5812747263 -7.679113638e-23)
(99.83153512 0.6726498798 -1.173336265e-20)
(99.85871679 0.6368871038 -4.032365063e-21)
(99.82476629 0.8647941876 2.604737794e-23)
(99.84783144 0.81627604 -2.66110969e-21)
(99.7766715 1.000861102 -1.450743148e-20)
(99.81602075 0.9407844447 -3.533923044e-21)
(99.78937066 1.227228472 -6.613283182e-21)
(99.82116596 1.147588195 -6.239638323e-21)
(99.73480277 1.415527773 6.788915578e-22)
(99.78556358 1.319436297 -7.933885266e-21)
(99.78149357 1.635862507 -6.884376577e-23)
(99.82072991 1.512624114 -5.181690785e-21)
(99.73050341 1.875517812 -1.410121976e-21)
(99.78859878 1.732161467 -3.898398116e-21)
(99.82343772 2.012529587 -4.601524475e-21)
(99.86547976 1.837744837 -6.70058138e-21)
(99.78783098 2.294869719 5.24132287e-20)
(99.84503912 2.09529725 -5.080315671e-21)
(99.92198217 2.259209022 7.290784137e-22)
(99.95868428 2.032400632 2.51464105e-22)
(99.91393026 2.552539959 7.289696405e-22)
(99.95117769 2.306910692 -1.331895865e-21)
(100.0352999 2.299164234 2.714621945e-22)
(100.0512711 2.037691821 -3.642344163e-22)
(100.0516864 2.566922876 2.21964604e-21)
(100.0626607 2.298409511 -6.60494004e-22)
(100.138238 2.133159017 -2.439257367e-22)
(100.1144261 1.857021705 -2.410276371e-22)
(100.1705216 2.341821606 -1.127933924e-22)
(100.156043 2.072866052 2.012592784e-21)
(100.1945736 1.81462538 2.397025286e-21)
(100.1437579 1.557674915 4.155062858e-21)
(100.2292628 1.963374363 4.17881294e-21)
(100.1986212 1.72296513 5.542997649e-22)
(100.203211 1.43813118 -6.800069601e-21)
(100.1426963 1.220178374 -6.352741136e-21)
(100.2351153 1.537399106 -2.28906021e-21)
(100.1982585 1.339132404 -2.254574511e-21)
(100.1783789 1.080831051 -5.429358552e-21)
(100.1182128 0.9102908138 4.955389096e-22)
(100.1986401 1.141490595 -1.458524725e-21)
(100.1681045 0.9947284098 5.93894407e-21)
(100.1087249 0.6202551823 -1.372122466e-20)
(100.1740577 0.8465320638 -1.372015854e-20)
(100.2434774 0.9123268237 1.390898413e-20)
(100.1496966 0.7023090712 -2.804961991e-20)
(100.1261241 0.578845297 1.22518915e-20)
(100.1743355 0.6155568048 -1.723689268e-20)
(100.1023353 0.4751100802 2.462707724e-20)
(100.0773064 0.4210062694 2.73681745e-20)
(100.0944251 0.284798505 2.33984246e-20)
(100.2151301 0.4478629673 -2.044111725e-22)
(100.1652151 0.5047289977 4.918850309e-20)
(100.0972474 0.4012908343 2.662208395e-21)
(100.0675349 0.1656045837 -6.861487355e-22)
(100.1504232 0.271803348 3.358966271e-20)
(100.0539688 0.07585808708 -7.815029418e-21)
(100.1131265 0.1453948512 -1.780602475e-20)
(100.0966739 0.04563054263 7.97462917e-21)
(99.96417468 0.01941559464 -2.731692691e-20)
(99.96095914 0.006054754345 -1.36530349e-20)
(99.93901726 0.05239052867 -5.91771652e-20)
(99.93698605 0.02550498103 1.261186707e-20)
(99.89364378 0.1141382843 1.273607453e-20)
(99.88622578 0.06831957212 -5.010042736e-20)
(99.84308445 0.212234676 3.024638765e-20)
(99.80401491 0.1479569192 5.449428265e-20)
(99.79018071 0.2315602524 -5.005787961e-20)
(99.86380995 0.228826174 -9.069881385e-21)
(99.79184805 0.2571227272 -6.679401224e-20)
(99.80968163 0.2892275269 -4.513052772e-21)
(99.78601262 0.4046824692 -8.836948482e-21)
(99.76102009 0.3870768303 -4.403542558e-21)
(99.6725085 0.4682064465 3.088890639e-20)
(99.70361729 0.5086453953 8.679788275e-21)
(99.67819136 0.6746478094 -7.651416447e-21)
(99.63688722 0.6582926474 5.652360783e-21)
(99.50698228 0.794820356 -4.354819032e-20)
(99.59701809 0.8122158353 3.106075266e-21)
(99.53136794 0.8705684714 -1.90343731e-20)
(99.57709085 1.019475287 -7.887727473e-21)
(99.54406734 1.01578379 0)
(99.46612106 1.121797521 8.15501649e-21)
(99.50644286 1.134395801 -7.862297625e-21)
(99.43796915 1.546101342 3.845866863e-21)
(99.3884795 1.55478816 1.508428785e-20)
(99.28826284 1.713815382 7.477092739e-21)
(99.35047558 1.714833139 1.874359353e-20)
(99.3262015 2.222564751 1.377286935e-20)
(99.25561521 2.256592906 -1.424312674e-20)
(99.14620135 2.478974378 1.260230645e-19)
(99.23579352 2.450768936 1.910539223e-19)
(99.3114575 2.99869407 6.83920854e-20)
(99.22037023 3.080755302 -2.771454739e-19)
(99.12215223 3.384429202 4.180530228e-19)
(99.23413661 3.295605327 4.455909815e-19)
(99.45992745 3.758026145 -4.260169104e-19)
(99.35734189 3.922233773 -4.465441151e-19)
(99.31333754 4.284712823 -4.35608254e-19)
(99.43013226 4.100866762 5.479038974e-19)
(99.80137155 4.215002795 1.014696672e-19)
(99.70352372 4.471454038 -1.942938903e-19)
(99.75941696 4.827420105 3.250792985e-19)
(99.81786022 4.541367689 1.007861545e-19)
(100.1767017 4.24809547 0)
(100.1600971 4.566775241 -6.332814967e-20)
(100.2537203 4.852015235 2.383372778e-20)
(100.2666513 4.504772381 1.333043448e-21)
(100.4864439 3.833038766 -7.595157446e-20)
(100.5276318 4.16579993 2.349449857e-20)
(100.6451581 4.352613853 4.19564143e-20)
(100.5911999 4.006226632 -1.150667341e-19)
(100.6280248 3.163321242 2.942990743e-21)
(100.7071428 3.461975822 -1.277862219e-20)
(100.8127361 3.565773197 -1.471347111e-20)
(100.7226229 3.264638149 6.306925321e-21)
(100.631819 2.442600708 -6.366864197e-21)
(100.7217216 2.683750816 -1.481616711e-20)
(100.8074062 2.731798974 -5.165342558e-21)
(100.7082382 2.496003963 5.754295596e-21)
(100.6353363 1.970354733 -1.81549107e-20)
(100.5474926 1.783814518 -1.224060421e-20)
(100.6992116 1.985160878 -1.225711116e-20)
(100.6072287 1.807911328 6.592332657e-21)
(100.4292928 1.18315756 -5.432376408e-20)
(100.5744221 1.44659112 -2.842412597e-20)
(100.6675976 1.426610004 -8.23529197e-20)
(100.4973412 1.192820656 -3.875776401e-20)
(100.3121992 0.7927253619 -6.236615534e-20)
(100.4243397 0.9758626228 2.46930952e-20)
(100.4846069 0.9456379812 -2.960243554e-20)
(100.3561048 0.7922713773 -2.58826619e-20)
(100.2618653 0.4302645421 1.073045448e-20)
(100.4504061 0.5884522093 -2.660231193e-20)
(100.426539 0.7132294656 -1.553377195e-22)
(100.3177241 0.6488107105 -1.529035149e-20)
(100.1895905 0.2486169525 1.574188215e-20)
(100.321307 0.3540165982 2.800894315e-20)
(100.1504944 0.113439778 -2.003658509e-21)
(100.2406559 0.1880374354 -4.046386267e-21)
(100.2036567 0.0585365506 0)
(99.93984323 0.01105169641 2.74218483e-20)
(99.95055753 -0.002279772824 -4.573825784e-21)
(99.89197843 0.038951287 2.308012173e-20)
(99.91073303 0.001376133004 3.202578677e-20)
(99.80622313 0.1018732656 -9.170199277e-21)
(99.82701277 0.03260732201 -4.545667662e-21)
(99.69553411 0.2299057321 0)
(99.68908161 0.1046039961 6.991474538e-21)
(99.63480456 0.2186822496 2.133677012e-20)
(99.70951907 0.2691295222 -6.238654718e-20)
(99.61943017 0.2615658677 1.604182499e-20)
(99.62251075 0.3258254167 0)
(99.54091454 0.5066957249 3.636311189e-22)
(99.52515099 0.4492251078 -3.548185159e-20)
(99.39493059 0.5162580038 -3.545798196e-20)
(99.40956516 0.605414368 7.198834823e-20)
(99.30736086 0.8810087322 -1.070065957e-19)
(99.27463213 0.8005650043 3.873564211e-20)
(99.08374777 0.9225737804 -7.154720802e-20)
(99.16392427 1.032635106 -3.555136274e-20)
(99.07337313 1.051882607 -5.856079454e-20)
(99.059512 1.369145127 8.498759785e-21)
(99.02470368 1.321147669 1.689403317e-20)
(98.90154624 1.427670546 4.269861771e-20)
(98.93967934 1.490035793 8.428714093e-21)
(98.73259522 2.146263207 6.104411346e-20)
(98.67227039 2.093167812 8.20480981e-21)
(98.51647888 2.260052746 3.990281885e-19)
(98.5872779 2.328580237 2.488016197e-19)
(98.46198049 3.216631084 3.612721322e-21)
(98.36088297 3.174944727 -7.111831532e-19)
(98.18089426 3.451158984 -2.284339092e-19)
(98.30222832 3.504799786 6.641829167e-19)
(98.37991437 4.597644954 -5.011793543e-20)
(98.22729749 4.611048811 7.647060377e-19)
(98.06481898 5.022486385 1.561714614e-18)
(98.25112236 5.002239068 -8.138357632e-19)
(98.77109774 6.017664819 8.208970188e-19)
(98.51402755 6.138459873 2.076613425e-19)
(98.51899032 6.664291566 -1.892453604e-20)
(98.68590258 6.482464159 6.365319656e-19)
(99.6409072 6.899385133 -2.881450682e-19)
(99.45247143 7.201683757 -5.304446167e-20)
(99.60917969 7.695324766 -8.132509702e-21)
(99.74773975 7.321749058 -8.55032878e-20)
(100.6538112 6.848701302 0)
(100.6170751 7.265374374 1.249880194e-20)
(100.8662014 7.591354895 -8.396230649e-20)
(100.8706852 7.119422688 -4.397674003e-20)
(101.3522034 5.985449524 -1.080560368e-19)
(101.4385977 6.409639519 -4.962470044e-19)
(101.6882157 6.553692202 -3.70015781e-20)
(101.5575082 6.110892563 -1.855868261e-20)
(101.572845 4.77219532 -6.010523874e-19)
(101.7235258 5.13721438 7.630789131e-20)
(101.9107961 5.164390322 -5.474848037e-19)
(101.7276309 4.805011961 -4.746410525e-19)
(101.4853018 3.552008089 9.029440852e-20)
(101.6437811 3.8377991 -7.362508989e-20)
(101.7695757 3.80010209 -7.110527979e-21)
(101.5925421 3.532383842 2.639839137e-19)
(101.4042284 2.723376867 0)
(101.2635005 2.523876536 4.899049593e-20)
(101.4856927 2.674573912 0)
(101.3335658 2.487047569 0)
(100.9559831 1.632581622 3.015739477e-20)
(101.1977214 1.913008988 1.952338112e-20)
(101.2875194 1.789913248 -1.736004475e-20)
(101.0292181 1.559436348 3.772292294e-20)
(100.6922757 1.068966702 -3.454550398e-20)
(100.8753302 1.260252947 -1.542059571e-20)
(100.9279101 1.158542178 -1.560500536e-20)
(100.7388376 1.009068565 -7.539856165e-21)
(100.4952278 0.5087669115 -9.611047942e-21)
(100.7453837 0.6343109897 -2.009274867e-20)
(100.782414 0.8400203422 -2.625646235e-21)
(100.6431796 0.8048800066 5.213593802e-21)
(100.3588851 0.2906024429 8.062860096e-21)
(100.5269806 0.3767040572 1.226251963e-20)
(100.2826415 0.1312992508 -2.042366347e-21)
(100.3908942 0.1960982674 -3.607906792e-21)
(100.3274812 0.06029713911 -5.189916408e-22)
(99.92812751 -0.0123127222 0)
(99.96219429 -0.01805419065 0)
(99.85417789 -0.006329939628 4.611729231e-21)
(99.90517642 -0.04617670065 0)
(99.72107699 0.03658441567 1.164751295e-20)
(99.78668857 -0.04596043641 -3.82438079e-21)
(99.53498978 0.163789426 2.034506853e-20)
(99.58851294 -0.003808395954 2.579668878e-20)
(99.47486615 0.1234821831 -7.80350803e-21)
(99.53130445 0.2324845541 2.764089494e-20)
(99.43321805 0.1806624458 2.241304161e-21)
(99.4104342 0.2684798142 -1.099545701e-20)
(99.24056099 0.4932356789 0)
(99.25036836 0.3993736152 -2.314500581e-20)
(99.08366362 0.434706746 -1.900968147e-20)
(99.060019 0.5669844761 4.726129151e-21)
(98.83973883 0.9141633003 0)
(98.83645558 0.7817609714 4.725623156e-21)
(98.58621139 0.8542777475 -4.876346451e-21)
(98.62099044 1.062058871 2.376980148e-20)
(98.51902901 1.042416923 6.132167295e-21)
(98.37737108 1.502008924 2.733975209e-19)
(98.3588505 1.405363344 0)
(98.18959404 1.489775774 1.840391702e-20)
(98.20986928 1.605085476 1.407006707e-19)
(97.77701134 2.500029143 2.710603691e-19)
(97.72821315 2.369199735 1.719578069e-20)
(97.50193179 2.53439883 0)
(97.55528457 2.696952251 -1.347133517e-18)
(97.15583311 4.083843524 2.779854222e-19)
(97.0411722 3.934602746 2.658602855e-19)
(96.74876403 4.254574638 1.668947579e-21)
(96.88849985 4.438364506 -2.463338109e-19)
(96.83812346 6.330668421 4.219416539e-19)
(96.60373769 6.21961016 9.39672921e-19)
(96.30884507 6.757819468 8.229750784e-19)
(96.60729479 6.887383137 -2.235603834e-19)
(97.48887071 8.864043082 1.492149072e-19)
(97.116293 8.949729539 -3.369502258e-19)
(97.00861991 9.709172844 -8.322419998e-19)
(97.49176551 9.586987495 -9.54368141e-19)
(99.53287865 10.54859219 -1.886804719e-19)
(99.14516076 10.98867908 -8.639377181e-20)
(99.5147022 11.71181034 1.430330321e-19)
(99.83999481 11.14565491 -7.18621834e-20)
(101.8539143 10.13978282 1.393917386e-19)
(101.7938971 10.77296036 5.309963857e-20)
(102.3373005 11.12495946 4.811439334e-19)
(102.3140249 10.39805285 1.542278898e-20)
(103.108412 8.310937607 4.077744387e-20)
(103.31122 8.882622373 3.612537205e-19)
(103.7509052 8.894559734 -4.949113099e-20)
(103.4655687 8.322837437 3.750384766e-19)
(103.2441733 6.224870125 -6.979526727e-19)
(103.5369789 6.65227839 -1.343700144e-19)
(103.817338 6.526737952 -5.782244595e-19)
(103.4690612 6.129347355 8.652725901e-21)
(102.8245127 4.437824538 2.221593229e-19)
(103.1005302 4.737754235 -2.322860682e-19)
(103.2426817 4.594552916 -2.708565914e-19)
(102.9477584 4.323966731 0)
(102.4803948 3.226155578 -1.549298278e-20)
(102.2610424 3.017422577 -4.014552344e-21)
(102.5563077 3.092340721 1.169155421e-20)
(102.3291787 2.911232852 2.378171354e-20)
(101.6540979 1.888253133 -9.76935294e-20)
(101.9944239 2.150900576 -6.19632802e-20)
(102.0484442 1.917765413 -3.481889134e-20)
(101.7063701 1.730698103 -1.797025464e-20)
(101.1849061 1.206504674 1.200248191e-20)
(101.4428614 1.378021292 3.623967527e-20)
(101.4592522 1.20758343 -4.038074728e-21)
(101.2107657 1.085708024 -3.959201827e-21)
(100.7611078 0.5033434632 2.084398974e-21)
(101.0596488 0.5642315904 0)
(101.1857763 0.8297038819 -9.942436967e-23)
(101.0336611 0.8442593586 -1.080745308e-20)
(100.5455578 0.2795161656 4.57746177e-22)
(100.7380365 0.3262911797 2.084211057e-21)
(100.4242788 0.1237619515 -2.090049121e-21)
(100.5377964 0.1625564433 -2.091818862e-21)
(100.4442102 0.04887941558 -2.098965628e-21)
(99.94560651 -0.0516666179 0)
(100.0109594 -0.04127555376 2.25448227e-21)
(99.84555548 -0.08580553547 -9.248726103e-21)
(99.93748917 -0.1169839972 -2.271642766e-21)
(99.66450654 -0.08539545227 9.564976912e-21)
(99.78652028 -0.1677449493 -4.609218445e-21)
(99.39189378 0.01291442865 1.254395323e-20)
(99.53089674 -0.1800915418 3.827506233e-21)
(99.34669012 -0.06035708937 -3.783686639e-23)
(99.35731147 0.1034190857 -9.34999119e-21)
(99.27089258 0.003031055425 -9.424275059e-21)
(99.20951855 0.1048225716 0)
(98.93185026 0.3385019266 -1.900921219e-20)
(98.98299627 0.217244513 0)
(98.79217096 0.2042348882 -1.160594046e-22)
(98.71024281 0.3665355898 -7.760518323e-23)
(98.33083113 0.7402654026 9.79390077e-21)
(98.38445088 0.5634590637 1.472417866e-20)
(98.09076386 0.5694550895 1.983022117e-20)
(98.05035447 0.8543033223 -3.105631187e-21)
(97.95544642 0.7853416468 -2.902510396e-20)
(97.63152944 1.333461029 7.355698611e-20)
(97.65174736 1.195375347 -7.858584967e-20)
(97.44842417 1.239406911 -7.664721038e-20)
(97.42068712 1.402984691 0)
(96.60359589 2.479853473 -2.951320747e-19)
(96.60243653 2.268034902 6.01972776e-19)
(96.29285235 2.40016285 0)
(96.28763272 2.654427967 3.030629324e-19)
(95.32668454 4.503841567 6.698910159e-21)
(95.2472578 4.194735335 7.36025341e-19)
(94.79107735 4.482269478 2.918226928e-19)
(94.88951445 4.858199482 2.591507314e-19)
(94.22935743 7.820114818 -6.006283176e-21)
(93.93501584 7.439516246 4.412848889e-19)
(93.3440543 8.024698387 9.174425112e-19)
(93.72990053 8.507084386 8.972797029e-19)
(94.73485256 12.51807451 0)
(93.98871825 12.31534459 -5.527383082e-19)
(93.53398865 13.49658277 -5.654463105e-19)
(94.55662611 13.69456735 0)
(99.16277774 16.24093146 -1.704879944e-20)
(98.2056409 16.90062282 -2.619425827e-19)
(98.86854881 18.30882927 0)
(99.89815207 17.29146269 -4.872996639e-20)
(104.5513124 14.63343714 2.183697136e-19)
(104.4865307 15.78998506 0)
(105.6599893 16.03348575 6.644097486e-19)
(105.4811722 14.73892357 0)
(106.3785615 10.52723273 -1.448479668e-19)
(106.8496938 11.31769982 -5.578872236e-19)
(107.5399543 10.99119922 -2.655413619e-19)
(106.915048 10.25960676 2.697341856e-20)
(105.8825838 7.170843472 2.506459594e-20)
(106.4132172 7.606756547 1.274041571e-20)
(106.6980646 7.261806054 4.856213702e-19)
(106.1193012 6.876272457 -1.013912358e-21)
(104.6860174 4.827433127 0)
(105.1201069 5.089555607 3.312133395e-19)
(105.2216296 4.804769243 0)
(104.781455 4.592556127 -4.618473563e-19)
(103.8383469 3.327899548 3.450798041e-20)
(103.519633 3.153765404 3.487956339e-20)
(103.8669498 3.108908957 3.493635739e-20)
(103.5557856 2.96652739 -3.519536937e-20)
(102.4586934 1.868681496 2.828736519e-20)
(102.9003819 2.066011236 -2.796866648e-22)
(102.870361 1.733604252 1.728671177e-20)
(102.4534814 1.627128812 1.289948298e-20)
(101.7347087 1.15577705 -1.689071254e-20)
(102.0586055 1.272828807 -8.619893869e-21)
(102.0082281 1.04598176 -8.621563852e-21)
(101.7126382 0.981947802 1.315641024e-20)
(101.0195907 0.3940732534 0)
(101.3500736 0.3701527623 1.387216459e-21)
(101.5769646 0.6570937385 -1.159688392e-20)
(101.4376015 0.7470588038 2.875017205e-20)
(100.7160067 0.2072422126 -5.266022116e-22)
(100.9141671 0.1949216676 -1.639291798e-21)
(100.5464638 0.087623135 -2.111548479e-21)
(100.6505822 0.08479245711 -2.389141767e-21)
(100.5268451 0.02366309539 2.670938713e-21)
(100.0083638 -0.1058303198 -1.644217108e-23)
(100.1108069 -0.07096312363 8.462242905e-23)
(99.88531909 -0.1972075679 2.36437708e-21)
(100.0237638 -0.2078279685 -1.035734769e-22)
(99.662092 -0.2607569063 -1.240399959e-20)
(99.84665681 -0.3267270061 1.883654952e-21)
(99.30516291 -0.2236256617 -1.1190992e-20)
(99.54505735 -0.4160251854 -1.88214524e-20)
(99.28848417 -0.3270526802 -1.603168195e-20)
(99.22789372 -0.1233261428 -8.742437901e-21)
(99.17496252 -0.2696933619 -3.497018986e-21)
(99.06603114 -0.1672890313 4.583018944e-23)
(98.67282376 0.03308134325 1.429841475e-20)
(98.77760294 -0.100714114 1.455408771e-20)
(98.58084593 -0.1724314061 7.197783905e-21)
(98.42977869 -0.00304846918 2.477520016e-20)
(97.88264168 0.3396516912 -2.496586226e-20)
(98.01404638 0.1331197141 -2.01492389e-20)
(97.71550899 0.05406592187 -3.01770741e-20)
(97.56249887 0.3662794713 -1.251770464e-19)
(97.49305614 0.2593803206 -2.026554623e-20)
(96.93694691 0.8301809071 0)
(97.01528416 0.6628217748 3.220038622e-19)
(96.78750873 0.6528634176 0)
(96.68832102 0.8464144858 6.328926879e-19)
(95.38256072 1.924295391 -2.02188909e-20)
(95.47543436 1.643884008 -6.254681654e-19)
(95.10605002 1.685197273 4.189394762e-20)
(94.98262877 2.012614299 -1.506047805e-18)
(93.13545407 3.980675404 1.058025184e-20)
(93.20028216 3.521249442 -3.46732155e-19)
(92.60530967 3.639879174 -3.635193349e-19)
(92.49595484 4.192471505 7.81401049e-20)
(90.14696056 7.747204452 1.202929132e-18)
(90.03401642 6.967537656 8.426274042e-19)
(89.00801514 7.248705772 8.347961704e-19)
(89.11080225 8.262477043 9.709922592e-20)
(87.52184311 15.73410847 1.487219327e-18)
(86.47840435 14.32042718 -5.617075854e-19)
(84.42750822 16.27095254 3.819681022e-19)
(84.63528046 15.2562624 2.296783275e-18)
(86.63386139 17.5991405 1.986264081e-18)
(85.42260939 17.63771778 1.025231121e-18)
(94.36979208 28.57884232 -1.45387701e-19)
(95.92205509 27.92442127 -6.814878433e-20)
(95.16566461 30.5901808 1.977668969e-19)
(97.00426401 29.43630983 -1.186214365e-19)
(111.3854206 22.88234679 -5.420988292e-19)
(111.3668499 20.80173242 -1.790418743e-19)
(113.1354162 19.98565704 -8.063613979e-19)
(112.490956 23.4584829 1.945235973e-18)
(114.6927385 21.84365936 -5.329810468e-19)
(114.3429825 22.85295596 7.721724604e-19)
(112.9737152 12.66820124 -1.7564708e-18)
(111.8841071 11.74960784 0)
(113.6229099 11.63467306 0)
(112.3898981 10.96129272 0)
(109.4232936 6.978534206 -4.38109561e-19)
(110.2682719 7.312845424 -4.397699548e-19)
(110.397431 6.648696483 -4.78182426e-19)
(109.5428346 6.447018275 -3.669932739e-20)
(106.9190907 4.363956231 1.464134217e-18)
(107.5160228 4.503122257 7.682170102e-19)
(107.4838775 4.078307287 -1.705992122e-21)
(106.9083351 4.008989479 1.573324548e-18)
(105.3154269 2.810761324 0)
(104.9032193 2.735351311 0)
(105.2450535 2.527099285 0)
(104.856519 2.475324622 -3.389902461e-19)
(103.2665718 1.507236248 4.561958343e-21)
(103.8026971 1.582198593 -4.70683025e-21)
(103.62664 1.187284688 -2.653121733e-21)
(103.1621598 1.199608201 -4.752337631e-21)
(102.2601121 0.872710356 4.718107779e-21)
(102.6255934 0.9026128944 -3.07100553e-23)
(102.4878056 0.6424688498 -7.625288005e-21)
(102.1675725 0.6609658522 9.540532183e-21)
(101.222238 0.1778910952 -1.893256014e-22)
(101.5420344 0.05783653174 -3.046040848e-22)
(101.900548 0.316936036 8.656756413e-22)
(101.7908781 0.4462780844 6.962284845e-21)
(100.8343983 0.07237135595 -3.510452917e-21)
(101.0135598 -0.01331701044 -2.567125072e-22)
(100.6199011 0.02176994153 2.618955459e-21)
(100.6982459 -0.03368610108 -2.365628139e-21)
(100.5473614 -0.01443210809 4.566394388e-22)
(100.1302973 -0.1718182334 1.725952207e-23)
(100.272889 -0.1052531989 -3.338417584e-21)
(99.99022824 -0.3340785613 -6.111326453e-22)
(100.1768537 -0.3128982295 1.457453338e-21)
(99.73627517 -0.4789804555 -4.802243304e-21)
(99.98342687 -0.5117241676 -3.162149383e-21)
(99.30959774 -0.5286740103 9.959560237e-21)
(99.65290275 -0.6931908467 -1.094465562e-21)
(99.33266467 -0.6576939424 1.027579643e-21)
(99.18247332 -0.4368276328 4.85154072e-21)
(99.18428041 -0.615794556 1.004318693e-20)
(99.02468969 -0.530452269 7.073889814e-21)
(98.5243431 -0.4060712727 -2.428459699e-21)
(98.68966035 -0.5315891647 3.747514719e-21)
(98.50822147 -0.662563233 2.479098089e-21)
(98.28797635 -0.5142982766 7.503506639e-21)
(97.60027343 -0.2773362417 -2.569377094e-21)
(97.81396692 -0.4771101943 -1.587015051e-23)
(97.54437713 -0.6439438575 -2.565341277e-21)
(97.26738759 -0.3426829576 -4.314376172e-19)
(97.23913651 -0.4882391311 -1.567915472e-23)
(96.44003509 0.003284794944 -6.181467168e-19)
(96.58965607 -0.1664193308 -9.953731096e-22)
(96.36557928 -0.2438029841 3.091075486e-20)
(96.18505951 -0.05564920154 1.2025215e-19)
(94.43811512 0.7458687032 -8.819581261e-19)
(94.65420367 0.4549747328 -1.914401764e-18)
(94.2874318 0.3729855388 1.777137296e-20)
(94.01849141 0.692101806 -7.112326142e-19)
(91.30949129 2.118056293 0)
(91.61890182 1.63008746 -3.874570878e-19)
(91.02836491 1.488306823 0)
(90.61431518 2.023919768 -1.073301937e-19)
(86.21450027 4.353615852 -1.023736941e-18)
(86.6948504 3.467832605 8.851057667e-19)
(85.72094075 3.067725404 1.136407978e-18)
(84.96305235 4.035752495 -1.016561341e-18)
(76.43614201 8.293534373 1.278069333e-18)
(77.07137535 7.09772881 0)
(75.89692471 6.408983182 0)
(74.90116891 7.69809869 -1.494021368e-18)
(131.2359232 24.18505137 -1.727811299e-20)
(128.9532832 23.22299477 1.906240153e-18)
(131.6823936 21.8001966 3.814162521e-18)
(129.5356537 21.33812948 1.900553906e-18)
(121.161874 9.675301197 1.41609752e-18)
(119.2269635 9.369281636 1.125574012e-18)
(120.9032998 7.903949636 1.253335496e-18)
(119.1416569 7.998149604 6.19183496e-19)
(113.186235 4.82801444 -1.047211788e-18)
(114.2894476 4.799666502 6.757175142e-20)
(113.9863071 3.950273956 -1.115984633e-18)
(112.9803705 4.12367061 -5.71651698e-19)
(109.0346677 2.806686378 0)
(109.733133 2.725992896 -9.111724894e-19)
(109.4700155 2.250601059 -7.744865669e-19)
(108.8389029 2.393164511 -9.281846766e-19)
(106.6043976 1.598533158 -4.237342396e-22)
(106.1439264 1.658225337 1.713841968e-20)
(106.4008732 1.291529108 2.293726984e-20)
(105.9835665 1.37227428 1.156703651e-20)
(103.9283674 0.7814266977 -5.168758104e-21)
(104.5081238 0.697383167 -2.370763636e-20)
(104.1533491 0.3030422733 8.228297353e-21)
(103.6949913 0.458156301 1.203982555e-21)
(102.6616698 0.3610324123 -2.091096883e-21)
(103.0342465 0.2818163759 1.441549618e-20)
(102.7862081 0.03517682835 5.325341955e-21)
(102.4866189 0.1495253599 1.053134476e-20)
(101.3187298 -0.1281323437 -3.745675141e-22)
(101.5957698 -0.348747428 -1.111280558e-21)
(102.0682917 -0.1642333866 -1.127585749e-21)
(102.0247023 0.02245092281 -1.220296463e-21)
(100.8659358 -0.1167822082 1.132250921e-21)
(101.0027196 -0.2802810539 1.382958813e-21)
(100.6165112 -0.06836936247 -4.474780383e-21)
(100.6525125 -0.1832099706 1.733197025e-21)
(100.4828476 -0.0626734636 -2.218423585e-21)
(100.3214937 -0.2449850296 -1.898181552e-21)
(100.5039852 -0.1416419674 1.052730644e-21)
(100.1725032 -0.4863027474 -1.107650942e-21)
(100.4045223 -0.4244280301 -7.752937474e-22)
(99.90310091 -0.7225791755 5.654094309e-22)
(100.2063581 -0.7081888255 -2.793295355e-22)
(99.43055377 -0.8784669416 6.570737424e-22)
(99.86751366 -0.9887315945 9.400017809e-22)
(99.49876903 -1.021549589 5.632166564e-22)
(99.25387574 -0.8087956264 1.645462769e-21)
(99.32158828 -1.004905255 -1.667693356e-23)
(99.11661144 -0.9501231215 -1.667930554e-23)
(98.53714378 -0.9357037378 -2.468293586e-21)
(98.75862984 -1.033545203 0)
(98.61338272 -1.218257341 -1.206870389e-21)
(98.33584697 -1.114186266 -1.282557143e-21)
(97.55286968 -1.034777249 4.282058192e-20)
(97.84120342 -1.194702292 4.151114487e-20)
(97.62805628 -1.436117309 -3.939052002e-20)
(97.23657565 -1.189283559 -4.082164855e-19)
(97.2602809 -1.3547497 1.115489281e-21)
(96.27744147 -1.041880424 -6.966806856e-19)
(96.48870085 -1.181217455 -1.339834365e-18)
(96.29707332 -1.317728682 1.342057154e-19)
(96.04617764 -1.170386305 -6.771196006e-19)
(94.07834438 -0.8276973411 -1.308121044e-20)
(94.38417274 -1.057845557 -1.971226493e-19)
(94.09099685 -1.238932521 -9.422252568e-19)
(93.70254049 -1.00222405 1.903812022e-19)
(90.7092488 -0.5113397915 -1.736295012e-18)
(91.19077965 -0.8503238305 -4.382545451e-19)
(90.76378496 -1.157644176 -1.708328081e-18)
(90.17344392 -0.834919714 -6.22197639e-19)
(85.63469476 -0.6715434083 1.059490113e-18)
(86.45258306 -1.110991288 9.898104431e-19)
(85.9327194 -1.725739603 -1.052006862e-18)
(84.97853707 -1.393822149 2.927544109e-19)
(78.78097309 -3.147873482 1.275145279e-18)
(79.58281389 -3.224172536 -2.46242491e-18)
(79.44748694 -3.852196733 2.467900198e-18)
(78.68037407 -3.912400839 -9.823766175e-19)
(143.6497516 3.348719939 -1.430316054e-18)
(141.9303452 4.627349147 -7.650866696e-18)
(142.0487736 2.01386385 -1.9670516e-19)
(140.6165432 3.248167485 -3.690828713e-19)
(125.9890923 0.9963520583 1.38127337e-18)
(124.1698354 1.920186604 1.773547603e-18)
(124.5329968 -0.3193774265 -1.54670756e-18)
(123.1225188 0.6846735447 3.252404336e-18)
(115.6194582 0.6581584476 2.935796016e-19)
(116.6554439 0.1161738525 -7.712158081e-19)
(115.8539469 -0.5649172238 -2.856962512e-19)
(114.9952946 0.0209681682 -2.549561883e-19)
(110.3671142 0.2476223466 1.59528633e-18)
(111.0168908 -0.1027475867 8.847891343e-19)
(110.5061114 -0.4880672315 -3.686047732e-21)
(109.9508478 -0.1199166768 2.96711788e-18)