/*--------------------------------*- C++ -*----------------------------------*\
| =========                 |                                                 |
| \\      /  F ield         | OpenFOAM: The Open Source CFD Toolbox           |
|  \\    /   O peration     | Version:  v1912                                 |
|   \\  /    A nd           | Website:  www.openfoam.com                      |
|    \\/     M anipulation  |                                                 |
\*---------------------------------------------------------------------------*/
FoamFile
{
    version     2.0;
    format      ascii;
    class       volScalarField;
    location    "1000";
    object      k;
}
// * * * * * * * * * * * * * * * * * * * * * * * * * * * * * * * * * * * * * //

dimensions      [0 2 -2 0 0 0 0];


internalField   nonuniform List<scalar> 
12556
(
36.829
36.8288
36.8289
36.8308
36.9166
36.9183
36.9196
36.9223
36.9273
36.9363
36.9494
36.9642
36.9749
36.9759
36.967
36.9534
36.9405
36.9309
36.9244
36.9208
36.833
36.8298
36.8291
36.8287
36.6491
36.6493
36.6497
36.6537
36.7326
36.7401
36.7473
36.7947
36.8093
36.8345
36.8712
36.9127
36.9434
36.9483
36.9259
36.8886
36.8513
36.8223
36.7634
36.7487
36.66
36.6526
36.6506
36.6496
36.4704
36.4708
36.4717
36.4776
36.5523
36.5656
36.5815
36.6335
36.6689
36.728
36.8118
36.8989
36.9549
36.9637
36.9245
36.8492
36.7659
36.6989
36.617
36.5855
36.4924
36.4795
36.4751
36.4733
36.2934
36.2939
36.2955
36.3038
36.3749
36.3955
36.4239
36.4905
36.5645
36.687
36.8337
36.9653
37.0476
37.0562
36.994
36.8824
36.7467
36.617
36.4966
36.437
36.3321
36.3108
36.3028
36.2996
36.1181
36.1188
36.1215
36.1328
36.203
36.233
36.28
36.3712
36.5144
36.7182
36.946
37.1667
37.3072
37.3044
37.1833
36.9993
36.7967
36.6037
36.4138
36.3078
36.1801
36.1466
36.133
36.1277
35.9447
35.9457
35.9498
35.9649
36.0365
36.0795
36.1542
36.2883
36.5179
36.8148
37.1957
37.6472
37.9779
37.8966
37.5877
37.2459
36.9264
36.6461
36.3774
36.2029
36.0374
35.9868
35.9651
35.9568
35.7736
35.7753
35.7815
35.8012
35.8753
35.9352
36.0474
36.2413
36.558
36.9901
37.6419
38.7869
39.5428
39.3627
38.3655
37.6705
37.1493
36.7405
36.3842
36.1246
35.9048
35.8314
35.799
35.7866
35.6058
35.6085
35.6175
35.6431
35.7217
35.8023
35.9594
36.2187
36.6234
37.213
38.222
40.4652
42.0973
39.6578
38.2877
37.4639
36.8849
36.4153
36.071
35.7828
35.6815
35.6358
35.6183
35.4424
35.4464
35.4588
35.4914
35.5764
35.6809
35.8868
36.2085
36.6998
37.4278
38.6872
41.9011
46.273
41.2062
39.0279
37.8423
37.0662
36.463
36.0371
35.6722
35.539
35.4778
35.4542
35.2844
35.29
35.3065
35.347
35.44
35.5705
35.8257
36.2037
36.7758
37.6119
39.0194
42.2742
49.0649
42.5657
39.7564
38.2336
37.2622
36.5203
36.0162
35.5734
35.4061
35.328
35.2976
35.1326
35.1401
35.161
35.2103
35.3124
35.4703
35.7728
36.2026
36.8506
37.7801
39.3191
42.0614
50.4443
43.5845
40.3835
38.5934
37.4504
36.5783
36.0031
35.4855
35.2844
35.1889
35.1511
34.9873
34.9967
35.0223
35.0808
35.1934
35.3789
35.7258
36.2058
36.927
37.9526
39.6162
41.5804
50.9146
44.2672
40.8674
38.8919
37.6127
36.6288
35.9916
35.4064
35.1735
35.0614
35.0162
34.8481
34.8601
34.8912
34.9596
35.0816
35.2945
35.6828
36.2125
37.0071
38.1404
39.914
40.9393
42.276
50.4775
44.6708
41.2005
39.1131
37.7362
36.6654
35.9753
35.3325
35.0718
34.9445
34.8922
34.7146
34.7287
34.7648
34.8422
34.9794
35.2223
35.6521
36.2381
37.1156
38.3809
40.2546
39.2378
48.9322
50.4172
44.8406
41.3894
39.2544
37.8153
36.6835
35.9484
35.2599
34.976
34.8355
34.7769
34.5853
34.6016
34.6424
34.7282
34.877
35.1433
35.6071
36.238
37.1902
38.5627
40.4276
32.9843
49.7665
49.8442
44.7598
41.4418
39.317
37.85
36.6788
35.9061
35.184
34.8822
34.7308
34.667
34.4588
34.4771
34.5223
34.6157
34.7755
35.0619
35.554
36.223
37.241
38.6936
40.2155
28.3426
48.1631
48.896
44.4955
41.3907
39.3088
37.8372
36.6397
35.8462
35.1017
34.7875
34.6269
34.5591
34.334
34.354
34.403
34.503
34.6728
34.9761
35.4904
36.1886
37.2501
38.7145
39.6624
24.597
46.5975
47.9091
44.0707
41.2201
39.2302
37.7733
36.5665
35.7659
35.0106
34.6885
34.521
34.4502
34.2096
34.2311
34.2834
34.389
34.5674
34.8843
35.4152
36.1337
37.2173
38.6222
38.8899
21.8453
45.1461
46.9813
43.6055
40.9717
39.0789
37.6589
36.4637
35.666
34.9085
34.5828
34.4115
34.338
34.0848
34.1075
34.1626
34.2728
34.4586
34.786
35.3289
36.0601
37.149
38.4494
37.9765
19.8594
43.8095
46.1192
43.1447
40.6936
38.8891
37.5125
36.3391
35.5506
34.7969
34.4704
34.2964
34.2216
33.9591
33.9828
34.0402
34.154
34.3459
34.6816
35.2327
35.9709
37.0518
38.2183
36.9982
18.4189
42.5762
45.3133
42.7034
40.4082
38.6808
37.3468
36.1987
35.4227
34.6767
34.3513
34.1759
34.1002
33.8321
33.8566
33.9159
34.0328
34.2296
34.5715
35.1281
35.8689
36.9312
37.9434
36.0105
17.3597
41.4335
44.5563
42.2842
40.1258
38.4651
37.1702
36.0473
35.2852
34.5494
34.2262
34.0501
33.974
33.704
33.7291
33.7899
33.9093
34.11
34.4567
35.0168
35.7569
36.7918
37.6339
35.0408
16.5672
40.3699
43.8423
41.8838
39.8509
38.2482
36.988
35.8886
35.1408
34.4163
34.096
33.9199
33.8435
33.5747
33.6004
33.6625
33.7839
33.9877
34.3381
34.9002
35.6369
36.6367
37.2958
34.1063
15.9632
39.3758
43.1656
41.4978
39.5848
38.0335
36.8038
35.7257
34.9916
34.2788
33.9616
33.7857
33.7092
33.4446
33.4706
33.5338
33.6571
33.8633
34.2166
34.7796
35.5105
36.4682
36.9368
33.2175
15.4942
38.443
42.5214
41.1234
39.327
37.8228
36.6197
35.5605
34.8394
34.1382
33.8241
33.6485
33.572
33.3137
33.3402
33.4043
33.5293
33.7376
34.0932
34.6562
35.3791
36.2878
36.5647
32.3797
15.1233
37.5652
41.9056
40.7594
39.0761
37.6166
36.4374
35.3947
34.6855
33.9954
33.6842
33.509
33.4324
33.1825
33.2093
33.2743
33.4009
33.6109
33.9684
34.5308
35.2435
36.0963
36.1854
31.5945
14.825
36.7366
41.3148
40.4045
38.8307
37.4151
36.2576
35.2294
34.5311
33.8512
33.5427
33.3679
33.2911
33.0511
33.0783
33.1441
33.2723
33.4837
33.8429
34.4041
35.1043
35.895
35.803
30.8611
14.5815
35.9528
40.7464
40.0579
38.5902
37.2179
36.0806
35.0653
34.3767
33.7062
33.4002
33.2257
33.1487
32.9198
32.9473
33.014
33.1437
33.3564
33.717
34.2763
34.9616
35.6857
35.4202
30.177
14.3803
35.21
40.198
39.7188
38.3538
37.0246
35.9065
34.9027
34.2228
33.561
33.2572
33.0828
33.0056
32.7887
32.8166
32.8841
33.0154
33.2293
33.5911
34.1479
34.8159
35.4701
35.0391
29.5392
14.2127
34.505
39.6681
39.3864
38.1212
36.8348
35.7354
34.742
34.0699
33.4159
33.114
32.9397
32.8623
32.6582
32.6864
32.7547
32.8875
33.1025
33.4655
34.0188
34.6671
35.2496
34.6613
28.9439
14.0722
33.8352
39.1551
39.0602
37.8919
36.6482
35.5671
34.5833
33.9182
33.2712
32.971
32.7967
32.719
32.5282
32.5568
32.626
32.7603
32.9764
33.3402
33.8893
34.5155
35.0255
34.2879
28.3874
13.9546
33.1984
38.658
38.7396
37.6655
36.4644
35.4014
34.4267
33.7678
33.1272
32.8284
32.6541
32.576
32.399
32.428
32.498
32.6339
32.8509
33.2154
33.7593
34.3616
34.7988
33.9197
27.8658
13.8567
32.5926
38.1758
38.4243
37.4418
36.2831
35.2383
34.2721
33.6189
32.984
32.6865
32.512
32.4336
32.2706
32.3
32.3709
32.5084
32.7263
33.0913
33.6288
34.2055
34.5705
33.5571
27.3754
13.7762
32.0162
37.7078
38.114
37.2206
36.1042
35.0775
34.1197
33.4716
32.8418
32.5453
32.3706
32.2918
32.143
32.1728
32.2447
32.3839
32.6027
32.9679
33.4981
34.0475
34.341
33.2007
26.9129
13.7115
31.468
37.2534
37.8086
37.0017
35.9273
34.9189
33.9693
33.3258
32.7006
32.405
32.23
32.1507
32.0175
32.0476
32.1205
32.2611
32.48
32.8452
33.3671
33.8881
34.111
32.8504
26.475
13.6617
30.9467
36.8124
37.5078
36.785
35.7524
34.7623
33.821
33.1817
32.5614
32.2668
32.0914
32.0117
31.8986
31.9292
32.003
32.145
32.3597
32.7242
33.2366
33.7276
33.8809
32.5064
26.0587
13.6259
30.4513
36.3842
37.2118
36.5705
35.5794
34.608
33.6759
33.0405
32.431
32.137
31.9612
31.881
41.7863
46.643
42.4681
42.2762
49.9638
47.1685
42.1069
51.4219
50.2317
41.6517
51.9176
51.5198
40.9877
40.5167
41.9097
51.9572
51.9397
39.7221
44.9264
40.7024
48.6266
52.1616
51.8988
40.2008
39.4707
41.9329
39.3193
50.9614
44.2727
45.8054
41.6103
40.1773
38.9421
41.6443
41.1439
53.994
55.5738
48.8004
43.3114
42.074
39.2448
41.6798
41.6702
42.2387
43.511
44.471
51.9519
52.1228
50.3316
44.5456
43.6643
39.5419
41.4821
41.6634
41.9034
40.1009
41.9618
52.3588
51.8311
39.8402
41.1433
41.4476
41.3456
35.6292
37.8603
40.9863
53.4871
53.0263
40.1832
40.4573
41.0872
40.569
31.8409
33.1851
36.0779
45.3946
45.3659
45.6925
46.8308
42.5773
45.4056
55.5424
51.4197
44.9029
50.0888
54.5582
44.591
45.3392
42.2333
45.8312
44.6242
46.7814
45.9767
52.2076
53.8377
48.6049
54.3777
53.2856
54.6813
54.466
48.4227
42.1469
43.3512
42.2144
42.9968
41.3024
44.5414
43.11
51.7688
51.9866
51.0393
53.3554
53.3389
53.2335
53.3675
50.8739
37.9823
39.9843
41.8449
39.093
36.7546
41.1852
39.2189
52.9549
52.4396
33.2864
35.4919
41.3049
42.8826
34.15
32.4441
36.6344
34.2811
43.8133
53.6545
53.5458
40.5692
40.5716
31.7859
40.5141
42.725
32.2779
63.1807
32.368
32.233
42.366
38.5881
41.0408
39.9139
41.1629
44.526
42.1902
59.0187
48.9952
42.1849
45.4343
45.8913
46.2756
50.8947
45.3493
44.7828
49.2431
45.5484
45.215
45.0238
53.9867
53.761
45.8657
44.7635
41.35
51.0347
44.4814
51.0398
43.7286
49.3721
44.2903
44.94
42.861
51.8005
53.4873
53.6155
53.3453
53.4642
51.7436
39.5984
48.1363
41.0065
40.8783
40.557
42.1986
43.4904
41.1428
40.9572
59.9473
48.2456
58.5318
47.3745
57.2186
47.2465
55.1741
55.2711
51.8762
51.8905
42.2406
45.2819
52.1318
42.9279
42.8675
46.5425
43.125
52.0613
36.8652
40.7545
40.3919
46.9478
45.8937
47.6123
32.4672
38.4758
37.9606
39.1385
38.6491
32.5611
54.4255
51.4908
46.3826
51.6619
53.1186
48.4254
51.367
46.5737
43.9202
48.8135
43.7973
52.9006
49.6141
44.3432
52.0158
54.458
54.3479
54.0875
45.3024
42.5118
45.2139
46.5014
45.3154
48.0078
42.7902
44.9667
46.3813
52.941
53.0573
53.8243
52.561
52.0793
53.0251
52.6948
53.7467
55.0107
50.9571
50.054
51.8903
51.2179
54.9959
42.2156
42.104
43.9275
43.8363
52.2294
46.7588
52.2007
38.1705
37.9918
40.2288
40.0991
42.9924
44.6118
52.6681
42.6495
42.115
34.571
39.7384
39.2934
40.2672
39.8769
34.698
39.6977
33.4748
33.3745
35.7876
35.6627
50.0166
39.9967
48.3218
47.2972
37.7939
36.917
33.0206
35.7747
39.4463
42.906
31.9346
56.2898
43.76
54.0517
31.8993
41.3276
46.8112
40.6836
56.083
40.8704
41.9821
40.4126
39.3561
40.3271
38.2632
32.0989
40.3329
50.133
51.4748
52.0514
52.6352
42.5477
44.9409
49.5974
48.651
40.1416
54.0603
54.0359
45.4049
42.5122
41.9757
43.9576
46.951
42.5354
42.6359
54.5209
57.0908
56.4244
55.535
51.8519
46.7497
46.8259
49.6039
48.9395
51.9427
40.9679
42.3056
42.0539
42.6198
42.3867
41.1212
41.1992
40.8699
36.9936
32.0566
35.1494
34.778
58.1366
44.0622
45.0051
55.2289
57.8038
57.3
52.3953
48.0982
46.676
49.7078
48.5347
52.775
52.496
50.5894
49.8834
53.4548
42.6804
42.9026
42.6936
38.2286
38.6438
41.6492
46.811
46.6559
52.0776
53.3332
53.5274
53.4941
53.0444
53.3163
53.1127
53.4732
53.3666
53.0325
39.0031
41.6016
41.3036
41.9671
41.6963
39.1459
38.7162
34.802
35.0838
33.6713
33.7801
37.1597
40.7945
37.5059
38.0875
35.1852
35.5097
39.5967
52.7402
44.8733
47.1274
52.0269
40.9147
33.8421
32.7599
36.274
33.4636
33.6287
33.0982
34.94
47.9593
38.0349
36.0622
35.0244
34.6583
34.2852
31.6772
40.2122
38.617
43.7538
32.3876
66.2604
40.3665
39.26
43.9051
32.1568
32.1325
55.988
55.2001
54.6126
46.9593
46.901
40.4689
40.6589
49.709
49.6842
49.2519
46.9443
55.781
47.4392
57.1042
47.9754
44.6908
42.4584
43.5908
46.1584
47.9954
47.7341
43.8114
39.8706
48.5532
52.4754
43.7095
47.2417
54.2584
40.6021
42.7488
39.1744
40.1147
52.4742
60.4766
55.0643
52.4502
57.5381
55.7593
51.4794
48.435
53.9634
55.1409
54.7688
54.7163
55.4883
56.1788
55.3894
47.5696
46.8665
51.8481
48.0433
48.4808
46.6623
47.8263
48.5326
51.9185
48.691
47.8404
42.9686
43.3643
42.6202
48.0803
47.4062
44.6573
46.4696
45.9847
47.1377
46.6354
44.1602
43.938
40.9523
40.5291
35.7392
35.269
32.1397
32.8204
36.2536
35.8751
53.3163
52.8611
52.4999
49.1041
49.2962
48.3455
48.9652
52.7547
49.93
49.0823
48.7614
49.2861
49.1469
50.3853
51.9861
47.2373
48.1032
54.2315
54.4021
57.8336
57.6447
55.0318
58.552
58.8886
58.6386
58.4183
57.9823
59.0019
58.6113
53.0911
57.3885
57.9122
41.464
45.2789
44.3376
46.0473
45.5053
41.7227
43.3387
42.8376
44.0811
43.5099
46.406
48.0167
47.54
48.6218
48.1718
46.7933
43.6856
46.7202
46.2166
47.3779
46.8862
43.991
51.524
50.827
52.6016
53.3613
52.4841
51.7354
38.1979
37.7768
38.8537
38.3454
37.0981
36.7178
37.6391
37.2301
42.0214
41.5269
42.6751
42.1855
40.5055
39.1134
41.3604
40.7946
45.4195
45.3498
45.8642
45.5289
47.1058
45.5267
46.343
45.3567
45.3674
34.4151
34.7112
38.5896
34.0932
33.8462
34.3911
34.1712
33.7754
37.3395
33.8189
34.2825
36.154
37.1288
40.6434
35.8153
35.1769
36.5924
36.1237
34.7332
34.4723
35.0884
34.8226
39.7221
35.6243
35.9997
47.9616
42.1913
47.8094
45.8674
47.6497
42.1113
52.5765
40.4656
52.2064
49.6777
33.7506
32.9187
33.235
33.4045
36.1529
35.1869
33.0907
33.1878
49.6949
31.6862
34.1344
33.2142
61.3836
63.5842
32.4839
62.0428
55.6522
40.9612
32.0889
56.5639
47.0481
62.4363
48.4583
32.1461
41.6121
39.7254
38.5848
49.6022
49.1902
50.9498
45.8178
45.4953
48.9723
40.0351
42.8884
40.7472
53.636
53.8412
51.9752
44.2352
43.4996
47.0167
54.1665
44.37
44.4512
40.6129
41.0379
43.1216
49.6224
53.8237
55.7229
43.9543
43.351
43.2041
43.5064
43.3939
44.0898
42.2212
41.3187
42.9879
47.4177
48.303
53.232
36.7416
36.3761
32.9113
56.2277
57.0953
52.6953
43.1491
42.9679
42.8528
42.6603
39.9341
40.4458
40.6951
41.6923
43.4451
33.7633
37.2641
36.8654
46.9007
45.7254
42.1174
32.5213
32.4896
32.5302
44.9351
49.9698
48.4036
39.8585
43.2126
42.5009
32.3045
32.2981
32.5798
32.5589
32.1985
58.3607
46.8373
43.6948
44.6804
49.8726
40.9056
40.8209
45.9024
50.5644
46.172
44.6226
47.0517
43.9896
41.9522
41.0498
54.0045
54.223
54.8437
51.4992
53.405
42.0304
42.4107
45.7813
59.0942
57.2432
56.4176
60.8812
60.2086
42.4214
44.4179
43.7736
46.7849
46.6755
44.4446
48.7654
48.2696
42.6203
46.1542
43.7369
43.9552
46.1074
42.0703
42.8077
54.1296
54.9571
51.9434
51.9483
51.2493
51.0806
48.8326
49.318
49.018
50.9003
50.7087
51.0595
45.9802
46.943
51.6306
53.141
56.3205
54.9477
55.4824
55.8932
54.4799
40.9022
41.8588
41.6183
44.5169
44.2688
42.2405
39.8773
39.6639
41.3571
41.0896
45.6781
47.1273
46.8558
48.742
48.4738
47.5961
43.078
45.0198
44.7665
46.5858
46.3183
44.6285
39.3549
39.7862
42.5503
41.7629
38.7846
39.2122
42.5926
43.0425
44.1975
38.3166
38.1423
39.4633
39.263
37.1654
37.973
37.8088
43.5469
41.9279
42.4399
47.0858
47.1657
44.2617
44.6298
46.8828
47.1877
47.3428
52.1038
46.6711
46.9816
37.7812
37.4006
34.0037
35.0374
38.2258
37.8961
32.592
32.6602
33.5691
33.2588
32.4633
32.5256
50.2979
32.1472
31.9534
32.1124
103.503
33.6766
40.4387
54.0114
50.8911
32.4967
32.5078
31.9781
57.0874
58.3746
58.2256
51.8021
31.8836
32.4758
32.4838
43.5183
38.9846
39.0788
49.0023
49.6901
45.3687
44.4873
41.5302
55.1904
55.7206
57.2154
43.2376
47.9655
46.6002
48.4024
48.3792
44.0207
43.6177
44.1993
52.1798
53.8284
54.0566
53.3221
53.5884
56.876
56.3171
56.5043
55.9316
56.1259
56.6394
49.4196
48.9096
49.1155
48.6491
48.7436
49.2042
57.6349
56.9643
57.0143
56.6848
56.8458
57.483
50.3067
49.8105
50.0567
49.34
49.5719
50.1181
52.8349
53.0588
52.3779
52.581
34.8922
36.275
36.1641
33.7083
34.17
34.0704
34.4023
34.2783
33.7449
51.2796
51.2938
48.9722
50.6744
32.9262
32.9272
32.9343
32.9292
32.9724
32.6301
32.4736
32.4897
33.5227
33.7942
33.7053
33.9764
33.8848
33.5788
32.9558
32.9413
33.0102
32.9944
33.3022
50.6483
50.4815
46.2515
51.1235
32.9606
32.148
41.5339
31.7009
32.2056
32.1327
32.3271
66.4939
65.917
64.4311
65.3504
61.5873
32.5522
32.5764
32.2282
32.163
57.8052
58.9588
57.6302
56.783
55.7151
53.1073
58.202
56.8484
47.0336
46.9726
49.8624
45.8166
47.3336
50.1175
48.6416
54.3771
49.7844
51.6593
56.7376
57.3584
53.4185
55.9783
58.3759
47.4891
48.338
47.95
50.2205
53.3749
53.6051
51.9481
44.8133
50.9631
48.9179
53.6365
52.9824
46.0253
48.0019
49.5401
54.7626
50.7577
45.4349
46.6196
59.0753
57.9401
59.6003
56.8735
58.5178
59.4408
59.8556
59.4772
54.8821
54.6371
54.8645
54.26
54.4159
54.6961
55.9152
55.5185
55.7289
55.0858
55.3041
55.6605
47.3071
48.5267
48.618
48.2065
48.3712
47.0326
47.9285
47.8132
47.5095
48.7583
49.0493
48.3537
48.6908
48.6431
48.6935
48.7231
48.1036
46.3602
45.3156
42.6567
47.1705
47.385
47.2244
43.8477
46.8349
46.8194
43.5001
43.5974
45.3388
53.749
52.3981
50.0249
49.6535
49.1883
50.7395
50.5069
50.2894
56.5754
56.5028
53.8684
57.7817
58.0686
54.4709
56.2601
56.5077
57.7346
56.9159
56.8748
56.976
56.9437
57.6613
58.6665
58.7467
58.3297
59.9269
59.932
59.647
59.8242
58.2156
59.0796
59.9414
60.2437
59.1157
43.3756
42.8044
41.2132
41.9804
44.0177
43.7406
40.335
40.1014
40.8296
40.578
47.6654
47.3963
46.037
47.1911
48.2056
47.9359
45.5367
45.2774
43.3781
44.302
46.0542
45.7947
51.2973
50.8246
51.091
50.3063
50.5618
51.0235
52.2289
51.8813
52.1041
51.3623
51.6305
52.0018
38.0548
36.7729
36.9124
36.4989
36.6359
37.9152
38.6639
37.3642
37.5247
37.0565
37.2068
38.4992
36.9688
35.7242
35.8421
35.4975
35.6101
36.8424
37.5019
36.2261
36.3621
35.9648
36.093
37.365
38.6807
38.496
41.8569
40.348
40.5237
40.0006
40.1736
41.6921
39.0642
38.87
37.3501
37.228
40.0644
38.5551
39.0038
37.6832
37.8393
39.5127
41.19
39.6555
39.8283
39.2779
39.4778
41.0082
37.65
37.4967
46.3425
46.8156
46.9344
45.0662
45.6426
45.7637
47.5737
47.4626
47.7612
47.6932
46.043
45.331
46.1715
45.6748
47.2097
46.7976
45.3126
34.5206
35.8109
35.6592
36.0526
35.9369
34.6176
34.01
33.926
34.3145
34.2442
33.7491
33.9026
33.8764
34.8101
34.565
35.4517
35.1435
34.0925
35.3691
35.0726
35.0084
35.2677
36.4628
35.2757
35.3858
35.0723
35.1705
36.3182
34.6443
34.5571
35.0003
34.9117
47.7368
43.2409
43.8603
42.2179
42.6905
47.1905
46.8148
47.3549
44.5945
45.6237
47.5494
52.2897
46.102
47.3568
43.8491
44.9598
51.6204
32.8721
32.8331
32.9203
32.903
32.3839
32.4097
33.1126
32.7165
32.7317
32.7914
32.7512
33.2887
33.4526
33.374
33.6185
33.5342
33.3459
33.1201
33.1615
33.0906
33.2992
33.2287
33.1482
50.3395
32.0561
31.961
31.7716
59.7611
77.7836
79.0205
71.7897
73.9855
61.6013
32.7748
59.6827
51.6362
53.2615
32.029
32.5134
32.5287
56.9896
59.5326
59.9651
54.993
57.2732
62.3548
59.9009
50.0585
57.5861
55.3969
32.7746
32.5273
31.9287
36.6724
36.6926
36.8037
36.7013
36.7356
36.8252
36.7498
36.8005
36.8585
36.8192
36.8771
36.8997
36.8947
36.937
36.9358
36.946
36.9567
36.9499
36.9544
36.9315
36.9354
36.9188
36.8702
36.9011
36.8525
36.7989
36.8625
36.7826
36.7391
36.8305
36.5242
36.5674
36.6582
36.5862
36.6594
36.7108
36.6894
36.7885
36.7894
36.8213
36.9129
36.8793
36.9394
37.0007
36.945
37.0135
37.0267
36.9663
37.0226
36.9868
36.9384
36.968
36.8956
36.8699
36.8675
36.776
36.7856
36.7444
36.657
36.7137
36.3982
36.4841
36.5421
36.5216
36.6564
36.6519
36.7045
36.8556
36.7973
36.907
37.0543
36.9357
37.098
37.1983
37.0335
37.2182
37.231
37.0612
37.2205
37.1528
37.0151
37.1207
37.0047
36.9134
36.9605
36.823
36.7819
36.7773
36.6443
36.6463
36.3055
36.4533
36.4707
36.513
36.7096
36.6647
36.7829
37.0283
36.8877
37.1174
37.3963
37.1156
37.487
37.7036
37.2843
37.743
37.736
37.3185
37.6973
37.5268
37.2212
37.4594
37.2424
37.0496
37.1693
36.9545
36.8471
36.8857
36.6914
36.6509
36.2501
36.465
36.4535
36.5451
36.8284
36.7334
36.94
37.3452
37.092
37.5106
38.1399
37.5324
38.3998
39.166
37.9277
39.2405
39.0514
37.9523
38.8695
38.2968
37.6727
38.1253
37.6771
37.3302
37.5454
37.191
37.0031
37.0847
36.7978
36.7122
36.2228
36.4991
36.4717
36.6055
36.9954
36.8669
37.1559
37.7881
37.4481
38.0782
39.6902
38.429
39.1982
39.9057
38.9447
40.7103
40.6813
39.5772
40.0212
39.5785
39.0926
39.2928
38.3538
37.8238
38.1171
37.5383
37.2677
37.3773
36.9633
36.8338
36.2104
36.547
36.5101
36.6805
37.1726
37.0405
37.377
38.1999
37.9011
38.3564
38.792
38.6212
40.7166
41.3909
41.0665
43.7293
42.1024
41.042
40.8228
39.2136
38.5572
38.8388
37.9733
37.6409
37.7445
37.1763
37.0131
36.2046
36.5991
36.5599
36.757
37.3321
37.2144
37.5682
38.5055
38.2847
38.7778
39.2999
39.1947
42.0087
42.9467
42.8264
47.4929
44.8191
43.8745
42.2564
40.0853
39.4375
39.5816
38.4351
38.0889
38.1375
37.4111
37.2341
36.2026
36.652
36.6122
36.8318
37.4771
37.3691
37.7384
38.7657
38.5721
39.0952
39.6732
39.5839
42.2682
43.0697
43.1414
49.725
46.6377
46.0827
43.3629
40.8382
40.2874
40.239
38.8653
38.5472
38.5083
37.6407
37.4698
36.2047
36.7073
36.6655
36.9076
37.6214
37.5127
37.9082
39.0313
38.8304
39.3933
39.9961
39.9213
42.012
42.3449
42.518
50.7049
47.5597
47.2927
44.125
41.4207
41.001
40.7605
39.2262
38.9631
38.824
37.8431
37.6944
36.2107
36.7663
36.7217
36.9867
37.7749
37.6587
38.0919
39.3197
39.1014
39.6938
40.381
40.201
41.5054
41.2071
41.4545
50.9507
48.6131
48.5086
44.5923
41.8237
41.5382
41.1313
39.498
39.3029
39.0654
38.0031
37.8874
36.2358
36.8512
36.7816
37.0941
37.9732
37.815
38.3299
39.675
39.3948
39.9896
40.6572
40.5691
40.7842
39.5238
39.8978
43.454
50.8256
49.893
50.4915
46.0115
45.8902
44.818
42.0588
41.8975
41.355
39.676
39.5511
39.2265
38.1124
38.0351
36.2392
36.9104
36.8679
37.1727
38.1309
38.0153
38.5209
39.9341
39.7488
40.3218
40.7743
40.8153
39.0266
35.5747
36.558
49.2791
53.5874
54.0116
50.0394
45.9228
46.0224
44.7952
42.134
42.0937
41.4414
39.7638
39.7065
39.3098
38.1705
38.1314
36.2285
36.9485
36.9225
37.2319
38.256
38.166
38.6676
40.0122
39.9772
40.3079
36.1531
38.6306
29.4426
42.4579
42.9381
48.5676
50.2863
51.1986
49.1447
45.6038
45.8673
44.5837
42.0823
42.1299
41.4112
39.7664
39.7706
39.3158
38.1726
38.1752
36.1991
36.9543
36.9533
37.2519
38.3147
38.2802
38.7214
39.7933
39.9821
39.8245
32.8083
35.2984
25.4333
41.4458
42.2264
46.9789
49.0693
49.9765
48.1517
45.0944
45.4863
44.1836
41.9009
42.052
41.2728
39.6983
39.7578
39.2583
38.1245
38.166
36.1493
36.9254
36.9503
37.2291
38.2805
38.3141
38.6539
39.3733
39.7037
39.0991
29.7879
32.0168
22.4517
40.3399
41.1715
45.4978
47.9362
48.7775
47.2067
44.5438
44.9575
43.7224
41.6249
41.8375
41.0379
39.545
39.6663
39.1213
38.0155
38.1021
36.0801
36.8655
36.9131
37.1691
38.1743
38.2599
38.4988
38.8203
39.2458
38.2139
27.1826
29.0971
20.297
39.2508
40.0642
44.1334
46.8903
47.667
46.3291
44.0054
44.4071
43.2584
41.316
41.5494
40.7644
39.3459
39.4983
38.9389
37.8673
37.9813
35.9945
36.7801
36.8463
37.0785
38.0138
38.1386
38.2807
38.1727
38.6659
37.2452
24.9812
26.5959
18.7379
38.21
38.9855
42.8756
45.9224
46.6414
45.5099
43.4947
43.8749
42.8116
41.001
41.2372
40.4796
39.1258
39.2922
38.7339
37.6964
37.8262
35.8954
36.6742
36.7554
36.9633
37.8122
37.9668
38.0157
37.4682
38.0003
36.2567
23.1354
24.4885
17.5958
37.2245
37.9584
41.7114
45.0225
45.6914
44.7413
43.012
43.3716
42.3871
40.6912
40.9228
40.1958
38.8978
39.0692
38.5194
37.5132
37.6514
35.7857
36.5516
36.645
36.8282
37.5783
37.7564
37.7142
36.7418
37.2876
35.2804
21.5901
22.723
16.7451
36.2931
36.9867
40.6289
44.181
44.807
44.0171
42.5515
42.895
41.9824
40.3915
40.6153
39.9188
38.6692
38.8405
38.3024
37.3241
37.4663
35.6675
36.4154
36.5188
36.6768
37.3182
37.5156
37.3826
36.0141
36.5595
34.3359
20.2942
21.2446
16.0998
35.4125
36.0684
39.6182
43.3895
43.9788
43.3316
42.1086
42.4393
41.5931
40.1027
40.3183
39.6505
38.4435
38.6124
38.0869
37.1331
37.2764
35.5426
36.2678
36.3795
36.5115
37.0355
37.2495
37.028
35.2968
35.8335
33.4351
19.2039
20.0039
15.601
34.5789
35.1999
38.6708
42.6409
43.1986
42.6797
41.6806
42.0003
41.216
39.8233
40.0321
39.3908
38.2227
38.3878
37.875
36.9427
37.0854
35.4123
36.1102
36.2293
36.334
36.735
36.9618
36.6586
34.5981
35.1201
32.5843
18.2829
18.959
15.2084
33.7888
34.3774
37.7798
41.9297
42.4598
42.0571
41.266
41.5758
40.8495
39.5515
39.7547
39.1382
38.0072
38.1683
37.6677
36.7545
36.8954
35.2777
35.9435
36.0693
36.1451
36.4218
36.6576
36.2807
33.9233
34.427
31.7859
17.5018
18.0755
14.8938
33.0391
33.5977
36.9394
41.2512
41.7571
41.4603
40.8634
41.1643
40.4924
39.2859
39.4846
38.8916
37.7967
37.9541
37.4651
36.5692
36.7079
35.1394
35.7683
35.9004
35.9462
36.1007
36.3422
35.8987
33.2755
33.7587
31.0397
16.837
17.3256
14.638
32.3274
32.8577
36.1448
40.6021
41.0863
40.8865
40.4716
40.7645
40.1439
39.0255
39.2203
38.6499
37.591
37.7449
37.2668
36.3873
36.5235
34.9976
35.5856
35.7233
35.7387
35.7749
36.0196
35.5158
32.6564
33.1181
30.3436
16.2691
16.6866
14.4272
31.6513
32.1551
35.392
39.9793
40.444
40.3333
40.0894
40.3752
39.8029
38.7698
38.9612
38.4126
37.3893
37.5402
37.0726
36.2086
36.3423
34.8526
35.3964
35.5389
35.5245
35.4468
35.693
35.1342
32.0662
32.5061
29.6945
15.7829
16.1404
14.2518
31.009
31.4877
34.6778
39.3805
39.8274
39.7989
39.7159
39.9952
39.4689
38.5182
38.7065
38.179
37.1912
37.3394
36.882
36.0332
36.1645
34.7045
35.2019
35.3482
35.3051
35.1182
35.3647
34.7554
31.5042
31.9231
29.089
15.3659
15.6726
14.1051
30.3987
30.8535
33.9995
38.8039
39.2344
39.2818
39.3505
39.6238
39.1412
38.2703
38.4559
37.9489
36.9963
37.1422
36.6946
35.8608
35.9898
34.5537
35.0032
35.1526
35.0818
34.7904
35.0362
34.3808
30.9695
31.3681
28.5231
15.0078
15.2712
13.9821
29.8188
30.2509
33.3546
38.2479
38.663
38.7808
38.9923
39.2603
38.8192
38.0257
38.2088
37.7218
36.8044
36.9481
36.5101
35.6912
35.8181
34.4003
34.8011
34.9529
34.8557
34.4644
34.7087
34.0112
30.4605
30.8399
27.9931
14.7004
14.9265
13.8795
29.2681
29.6784
32.7412
37.7113
38.112
38.295
38.6411
38.9039
38.5026
37.7842
37.9651
37.4975
36.615
36.7568
36.3282
35.5242
35.6492
34.2447
34.5966
34.7502
34.6277
34.141
34.3833
33.6472
29.9754
30.3371
27.4952
14.4369
14.6307
13.7948
28.7454
29.1348
32.1576
37.193
37.5801
37.8235
38.2964
38.5544
38.1911
37.5456
37.7243
37.2757
36.4279
36.568
36.1487
35.3596
35.4828
34.0872
34.3902
34.5452
34.3984
33.8207
34.0606
33.2892
29.5125
29.8577
27.0261
14.2114
14.3771
13.7263
28.2496
28.6189
31.6025
36.6923
37.0662
37.3658
37.958
38.2113
37.8845
37.3095
37.4863
37.0562
36.2429
36.3814
35.9713
35.1973
35.3188
33.9281
34.1826
34.3384
34.1685
33.504
33.7412
32.9374
29.0698
29.4
26.5823
14.0194
14.1605
13.6728
27.7798
28.1297
31.0745
36.2085
36.5698
36.9214
37.6257
37.8744
37.5826
37.076
37.2509
36.839
36.0599
36.197
35.7959
35.0371
35.1571
33.7678
33.9741
34.1305
33.9384
33.191
33.4254
32.5918
28.6455
28.9621
26.1609
13.8567
13.9761
13.6335
27.3354
27.6664
30.5728
35.7411
36.0901
36.49
37.2995
37.5436
37.2853
36.845
37.018
36.6239
35.8787
36.0144
35.6224
34.8789
34.9974
33.6162
33.7766
33.922
33.7202
32.8939
33.1134
32.2639
28.245
28.5421
25.7643
13.7204
13.8203
13.608
26.9205
27.2282
30.1035
35.3018
35.6268
36.0842
36.9926
37.2189
37.006
36.6288
36.7877
36.423
35.7105
35.8338
35.4616
34.733
34.8397
42.696
42.551
41.659
46.0871
47.5385
48.6432
42.7803
43.4706
43.0682
43.161
43.2003
42.2739
49.666
51.6771
52.0541
48.9761
49.8622
47.6644
42.5724
42.7255
42.1479
51.3112
52.8372
52.8905
52.1602
52.4267
50.4716
41.5327
41.756
41.7194
51.8864
52.8397
52.8583
52.6218
52.68
51.6042
40.0163
40.354
41.1307
40.3616
39.4646
39.5162
44.5596
44.156
41.5714
51.9768
53.8809
53.9814
52.8718
52.8845
51.9574
36.8228
37.4677
39.9773
44.0793
38.5907
38.7684
40.2362
39.3153
40.4742
51.758
51.5583
46.7277
51.7388
54.0488
53.943
54.0081
54.0513
51.769
41.8555
40.2876
39.4239
52.405
49.9238
55.652
39.1786
40.1449
40.6194
53.3494
53.2462
41.449
41.6789
42.1913
39.4952
40.5834
40.2524
50.4934
51.4878
52.1152
44.9564
46.1385
45.2436
43.5371
42.4641
44.2728
41.1328
41.9197
42.4974
40.7632
41.3351
40.6506
39.4922
39.398
38.8621
41.5007
39.9183
40.089
39.6739
39.8601
41.4217
54.1597
53.6008
53.3478
56.1587
56.0628
55.5797
45.8645
45.1029
47.8536
42.9283
44.0684
44.5172
43.0548
43.5808
42.5154
39.8425
39.7596
39.1702
41.7062
40.3331
40.4452
40.1425
40.2893
41.7063
42.9407
43.0412
42.2566
43.6659
43.6669
43.5604
44.2164
44.1339
44.3478
51.906
50.3491
50.4021
50.6108
50.4854
52.0474
47.1814
46.7954
49.9034
44.281
45.6168
45.9037
44.9246
45.2913
43.9878
40.1355
40.0673
39.4675
41.5719
40.5855
40.6511
40.4778
40.5602
41.5979
42.0955
42.2844
41.9592
40.4549
41.5913
41.4407
42.446
42.3059
41.7678
52.2815
50.3236
50.4805
48.0898
48.5465
51.9017
40.5379
40.429
39.7673
41.2937
40.7262
40.7847
40.672
40.7081
41.3359
40.8519
41.1206
41.4297
36.2079
38.7134
38.6856
39.9108
39.7243
37.4928
40.0649
40.1643
41.5138
53.2985
48.5931
49.441
51.8096
51.948
53.0974
40.7947
40.6863
40.0812
40.8429
40.8743
40.9267
40.8032
40.857
40.9084
38.9886
39.3928
40.7323
31.9058
32.5172
32.4294
34.4126
34.2984
33.0929
28.0409
30.8419
37.8005
45.1319
41.5113
36.9927
38.7106
38.7269
44.535
45.9445
47.7657
46.9658
48.2342
48.4197
46.8213
42.9976
43.4734
42.9395
46.5531
46.1381
45.0834
55.4821
56.2939
56.2391
52.6801
53.1818
51.8651
45.8405
47.137
45.5042
50.7778
49.383
48.7717
52.1751
51.7936
53.9883
44.9353
43.627
43.5391
43.7647
43.6551
45.0424
42.2639
43.1982
43.0423
45.6813
45.768
46.1902
43.7761
44.2176
44.875
46.7056
47.8257
48.1429
46.3245
46.7212
46.1176
52.2982
50.9002
50.7513
53.1026
52.8807
53.692
51.0127
51.5312
49.1093
54.1317
54.0379
53.9318
54.3087
54.3063
53.4627
54.9213
52.8237
52.5178
53.8882
53.76
54.7447
47.8564
50.1241
50.8157
42.3274
42.7146
42.5819
43.4497
43.3352
43.1881
42.184
42.7728
42.9022
42.883
42.3725
42.5123
40.5489
40.6806
41.4193
44.2839
43.1907
43.6306
42.6599
42.8135
43.2253
51.7154
47.5081
47.9461
50.4464
50.4862
52.021
52.7143
52.814
51.184
53.3443
54.1644
54.1911
53.5266
53.5302
53.3348
53.1148
54.2989
54.3058
54.2179
54.244
53.0089
50.6856
52.498
52.6715
38.3709
40.2746
40.0939
41.2871
41.1307
39.6357
41.7837
41.8269
42.0304
38.9672
37.7918
37.9174
35.3417
35.4549
36.8782
41.0628
40.2738
40.4147
38.0435
38.1699
39.345
52.8836
51.5254
51.6684
50.6432
50.7912
52.5187
33.406
34.6747
34.5351
38.6121
38.3294
35.1466
41.1749
40.4599
40.7581
34.0388
33.0209
33.1142
36.5148
35.1262
35.2333
33.2196
33.3482
34.4515
53.5431
50.7456
51.457
49.7158
50.4964
53.7086
40.2499
40.0514
40.0307
44.0958
31.82
31.7736
32.3501
32.2765
31.7391
40.2222
38.1324
38.8525
40.364
40.6402
43.0748
63.1771
62.1191
67.4014
42.0174
39.8682
40.102
39.0778
38.9446
38.4784
40.6594
39.3745
39.607
39.0007
39.2877
40.5001
41.9592
41.6926
40.9516
43.6606
42.3208
42.7878
41.7686
42.1524
43.3141
50.9268
53.3593
51.1158
43.0482
43.0239
42.108
45.6906
43.8391
43.7892
43.6801
43.835
45.7616
48.3791
47.6339
50.7705
45.1824
46.5657
46.7343
46.1552
46.3752
44.9941
45.2191
40.9324
41.5403
43.128
43.4011
45.4529
51.7225
51.0972
43.8514
53.9228
52.8728
53.0584
51.6654
52.6693
53.8465
45.5117
43.3595
43.609
42.9206
43.265
45.3506
41.5147
42.384
42.1885
45.1239