/*--------------------------------*- C++ -*----------------------------------*\
| =========                 |                                                 |
| \\      /  F ield         | OpenFOAM: The Open Source CFD Toolbox           |
|  \\    /   O peration     | Version:  v1912                                 |
|   \\  /    A nd           | Website:  www.openfoam.com                      |
|    \\/     M anipulation  |                                                 |
\*---------------------------------------------------------------------------*/
FoamFile
{
    version     2.0;
    format      ascii;
    class       volScalarField;
    location    "1000";
    object      nut;
}
// * * * * * * * * * * * * * * * * * * * * * * * * * * * * * * * * * * * * * //

dimensions      [0 2 -1 0 0 0 0];


internalField   nonuniform List<scalar> 
12556
(
1.15562
1.15558
1.15553
1.15552
1.15589
1.15591
1.15593
1.15597
1.15603
1.15615
1.15633
1.15652
1.15666
1.15667
1.15656
1.15638
1.15621
1.15608
1.15599
1.15595
1.15555
1.15554
1.15558
1.15562
1.15486
1.15476
1.15466
1.15463
1.15492
1.15501
1.1551
1.15537
1.15557
1.15592
1.15642
1.15699
1.15741
1.15748
1.15719
1.15668
1.15616
1.15576
1.15533
1.15513
1.15473
1.1547
1.15478
1.15487
1.15407
1.15391
1.15377
1.15375
1.15399
1.15414
1.15435
1.1547
1.15521
1.15604
1.15721
1.13
1.03491
1.0318
1.11091
1.15772
1.15656
1.15562
1.15488
1.15443
1.15396
1.15388
1.15397
1.15411
1.15326
1.15305
1.15288
1.15287
1.15309
1.15333
1.15372
1.15428
1.15535
1.15709
0.960794
0.78084
0.705485
0.716297
0.797519
0.948204
1.15788
1.15609
1.15477
1.15392
1.15327
1.1531
1.15317
1.15335
1.15244
1.15218
1.152
1.15201
1.15225
1.15262
1.15327
1.15423
1.15629
0.933963
0.656688
0.490234
0.420436
0.440933
0.528791
0.670316
0.882489
1.15748
1.15519
1.15368
1.15267
1.15235
1.15238
1.15257
1.15162
1.15132
1.15113
1.15118
1.15147
1.15202
1.15309
1.1547
1.09343
0.712879
0.449019
0.278426
0.208389
0.239875
0.333803
0.471245
0.662923
0.947058
1.15625
1.15377
1.1522
1.15164
1.15158
1.15177
1.1508
1.15047
1.15029
1.1504
1.15076
1.15156
1.15319
1.15569
0.947453
0.588657
0.330836
0.142313
0.0743525
0.11448
0.211727
0.342302
0.518164
0.770313
1.15317
1.15425
1.15187
1.15098
1.15078
1.15095
1.15
1.14966
1.14949
1.14968
1.15014
1.15125
1.15356
1.15701
0.887553
0.567356
0.329096
0.125514
0.0625483
0.154585
0.272078
0.432411
0.659
1.02769
1.15507
1.15168
1.1504
1.15002
1.15014
1.14925
1.14889
1.14876
1.14905
1.14963
1.15111
1.15417
1.15846
0.895664
0.633301
0.476508
0.372049
0.0708176
0.14526
0.247089
0.392367
0.597972
0.946251
1.15616
1.15166
1.14991
1.14931
1.14937
1.14855
1.14819
1.1481
1.1485
1.14924
1.15112
1.15493
1.15992
0.93258
0.722714
0.658972
0.707097
0.0959899
0.160069
0.252302
0.386572
0.576734
0.905333
1.1574
1.1518
1.14955
1.14872
1.1487
1.14793
1.14756
1.14752
1.14805
1.14897
1.15128
1.1558
1.16138
0.965744
0.77763
0.738075
0.605707
0.129769
0.189512
0.278493
0.407167
0.587227
0.899262
1.1587
1.15211
1.14936
1.14828
1.14818
1.14737
1.14701
1.14703
1.1477
1.1488
1.15156
1.15674
1.16283
0.98511
0.784047
0.698134
0.498881
0.165247
0.232018
0.324213
0.452269
0.626617
0.923919
1.16
1.15256
1.14933
1.14802
1.14784
1.14689
1.14654
1.14663
1.14745
1.14874
1.15194
1.15773
1.16426
1.00372
0.773375
0.615284
0.419076
0.0423427
0.212279
0.296463
0.397021
0.52611
0.696716
0.978682
1.16122
1.15308
1.14944
1.14792
1.14767
1.14647
1.14613
1.14628
1.14725
1.1488
1.15248
1.15886
1.16574
1.04622
0.794057
0.577658
0.217142
0.0976994
0.314624
0.411415
0.513553
0.638165
0.802492
1.06652
1.1623
1.15362
1.14964
1.14795
1.14764
1.14611
1.14577
1.14598
1.14709
1.14885
1.15291
1.15977
1.16688
1.15512
0.897495
0.676696
0.0425718
0.147375
0.504019
0.626328
0.698764
0.801717
0.950838
1.16716
1.16317
1.15412
1.14988
1.14806
1.14771
1.14578
1.14544
1.1457
1.14693
1.14889
1.15329
1.16054
1.16774
1.16681
1.10646
0.756554
0.0324571
0.16417
0.521055
0.814031
0.980048
1.03039
1.15531
1.16803
1.16379
1.15453
1.15012
1.1482
1.14782
1.14547
1.14513
1.14543
1.14676
1.14891
1.15359
1.16112
1.16825
1.16599
1.10828
0.629166
0.0293043
0.177807
0.532745
0.822755
1.0164
1.11503
1.15657
1.16842
1.16413
1.15482
1.15031
1.14833
1.14795
1.14518
1.14483
1.14515
1.14657
1.14888
1.15379
1.16149
1.1684
1.16414
1.08508
0.518723
0.0283407
0.189161
0.539407
0.82861
1.0188
1.11599
1.15701
1.16841
1.16419
1.15496
1.15043
1.14842
1.14804
1.14489
1.14453
1.14485
1.14633
1.14878
1.15387
1.16167
1.16821
1.1612
1.05615
0.436781
0.0284231
0.198757
0.541965
0.832419
1.01993
1.11611
1.15687
1.16809
1.16404
1.15498
1.15047
1.14846
1.14808
1.14459
1.14422
1.14454
1.14606
1.14861
1.15385
1.16167
1.16772
1.15714
1.02277
0.381992
0.0291146
0.206973
0.542845
0.834206
1.0202
1.11568
1.15632
1.16753
1.16371
1.15489
1.15045
1.14845
1.14806
1.14429
1.14392
1.14423
1.14577
1.14839
1.15374
1.16152
1.16696
1.15194
0.98542
0.345382
0.0302017
0.214087
0.543228
0.833561
1.01975
1.11485
1.1555
1.1668
1.16325
1.15473
1.15036
1.14838
1.14799
1.14399
1.14361
1.14391
1.14547
1.14814
1.15354
1.16123
1.16594
1.14558
0.943329
0.319191
0.0315625
0.220309
0.543324
0.830866
1.0185
1.11371
1.15448
1.16597
1.16271
1.15451
1.15022
1.14825
1.14786
1.14367
1.1433
1.1436
1.14517
1.14786
1.1533
1.16084
1.16469
1.13793
0.898512
0.299714
0.0331208
0.2258
0.543158
0.827093
1.01631
1.11228
1.15331
1.16507
1.16213
1.15425
1.15004
1.14809
1.14768
1.14335
1.14299
1.14329
1.14487
1.14759
1.15304
1.16038
1.16319
1.12856
0.856561
0.284928
0.0348258
0.230689
0.542757
0.82292
1.01322
1.1105
1.15201
1.16412
1.16151
1.15396
1.14984
1.14789
1.14746
1.14301
1.14267
1.14299
1.14458
1.14732
1.15276
1.15984
1.16139
1.11697
0.820345
0.273567
0.0366429
0.235082
0.54216
0.818636
1.00947
1.10839
1.15058
1.16315
1.16088
1.15365
1.1496
1.14766
1.14721
1.14268
1.14236
1.14269
1.1443
1.14705
1.15248
1.15925
1.15919
1.10311
0.789605
0.264776
0.0385486
0.239062
0.541411
0.814346
1.00531
1.10597
1.14904
1.16215
1.16025
1.15333
1.14935
1.14741
1.14693
1.14233
1.14204
1.14239
1.14403
1.1468
1.15219
1.15857
1.1565
1.08762
0.763318
0.25795
0.040527
0.242701
0.540552
0.810093
1.00092
1.1033
1.1474
1.16115
1.15962
1.153
1.14909
1.14715
1.14664
1.14198
1.14172
1.14209
1.14376
1.14655
1.1519
1.15779
1.15321
1.07135
0.740588
0.252651
0.0425683
0.246058
0.539621
0.805902
0.996404
1.10044
1.14567
1.16013
1.15898
1.15266
1.14882
1.14687
1.14633
1.14164
1.1414
1.1418
1.1435
1.14631
1.1516
1.15689
1.14929
1.05498
0.720739
0.248552
0.0446666
0.249185
0.538654
0.80179
0.991847
1.09742
1.14388
1.15911
1.15835
1.15232
1.14854
1.14658
1.14601
1.14129
1.14108
1.14151
1.14324
1.14607
1.15127
1.15584
1.14475
1.03893
0.703254
0.245402
0.0468196
0.252125
0.537682
0.797775
0.987294
1.0943
1.14202
1.15808
1.15773
1.15198
1.14826
1.14628
1.14568
1.14094
1.14077
1.14122
1.14299
1.14584
1.15093
1.15461
1.13965
1.02343
0.687736
0.243005
0.0490277
0.254917
0.536732
0.793871
0.982781
1.09111
1.14013
1.15704
1.15711
1.15164
1.14797
1.14598
1.14535
1.14059
1.14045
1.14094
1.14275
1.1456
1.15055
1.15319
1.13408
1.00859
0.673864
0.241205
0.0512932
0.257595
0.535828
0.790095
0.978332
1.08787
1.13819
1.15601
1.15649
1.1513
1.14768
1.14568
1.14501
1.14025
1.14014
1.14067
1.14251
1.14536
1.15014
1.15156
1.12811
0.994422
0.661378
0.239876
0.0536203
0.260189
0.534991
0.786461
0.973967
1.08461
1.13623
1.15496
1.15588
1.15096
1.1474
1.14539
1.14468
1.1399
1.13983
1.14039
1.14227
1.14513
1.14969
1.14972
1.12185
0.980932
0.650063
0.238914
0.0560141
0.262728
0.534242
0.782981
0.969704
1.08135
1.13424
1.15392
1.15527
1.15063
1.14711
1.14509
1.14435
1.13958
1.13954
1.14014
1.14205
1.14489
1.14919
1.14767
1.11536
0.968082
0.639736
0.238233
0.0584814
0.265238
0.533598
0.779668
0.965557
1.0781
1.13224
1.15287
1.15467
1.1503
1.14685
1.14481
1.14405
1.1393
1.13928
1.13992
1.14186
1.14466
1.14864
1.14544
1.10872
0.955833
0.630245
0.237759
0.0610301
0.267743
0.533077
0.776537
0.961543
1.07488
1.13023
1.15184
1.15409
1.15003
1.14662
1.14457
1.14378
0.313559
0.0625493
0.0535924
0.718525
0.0870592
0.0654401
0.618839
0.121656
0.0910511
0.512388
0.153383
0.127167
0.426241
0.0325432
0.0397952
0.189663
0.157386
0.261907
0.0645453
0.0339942
0.0929189
0.254172
0.192312
0.120582
0.0763366
0.0556119
0.1075
0.0326933
0.023191
0.068467
0.122971
0.130302
0.618869
0.798837
0.385908
0.0409805
0.0529736
0.0922798
0.136646
0.124512
0.73212
0.728729
0.804805
0.670446
0.204783
0.244718
0.0604121
0.046547
0.125422
0.164801
0.142637
0.712374
0.629747
0.716976
0.565964
0.114282
0.161024
0.0973984
0.0768842
0.632599
0.527254
0.616615
0.476969
0.0581378
0.0819818
0.0183034
0.138298
0.130609
0.575697
0.350271
0.513638
0.368496
0.0254669
0.0373849
0.0827961
0.0859304
0.068035
0.0967348
0.28785
0.0437807
0.085728
0.0515369
0.034223
0.0555836
0.0356444
0.0504325
0.250547
0.295794
0.724523
0.217
0.189266
0.277566
0.223143
0.0461489
0.040965
0.0766966
0.0529891
0.0581548
0.0516467
0.0530103
0.0751951
0.165419
0.199152
0.657732
0.145162
0.116373
0.186591
0.147916
0.074359
0.0618655
0.108658
0.0811084
0.0981175
0.0587039
0.0791562
0.104009
0.0832922
0.112424
0.552634
0.0868144
0.0613873
0.11474
0.0880739
0.126524
0.10071
0.0378179
0.0568483
0.473003
0.0163967
0.0401811
0.0269158
0.0606232
0.0409634
0.0158677
0.143386
0.139918
0.0190764
0.00517866
0.0253621
0.361222
0.0490701
0.0186334
0.00912262
0.0267964
0.0190029
0.0467558
0.429465
0.332313
0.14792
0.169072
0.0964625
0.0522658
0.0126619
0.0105241
0.619606
0.303313
0.365435
0.0139953
0.158501
0.201683
0.173311
0.0136341
0.0507746
0.0457486
0.0613984
0.158089
0.146204
0.294471
0.108637
0.194523
0.0410576
0.016241
0.0287683
0.0265613
0.0339874
0.0541921
0.0436806
0.0302759
0.141973
0.126626
0.13591
0.1009
0.12308
0.138748
0.0225421
0.014716
0.0377927
0.0294926
0.0526686
0.0423768
0.023458
0.0374143
0.0281388
0.0109041
0.0265642
0.0219395
0.0123513
0.0197184
0.0250256
0.0493487
0.049972
0.0527099
0.0518575
0.0196783
0.0146087
0.0881383
0.0187887
0.0260579
0.0139614
0.0178462
0.0852425
0.0724997
0.241589
0.224565
0.0634855
0.0538052
0.0143599
0.0345992
0.156712
0.142487
0.177285
0.161913
0.0352325
0.0524972
0.0420901
0.147271
0.0649114
0.0766251
0.0411409
0.0640742
0.169489
0.0537928
0.0303061
0.0189178
0.0689597
0.0336436
0.0597298
0.0318402
0.0629797
0.042802
0.0420719
0.208462
0.0285041
0.20715
0.251161
0.0333841
0.0398564
0.0289379
0.0326742
0.243502
0.0442229
0.0439889
0.0551471
0.0724493
0.0678683
0.0790352
0.0742547
0.0554311
0.0604231
0.0605395
0.0555273
0.0661578
0.0618688
0.0596694
0.130203
0.128352
0.168916
0.16657
0.0731321
0.0138762
0.0716584
0.0778383
0.0757077
0.0994478
0.0977022
0.0272779
0.0383866
0.111168
0.0287951
0.0205247
0.0507791
0.198225
0.182452
0.219114
0.203407
0.0516175
0.0215112
0.0379745
0.0375542
0.0557084
0.054958
0.0076056
0.0265741
0.0775941
0.0668885
0.138307
0.112798
0.0118042
0.00731202
0.0215158
0.0169868
0.02604
0.0115277
0.0164943
0.0135974
0.0257243
0.039986
0.0150978
0.0186403
0.00500095
0.01909
0.0170973
0.633691
0.238243
0.335726
0.146489
0.00835206
0.00557796
0.142398
0.415619
0.286648
0.00683823
0.0164744
0.0148672
0.0929614
0.0813258
0.0279742
0.198918
0.164649
0.0642538
0.0119371
0.0209023
0.0163045
0.0105512
0.0156505
0.0111951
0.0426717
0.0275264
0.0254234
0.0516825
0.0563366
0.0224212
0.0258524
0.0166229
0.0163613
0.0482648
0.131717
0.336054
0.317485
0.36196
0.342424
0.136036
0.264484
0.247302
0.0736689
0.0265686
0.0698512
0.0652004
0.00965038
0.0146362
0.0717673
0.0482415
0.0301796
0.0282209
0.0416952
0.0478354
0.0436098
0.0540083
0.0492784
0.0431777
0.0451745
0.0179881
0.0168547
0.0419503
0.179007
0.388766
0.368573
0.0505985
0.0518779
0.121317
0.0267329
0.0287457
0.0659698
0.08778
0.107808
0.0998623
0.0645055
0.0870042
0.0810451
0.0968009
0.0894383
0.0654764
0.0981479
0.287774
0.270255
0.311453
0.293671
0.100313
0.0831825
0.0317587
0.0323142
0.0210388
0.022049
0.0647143
0.108859
0.0463632
0.0501053
0.0324907
0.03292
0.0919907
0.114865
0.0402214
0.0571023
0.00745571
0.0181881
0.039085
0.0297253
0.058487
0.0200245
0.0207622
0.0181147
0.0484101
0.0144032
0.0042576
0.0778695
0.0541703
0.0638958
0.0599559
0.0249072
0.0193142
0.0254626
0.0559039
0.0177503
0.00999182
0.0213581
0.0219514
0.00298375
0.0266258
0.0199621
0.0149577
0.00737368
0.0137813
0.0135469
0.0136068
0.0230458
0.0199607
0.00769093
0.0380402
0.0369345
0.0191299
0.0128507
0.00867963
0.0135155
0.0210115
0.014929
0.0167639
0.0351282
0.0143715
0.0128177
0.0146545
0.0159856
0.0267643
0.0144557
0.011318
0.0160614
0.0147664
0.0115477
0.01839
0.016578
0.0214408
0.0190892
0.013798
0.0177013
0.0251684
0.0216897
0.0323019
0.0267353
0.0209157
0.0186414
0.0152997
0.0226032
0.020524
0.0444684
0.0512432
0.0248043
0.0231949
0.0208292
0.0217487
0.0553416
0.015141
0.0160581
0.0178899
0.0152299
0.0166315
0.0491005
0.0172114
0.0204584
0.0171148
0.0163873
0.0215328
0.0522544
0.0461776
0.0156429
0.0379479
0.0336689
0.0440332
0.039426
0.0161175
0.0156537
0.0282421
0.0242399
0.0781646
0.0716583
0.0282049
0.0362865
0.0849157
0.0799409
0.0475265
0.0459389
0.0668718
0.111894
0.156643
0.0802299
0.102149
0.0675716
0.0531579
0.139577
0.12191
0.158893
0.145843
0.0586684
0.0478302
0.0588051
0.0732081
0.0423323
0.0483979
0.0369392
0.0339886
0.0471358
0.02751
0.0301867
0.0259099
0.0376156
0.0334301
0.030922
0.0360775
0.0386233
0.0390747
0.0373417
0.0270476
0.0868854
0.0704235
0.0952905
0.0902449
0.0274467
0.064376
0.0629133
0.0676779
0.0648829
0.0356474
0.11137
0.106982
0.118798
0.112948
0.0366087
0.0304408
0.10032
0.0965511
0.105584
0.101591
0.0308843
0.0198854
0.0184051
0.044905
0.042602
0.0214894
0.0205256
0.0373401
0.036894
0.0382463
0.0374782
0.0358301
0.0350713
0.0367229
0.0360779
0.060558
0.0590177
0.0624543
0.061047
0.0532658
0.0394965
0.058463
0.0557209
0.0275052
0.024547
0.0324248
0.0287573
0.0125953
0.0195677
0.0184852
0.0235826
0.0202218
0.0306068
0.0315854
0.0820015
0.0199136
0.0194087
0.020829
0.0200918
0.0192173
0.0668214
0.0223637
0.029443
0.0337364
0.0425063
0.10625
0.0295196
0.0239147
0.0347951
0.0324576
0.0220247
0.0211107
0.0234945
0.022357
0.0933409
0.0330289
0.0333707
0.0082623
0.0248608
0.0135068
0.0143636
0.0132641
0.0237063
0.0073939
0.0189086
0.0111728
0.01424
0.0388183
0.0330904
0.0191506
0.0197958
0.0577932
0.0511402
0.0183301
0.0189307
0.0133665
0.0242818
0.0582466
0.0415834
0.0125908
0.0121649
0.0171491
0.0103948
0.013467
0.018604
0.0265191
0.00723494
0.0151705
0.00995436
0.0147637
0.0201566
0.0644557
0.138133
0.184026
0.0127134
0.0119957
0.19304
0.255525
0.212881
0.00782835
0.0283053
0.0164564
0.0182356
0.139994
0.14609
0.168321
0.00571967
0.00910396
0.00670974
0.00567973
0.0069588
0.00542809
0.0700702
0.0447495
0.0269907
0.0296828
0.0271042
0.0306942
0.221962
0.445508
0.423728
0.475534
0.452898
0.227534
0.0358132
0.0302432
0.0162321
0.0601569
0.0699512
0.138066
0.0918774
0.0865851
0.0365674
0.0320165
0.0369268
0.0371068
0.416594
0.395623
0.183807
0.138145
0.0552916
0.0575384
0.0597895
0.073315
0.156725
0.0423291
0.100615
0.0938155
0.0146741
0.0150127
0.0169359
0.0200483
0.0203941
0.0271897
0.0153519
0.0126729
0.0143148
0.0217141
0.0427225
0.0376771
0.0184105
0.0267468
0.019447
0.0196991
0.0192611
0.0120877
0.013571
0.0156993
0.0151878
0.0127919
0.0208673
0.023913
0.0513979
0.0398368
0.0423812
0.0390976
0.0290365
0.0374003
0.0175069
0.0199452
0.0110155
0.00731356
0.00724956
0.0139714
0.0117525
0.0282214
0.0179747
0.0122226
0.01715
0.0221569
0.0210454
0.0303635
0.0315996
0.0188598
0.0150803
0.0155495
0.0098038
0.0136696
0.0153057
0.0598137
0.0542334
0.0225521
0.0143002
0.0185326
0.0177228
0.0147762
0.016925
0.0162945
0.0510366
0.0416275
0.0432109
0.0655985
0.0918302
0.0907397
0.0425413
0.0608526
0.0587046
0.0895041
0.0879295
0.0629362
0.0439319
0.0532588
0.0440345
0.0336706
0.0365353
0.029684
0.0457272
0.0476198
0.0685387
0.0247475
0.0321572
0.0315696
0.0485437
0.0479029
0.0280888
0.0269725
0.0264579
0.0308236
0.0300536
0.03418
0.0548239
0.0542041
0.057819
0.057321
0.0387041
0.0294082
0.0498103
0.049172
0.0535633
0.0529092
0.0319944
0.053821
0.0549002
0.13607
0.123016
0.0522904
0.0534588
0.081023
0.0838463
0.176231
0.0243022
0.0240556
0.026093
0.0257503
0.0214868
0.0238195
0.0235882
0.159358
0.076046
0.0800594
0.0140461
0.0141532
0.0171508
0.0167024
0.0138892
0.0143199
0.0142668
0.0673752
0.0296379
0.0333066
0.109791
0.103055
0.0454139
0.053681
0.117657
0.111811
0.0274887
0.0276046
0.0382886
0.0368694
0.0269768
0.0273136
0.0116922
0.0183624
0.02675
0.0187965
0.00733212
0.0118878
0.0194343
0.0138356
0.0147281
0.0180177
0.0182053
0.0262277
0.0110388
0.00724299
0.0105299
0.0139781
0.0249562
0.0176422
0.0178469
0.0164075
0.0260279
0.0226695
0.013937
0.0134154
0.014732
0.0150606
0.017697
0.00795506
0.00544701
0.00988287
0.015864
0.0139902
0.0143287
0.0123846
0.0135175
0.015328
0.0120894
0.00809668
0.00623423
0.0238428
0.0243971
0.02281
0.0232704
0.0268093
0.0349227
0.0351084
0.0345009
0.0347357
0.0262098
0.0162282
0.0260252
0.0259249
0.0268163
0.026273
0.016054
0.0297518
0.036476
0.0381491
0.0353157
0.0356719
0.0289794
0.0177053
0.0259177
0.0259102
0.0258747
0.0258757
0.0172051
0.0218219
0.0223453
0.0224572
0.0219129
0.0319263
0.0457701
0.0454393
0.0213664
0.0301563
0.0300779
0.0305923
0.0302796
0.0217075
0.0120855
0.011158
0.014302
0.0128829
0.0199575
0.0196421
0.0206009
0.0202793
0.0171579
0.0279348
0.020691
0.0209121
0.0202562
0.0298615
0.0297609
0.0300166
0.0299462
0.0205018
0.0211921
0.02091
0.0251502
0.0214058
0.0174292
0.00754915
0.0117288
0.0148704
0.00735862
0.01955
0.0146115
0.00356681
0.0251648
0.033947
0.0334824
0.0181937
0.00967327
0.006818
0.00528027
0.0117337
0.0126705
0.0189751
0.0192068
0.0267027
0.0195493
0.00863914
0.00724512
0.0164734
0.00571606
0.00989722
0.00809481
0.00586087
0.00725947
0.0134607
0.0109842
0.0118235
0.0147577
0.0143013
0.038918
0.033982
0.0105865
0.0126168
0.0141087
0.0207975
0.0236071
0.0153087
0.0187619
0.0165922
0.0139786
0.00800703
0.0137097
0.0141266
0.00726634
0.0108013
0.0121035
0.0155787
0.014079
0.0144708
0.0116074
0.0122365
0.0151394
0.0147072
0.0143391
0.0108923
0.0141
0.0154646
0.0150877
0.0275403
0.0237642
0.0186919
0.0302615
0.0323055
0.0342464
0.0277896
0.0246985
0.0221393
0.0316704
0.0328183
0.024965
0.0291994
0.0215854
0.0242739
0.0340133
0.0342607
0.0333806
0.0337243
0.0236837
0.0210853
0.0315347
0.0311187
0.0153572
0.0156413
0.0168417
0.0151971
0.0151131
0.0158555
0.0168011
0.0166208
0.0184464
0.0288499
0.0277324
0.0306132
0.0298769
0.0197503
0.0139536
0.0144781
0.0179797
0.00909636
0.0134591
0.013456
0.0158342
0.0135996
0.0136279
0.020465
0.0195051
0.0149373
0.049276
0.0444593
0.0749084
0.0657134
0.0436826
0.0614292
0.0856706
0.0818115
0.0415425
0.0380585
0.0377587
0.0267911
0.0334332
0.0572818
0.0493112
0.0468713
0.036588
0.0438837
0.0446063
0.0410071
0.0428461
0.0357892
0.0283688
0.0295444
0.0382964
0.0316767
0.0308863
0.0330506
0.0327104
0.0356783
0.0316489
0.0301072
0.0281191
0.0323241
0.0439333
0.0394469
0.0264411
0.0277673
0.0472021
0.0461409
0.028086
0.0275175
0.0293487
0.028695
0.0558779
0.0553584
0.0348662
0.0376357
0.0568792
0.0563995
0.0510893
0.0504603
0.0299265
0.0313706
0.0522656
0.0516721
0.019348
0.0259477
0.0259221
0.0259277
0.0259639
0.018988
0.0213845
0.0249765
0.0237187
0.0258245
0.0255726
0.0209146
0.0371952
0.0242722
0.0246805
0.0236166
0.0239335
0.0370512
0.0378119
0.0261592
0.0266658
0.0251313
0.0256193
0.037618
0.0355746
0.0218957
0.0221626
0.0214607
0.0216572
0.0353206
0.0365346
0.0230382
0.023319
0.0224394
0.022731
0.0363147
0.0248354
0.0245613
0.0600564
0.0410117
0.0413171
0.0403827
0.0407004
0.0595439
0.0254271
0.0251228
0.0229201
0.0225831
0.0486445
0.0333314
0.0368364
0.0271516
0.0275302
0.0425945
0.0578383
0.0396886
0.0400515
0.038491
0.0392386
0.0570252
0.0233707
0.0231556
0.0146906
0.0141895
0.0139432
0.0161809
0.0153959
0.0191632
0.0143543
0.0141756
0.0148354
0.0145613
0.0188487
0.0224236
0.0157585
0.0167131
0.0143013
0.0148778
0.0212177
0.0311055
0.0441603
0.0432628
0.0450953
0.0446987
0.0313827
0.0197419
0.0195763
0.0205522
0.0202778
0.0189667
0.0181389
0.022631
0.0337991
0.0315112
0.0415319
0.0382157
0.0269145
0.0246133
0.0194873
0.0204039
0.0243085
0.0344374
0.0210701
0.0212634
0.0206753
0.0208771
0.0338287
0.0217076
0.0214023
0.0230897
0.0227113
0.0136118
0.0158133
0.015337
0.0172232
0.0164487
0.0139064
0.013857
0.0135292
0.0148963
0.0143399
0.00853295
0.0119817
0.0149775
0.0146463
0.0158606
0.0153795
0.0126244
0.0189882
0.0187909
0.0194123
0.0191952
0.02427
0.0261491
0.0355703
0.0182343
0.0179989
0.0186029
0.0184215
0.0193661
0.029363
0.0291931
0.029643
0.0295106
0.0195769
0.0184911
0.0282803
0.0273161
0.0289909
0.028724
0.0187111
0.0125804
0.0326648
0.0308579
0.0225179
0.0128426
0.0095136
0.00948179
0.00651947
0.00928872
0.0124768
0.0156023
0.0127188
0.0141898
0.013811
0.0263874
0.0184681
0.0187237
0.0104659
0.0107448
0.010288
0.0134379
0.0130572
0.00691519
0.00707122
0.0143618
0.0110265
0.0133565
0.0156808
0.0173811
0.0232226
1.15485
1.15514
1.1555
1.15526
1.15575
1.1558
1.15594
1.15666
1.15626
1.15691
1.15771
1.15683
1.15795
1.12625
1.15732
1.11312
1.09941
1.15751
1.1054
1.15843
1.1573
1.15827
1.15761
1.15683
1.15737
1.15662
1.1563
1.1564
1.15578
1.15586
1.15435
1.15498
1.15506
1.15525
1.1563
1.1558
1.15672
1.11294
1.15691
1.05102
0.900467
1.15813
0.865115
0.796822
1.04837
0.785981
0.784919
1.02474
0.793964
0.848127
1.08557
0.874573
0.983025
1.158
1.0289
1.15789
1.15684
1.15746
1.15624
1.15583
1.1542
1.15544
1.15503
1.15598
1.09571
1.1566
1.00698
0.782268
1.02403
0.72344
0.587995
0.815023
0.555478
0.493986
0.715574
0.485244
0.491613
0.706604
0.503295
0.562058
0.771171
0.588625
0.69104
0.90336
0.732123
0.888749
1.11567
0.951854
1.15764
1.1565
1.15453
1.15665
1.15567
1.1413
0.842714
1.02396
0.756245
0.548577
0.714405
0.492223
0.35775
0.522694
0.324231
0.261835
0.428905
0.254286
0.26805
0.428468
0.282614
0.348172
0.50185
0.375319
0.475238
0.628997
0.514289
0.654395
0.822143
0.710034
0.912238
1.10156
1.15541
1.08555
1.15705
0.976258
0.688856
0.795527
0.610297
0.409567
0.504965
0.351568
0.20559
0.312557
0.170463
0.0910934
0.215818
0.089461
0.122626
0.224405
0.140046
0.208317
0.306295
0.235925
0.331766
0.432638
0.368532
0.49753
0.608649
0.548313
0.729825
0.858924
1.15666
1.00286
1.05774
0.895044
0.635101
0.66602
0.562958
0.372257
0.389386
0.316608
0.144315
0.182407
0.128277
0.0752871
0.117942
0.0368267
0.0463567
0.0806007
0.0866954
0.116308
0.137095
0.163422
0.251052
0.306065
0.284891
0.403089
0.468711
0.449245
0.614058
0.694363
1.15809
0.987136
0.99335
0.889236
0.669861
0.636559
0.611662
0.467453
0.384206
0.351729
0.303688
0.281898
0.134488
0.113588
0.102587
0.0616361
0.088142
0.0938627
0.14463
0.21997
0.239199
0.24998
0.35677
0.387371
0.398743
0.549402
0.592686
1.15956
1.01109
0.990905
0.922782
0.744453
0.687344
0.70196
0.622586
0.505203
0.525365
0.508611
0.445975
0.438288
0.447255
0.362457
0.0799241
0.0988461
0.093648
0.154828
0.221715
0.217949
0.248822
0.346563
0.351289
0.385339
0.524701
0.539481
1.16102
1.04191
1.01916
0.958768
0.803208
0.762191
0.768788
0.720774
0.656189
0.692061
0.719604
0.679341
0.695198
0.526514
0.549615
0.10809
0.124437
0.11426
0.180982
0.24455
0.225687
0.270213
0.363007
0.348416
0.399778
0.53104
0.523743
1.16247
1.06295
1.04828
0.98119
0.823225
0.811828
0.78582
0.714745
0.728236
0.735516
0.763338
0.769851
0.592512
0.413032
0.43344
0.142197
0.160045
0.145826
0.219794
0.28497
0.252976
0.310686
0.402634
0.370716
0.43856
0.564436
0.537563
1.16391
1.08
1.06686
0.997846
0.821674
0.823451
0.775049
0.660864
0.702254
0.669201
0.695615
0.698865
0.485366
0.310261
0.329021
0.173284
0.193594
0.182446
0.27719
0.348433
0.298249
0.375523
0.468902
0.416436
0.504491
0.626121
0.578101
1.1654
1.11341
1.08623
1.0301
0.836791
0.82246
0.781471
0.62492
0.647955
0.597707
0.55256
0.607958
0.397333
0.214684
0.232286
0.0503234
0.110854
0.096933
0.278766
0.352328
0.27411
0.376108
0.451744
0.369588
0.479136
0.571508
0.490662
0.605925
0.721534
0.647833
1.16662
1.1683
1.12889
1.11818
0.917861
0.850629
0.861524
0.694283
0.630265
0.584132
0.51832
0.503347
0.202357
0.0662932
0.0895109
0.110093
0.244764
0.216152
0.490079
0.543681
0.388768
0.561103
0.621226
0.486889
0.644622
0.724778
0.604354
0.755545
0.858142
0.752934
1.16756
1.16887
1.16849
1.16686
1.09358
0.952354
1.04116
0.919257
0.73238
0.788966
0.111342
0.182844
0.0339308
0.0818481
0.0702794
0.160326
0.434194
0.420977
0.517367
0.744131
0.612757
0.811235
0.88769
0.677739
0.896991
0.944722
0.772728
0.966431
1.04794
0.902115
1.16815
1.16882
1.16892
1.16629
1.13836
1.14419
1.11305
0.858987
0.92677
0.659841
0.0794873
0.0999729
0.0298103
0.0953537
0.0854085
0.174636
0.446274
0.437797
0.530274
0.755279
0.747335
0.820891
0.977193
0.973107
1.01553
1.09666
1.01193
1.11461
1.14942
1.10724
1.16839
1.16807
1.1687
1.1647
1.12677
1.13587
1.09146
0.764227
0.835377
0.543844
0.0659978
0.0751598
0.0284577
0.107151
0.0984481
0.186506
0.452717
0.448337
0.538213
0.762933
0.757466
0.827359
0.980653
0.978239
1.01833
1.09817
1.09716
1.11584
1.15016
1.14969
1.16829
1.1666
1.16777
1.16204
1.11094
1.1232
1.06385
0.672527
0.740899
0.454517
0.0588763
0.063811
0.0283338
0.11756
0.109874
0.1965
0.456252
0.453754
0.541567
0.768027
0.764434
0.831642
0.982573
0.981254
1.01974
1.09864
1.09837
1.11614
1.1502
1.15023
1.16787
1.16441
1.16612
1.15826
1.09127
1.10636
1.03148
0.59153
0.650819
0.393567
0.0547574
0.0576361
0.0288984
0.126804
0.119973
0.205032
0.458913
0.456968
0.542691
0.770387
0.768898
0.833977
0.98342
0.982873
1.0202
1.09843
1.09864
1.11583
1.14977
1.15013
1.16717
1.16147
1.16374
1.15335
1.06826
1.08582
0.995167
0.529352
0.57408
0.353348
0.0523
0.0540195
0.0299004
0.13506
0.128954
0.2124
0.461091
0.459501
0.543161
0.769787
0.770494
0.833948
0.983371
0.983493
1.01993
1.09774
1.0983
1.11509
1.149
1.1496
1.16622
1.15779
1.16062
1.14728
1.04182
1.062
0.954288
0.485032
0.516834
0.325005
0.0508669
0.0518624
0.0312014
0.142474
0.136987
0.218828
0.462816
0.461563
0.543326
0.76723
0.769277
0.831678
0.982274
0.983206
1.0189
1.09668
1.09751
1.11403
1.14801
1.14877
1.16503
1.15331
1.15675
1.13998
1.01097
1.03456
0.909657
0.452431
0.475994
0.304081
0.0501171
0.0506249
0.0327159
0.149167
0.14421
0.224488
0.464127
0.46318
0.543223
0.763881
0.766435
0.828092
0.979953
0.981809
1.01695
1.09524
1.09636
1.11267
1.14684
1.14773
1.16359
1.14786
1.15205
1.1311
0.9764
1.00256
0.866549
0.427393
0.445572
0.288263
0.0498518
0.0500111
0.0343879
0.155242
0.15074
0.229517
0.465085
0.464397
0.542877
0.760294
0.762996
0.82398
0.976563
0.979192
1.01407
1.09336
1.09481
1.11098
1.1455
1.14652
1.16187
1.14111
1.14631
1.12009
0.941739
0.967591
0.82885
0.407676
0.422029
0.276139
0.0499474
0.0498456
0.0361795
0.160786
0.156674
0.234025
0.465755
0.465277
0.542325
0.756649
0.759385
0.81971
0.972469
0.975591
1.01046
1.09105
1.09282
1.10895
1.144
1.14514
1.15978
1.13272
1.13918
1.10676
0.909841
0.933446
0.796832
0.391905
0.403405
0.266769
0.0503235
0.0500177
0.0380649
0.165874
0.162098
0.238101
0.466195
0.465884
0.54161
0.752997
0.755735
0.815416
0.967987
0.971375
1.00638
1.08834
1.0904
1.1066
1.14235
1.1436
1.15722
1.12263
1.13035
1.0916
0.881462
0.902418
0.769525
0.379155
0.388464
0.259498
0.0509255
0.0504546
0.0400263
0.170572
0.167083
0.24182
0.46646
0.466276
0.540775
0.749366
0.752087
0.811151
0.96332
0.966832
1.00203
1.08534
1.08762
1.10399
1.14056
1.14191
1.15409
1.11118
1.11988
1.07545
0.85636
0.874897
0.745978
0.368762
0.376358
0.253852
0.0517154
0.0511066
0.0420525
0.174936
0.171692
0.245242
0.466598
0.466505
0.539858
0.745773
0.748463
0.806943
0.958583
0.962139
0.997539
1.0821
1.08455
1.10117
1.13865
1.14009
1.15033
1.09885
1.10816
1.05906
0.834077
0.850542
0.725462
0.360232
0.366471
0.24948
0.0526661
0.0519388
0.0441368
0.179016
0.175981
0.248422
0.466648
0.466617
0.538898
0.74224
0.744884
0.802809
0.953842
0.957396
0.992987
1.07871
1.08127
1.09819
1.13664
1.13815
1.14594
1.08608
1.09568
1.0429
0.814183
0.828894
0.707428
0.353189
0.358344
0.246112
0.0537582
0.0529265
0.0462762
0.182857
0.179998
0.251405
0.466647
0.466651
0.537924
0.738783
0.741367
0.798769
0.949141
0.952662
0.98843
1.0752
1.07784
1.09509
1.13455
1.13612
1.14097
1.07321
1.08286
1.02725
0.796313
0.809538
0.691449
0.347342
0.351625
0.243542
0.0549776
0.0540516
0.0484705
0.186499
0.183785
0.254231
0.466625
0.466642
0.536966
0.735421
0.737933
0.794836
0.944507
0.947975
0.983904
1.07163
1.07432
1.09192
1.1324
1.13402
1.13551
1.06046
1.07
1.01223
0.780169
0.792126
0.677192
0.342457
0.346038
0.241606
0.0563138
0.055301
0.0507213
0.189977
0.187383
0.256935
0.466609
0.466619
0.536048
0.732172
0.734598
0.791027
0.939964
0.943362
0.979437
1.06803
1.07073
1.08869
1.1302
1.13186
1.12964
1.04798
1.05731
0.997899
0.7655
0.776373
0.664382
0.338348
0.341363
0.24017
0.0577592
0.0566651
0.0530324
0.193325
0.190825
0.259547
0.466624
0.466609
0.535193
0.729052
0.73138
0.787355
0.935529
0.938844
0.975049
1.06441
1.06712
1.08543
1.12796
1.12965
1.12344
1.03583
1.0449
0.984243
0.752093
0.762037
0.652792
0.334862
0.337423
0.239125
0.0593082
0.0581369
0.055409
0.196573
0.194145
0.262097
0.466691
0.466635
0.53442
0.726075
0.728294
0.783835
0.931216
0.934438
0.970759
1.06081
1.06351
1.08216
1.1257
1.1274
1.117
1.02405
1.03284
0.971236
0.739769
0.748917
0.642234
0.331872
0.334072
0.238381
0.0609568
0.0597112
0.0578574
0.19975
0.197373
0.264612
0.466831
0.466719
0.533748
0.723256
0.725355
0.78048
0.92704
0.930159
0.966582
1.05723
1.05991
1.07891
1.12341
1.12513
1.11039
1.01265
1.02116
0.95884
0.728374
0.736839
0.632547
0.329272
0.331189
0.237862
0.0627019
0.0613841
0.0603849
0.202882
0.200536
0.267116
0.467061
0.466879
0.533195
0.720608
0.722577
0.777301
0.923015
0.926019
0.962533
1.05371
1.05635
1.07568
1.12112
1.12284
1.10404
1.00217
1.00986
0.947556
0.718153
0.725655
0.623876
0.327019
0.328672
0.237513
0.0645356
0.063153
0.062992
0.205971
0.203661
0.26961
0.467416
0.467135
0.532814
0.718268
0.719975
0.774465
0.919371
0.922034
0.958856
1.05048
1.05284
1.07271
1.11901
1.12055
0.296455
0.242643
0.264863
0.059934
0.0525165
0.0567513
0.0449747
0.0444488
0.0528629
0.557667
0.585008
0.729533
0.0836209
0.0779771
0.0827407
0.058399
0.0640488
0.0673153
0.440314
0.461208
0.6319
0.117533
0.113692
0.118664
0.0848446
0.0902717
0.0951639
0.335302
0.354261
0.525848