/*--------------------------------*- C++ -*----------------------------------*\
| =========                 |                                                 |
| \\      /  F ield         | OpenFOAM: The Open Source CFD Toolbox           |
|  \\    /   O peration     | Version:  v1912                                 |
|   \\  /    A nd           | Website:  www.openfoam.com                      |
|    \\/     M anipulation  |                                                 |
\*---------------------------------------------------------------------------*/
FoamFile
{
    version     2.0;
    format      ascii;
    class       volScalarField;
    location    "1000";
    object      omega;
}
// * * * * * * * * * * * * * * * * * * * * * * * * * * * * * * * * * * * * * //

dimensions      [0 0 -1 0 0 0 0];


internalField   nonuniform List<scalar> 
12556
(
31.8693
31.8706
31.8719
31.8739
31.9377
31.9387
31.9393
31.9406
31.9432
31.9476
31.9541
31.9616
31.9669
31.9674
31.9629
31.9561
31.9497
31.9449
31.9417
31.9399
31.8748
31.8723
31.8706
31.8691
31.7347
31.7377
31.7408
31.7448
31.8052
31.8094
31.8129
31.8467
31.8538
31.866
31.8838
31.904
31.9189
31.9212
31.9101
31.8919
31.8738
31.8599
31.8206
31.8134
31.7477
31.742
31.7382
31.7347
31.6014
31.6062
31.6109
31.6167
31.6747
31.6822
31.69
31.7257
31.7423
31.7704
31.8107
31.8542
31.8855
31.8903
31.8675
31.8291
31.789
31.7569
31.7065
31.6914
31.6237
31.6146
31.6083
31.6029
31.4702
31.4764
31.4824
31.4901
31.5455
31.5569
31.5709
31.6132
31.6478
31.7062
31.7874
31.8802
31.9455
31.9484
31.8943
31.8144
31.7362
31.6732
31.605
31.5767
31.5036
31.4899
31.4808
31.4733
31.3405
31.3481
31.3555
31.3651
31.4194
31.4355
31.4582
31.5112
31.579
31.6921
31.8783
32.1253
32.3115
32.2841
32.1072
31.9063
31.7401
31.6236
31.5218
31.4713
31.388
31.3678
31.3552
31.3454
31.2123
31.2212
31.2301
31.2417
31.2961
31.3185
31.3542
31.4265
31.5398
31.7628
32.225
33.1124
34.0372
33.6625
32.8306
32.2307
31.8505
31.6187
31.4615
31.3778
31.2769
31.2482
31.2311
31.2187
31.0859
31.0961
31.1066
31.1206
31.1754
31.2057
31.2589
31.359
31.5366
31.9551
33.0734
37.2786
43.0925
40.2284
34.9633
33.0054
32.1259
31.6795
31.4249
31.297
31.1709
31.1311
31.1083
31.0931
30.9615
30.9731
30.9854
31.0025
31.0585
31.0985
31.1724
31.3037
31.5624
32.23
34.3108
45.6292
65.5324
40.0532
34.443
32.6077
31.8164
31.4123
31.2284
31.0701
31.0167
30.9872
30.9687
30.8396
30.8527
30.8671
30.8877
30.9459
30.9969
31.0933
31.2558
31.6
32.4821
35.1754
52.3606
116.09
47.2056
36.4131
33.2622
32.0195
31.4205
31.1697
30.9747
30.906
30.8687
30.8466
30.7207
30.7354
30.7522
30.7767
30.8377
30.9007
31.0198
31.2122
31.6363
32.6791
35.7836
59.7856
140.645
53.019
38.3659
33.9644
32.2544
31.4417
31.1183
30.8849
30.7999
30.7542
30.7282
30.6053
30.6215
30.6408
30.6696
30.7341
30.8095
30.9507
31.1721
31.671
32.8559
36.5287
69.4419
141.317
56.4517
39.9019
34.5882
32.4807
31.4656
31.0719
30.8004
30.6991
30.6448
30.6145
30.4934
30.5112
30.533
30.5662
30.6349
30.7227
30.8848
31.1359
31.7085
33.0494
37.6069
83.3473
131.184
57.82
40.8753
35.0528
32.6632
31.4819
31.0272
30.7199
30.6035
30.5407
30.5061
30.3849
30.4046
30.4294
30.4671
30.5391
30.6391
30.8212
31.1035
31.7516
33.2838
38.9737
97.6893
998.424
111.135
57.8261
41.3331
35.3319
32.7805
31.4829
30.9806
30.642
30.5122
30.4416
30.4027
30.2795
30.3009
30.3283
30.3702
30.4486
30.5622
30.7647
31.086
31.8304
33.6618
41.5599
180.701
500.844
105.048
57.1076
41.4021
35.446
32.8287
31.4642
30.9286
30.5646
30.4235
30.3458
30.303
30.1763
30.1994
30.2294
30.2751
30.3582
30.4823
30.7017
31.0554
31.8763
33.9958
45.8871
774.792
337.687
98.8934
55.8567
41.2043
35.4297
32.8164
31.4255
30.8692
30.4856
30.3355
30.2518
30.2054
30.0746
30.0994
30.1319
30.1811
30.2686
30.4017
30.6358
31.0198
31.9169
34.4028
53.1562
873.232
293.372
93.8405
54.6607
40.8973
35.3246
32.7508
31.3689
30.8012
30.4034
30.2468
30.1576
30.1084
29.9737
30
30.035
30.0873
30.1788
30.3194
30.5657
30.9768
31.9471
34.9321
63.0397
839.363
262.068
89.9289
53.5648
40.5551
35.1831
32.6597
31.2958
30.7234
30.3169
30.1557
30.062
30.0103
29.8727
29.9006
29.938
29.993
30.0881
30.2346
30.4911
30.9259
31.9698
35.594
74.9724
770.808
238.664
87.0979
52.6248
40.2159
35.0172
32.5485
31.2079
30.6358
30.2248
30.0607
29.9642
29.9102
29.7713
29.8005
29.8402
29.8978
29.9959
30.1472
30.4121
30.8679
31.9919
36.4051
86.9462
698.706
220.417
85.0962
51.8305
39.8983
34.8433
32.4259
31.1099
30.5408
30.1277
29.9619
29.8629
29.8077
29.6691
29.6994
29.7413
29.8012
29.9021
30.0572
30.3292
30.8044
32.0201
37.3675
96.8561
632.636
205.709
83.4737
51.1904
39.6082
34.6703
32.2979
31.0045
30.4395
30.0259
29.8591
29.7584
29.7024
29.5659
29.5971
29.6408
29.7029
29.8065
29.9649
30.2433
30.7371
32.06
38.5048
104.263
574.792
193.535
82.0213
50.7272
39.3486
34.5026
32.1681
30.8941
30.3332
29.9199
29.7526
29.6507
29.5944
29.4619
29.4935
29.5389
29.6029
29.709
29.8703
30.1549
30.6677
32.1163
39.8947
109.78
524.901
183.242
80.6927
50.4099
39.1268
34.3429
32.0387
30.7801
30.2231
29.8103
29.643
29.5404
29.484
29.357
29.3889
29.4355
29.5013
29.6095
29.7737
30.0646
30.5976
32.1959
41.5084
113.796
481.97
174.384
79.4716
50.1731
38.9495
34.1943
31.9114
30.6641
30.11
29.698
29.5307
29.4277
29.3716
29.2515
29.2834
29.3309
29.3982
29.5083
29.6753
29.9727
30.5285
32.3138
43.1222
116.582
444.905
166.644
78.3434
49.9726
38.8138
34.0591
31.7877
30.5471
29.9949
29.5836
29.4165
29.3133
29.2575
29.1455
29.1773
29.2255
29.2939
29.4056
29.5753
29.88
30.4627
32.4878
44.5723
118.361
412.721
159.796
77.2938
49.7894
38.7093
33.9381
31.6687
30.4301
29.8786
29.4677
29.3007
29.1976
29.1423
29.0393
29.0708
29.1194
29.1889
29.3019
29.4742
29.7873
30.4035
32.7223
45.8272
119.326
384.58
153.67
76.3095
49.6159
38.6255
33.8301
31.5547
30.3139
29.7618
29.3508
29.184
29.0809
29.0262
28.933
28.9642
29.013
29.0835
29.1975
29.3726
29.6953
30.354
33.0032
46.9044
119.64
359.797
148.136
75.3792
49.4486
38.5548
33.7332
31.4456
30.1988
29.6449
29.2335
29.0666
28.9637
28.9095
28.8268
28.8576
28.9066
28.9778
29.0928
29.2708
29.6049
30.3168
33.3091
47.8271
119.441
337.818
143.096
74.4931
49.2849
38.4923
33.6454
31.3411
30.0851
29.5283
29.116
28.949
28.8462
28.7925
28.7209
28.7511
28.8003
28.8722
28.988
29.1692
29.5169
30.2934
33.6216
48.6156
118.845
318.195
138.471
73.643
49.1231
38.4346
33.5648
31.2407
29.973
29.4123
28.9987
28.8314
28.7287
28.6755
28.6153
28.645
28.6942
28.7669
28.8834
29.0682
29.4321
30.2835
33.9287
49.287
117.945
300.563
134.2
72.8221
48.9614
38.3795
33.4899
31.1439
29.8626
29.2972
28.8817
28.714
28.6114
28.5587
28.5101
28.5394
28.5886
28.6619
28.7793
28.968
29.3512
30.286
34.2235
49.8562
116.818
284.627
130.232
72.0248
48.7983
38.3254
33.4195
31.0504
29.754
29.1829
28.7652
28.5969
28.4943
28.4421
28.4055
28.4343
28.4835
28.5575
28.6757
28.869
29.2747
30.2992
34.5026
50.3361
115.527
270.147
126.526
71.2464
48.6325
38.2711
33.3523
30.9599
29.647
29.0697
28.6493
28.4804
28.3778
28.3259
28.3014
28.3298
28.379
28.4536
28.5728
28.7714
29.2028
30.3209
34.7644
50.7382
114.123
256.921
123.05
70.483
48.4627
38.2155
33.2876
30.8719
29.5418
28.9576
28.5342
28.3645
28.2618
28.2102
28.198
28.226
28.2751
28.3505
28.4708
28.6754
29.1358
30.3494
35.0085
51.073
112.647
244.787
119.774
69.7314
48.288
38.1578
33.2245
30.7862
29.4383
28.8467
28.4199
28.2492
28.1463
28.0951
28.0957
28.1233
28.1724
28.2485
28.3696
28.5813
29.0737
30.383
35.2356
51.3499
111.13
233.607
116.675
68.9889
48.1074
38.0972
33.1625
30.7024
29.3364
28.737
28.3068
28.1352
28.0321
27.9811
27.9984
28.0257
28.0748
28.1514
28.2701
28.4895
29.0165
30.4204
35.4465
51.5774
109.601
223.265
113.734
68.2531
47.9202
38.0331
33.1008
30.6203
29.2366
28.6292
28.2
28.0275
27.9242
27.8733
51.6783
133.674
73.5262
58.8375
172.269
141.23
68.0418
170.757
173.678
81.2894
155.718
169.273
96.1609
1245.01
1053.13
138.754
153.542
151.665
696.044
1197.33
523.323
134.346
136.033
44.3091
42.5137
66.2825
40.2401
508.334
160.239
110.606
51.0645
43.2169
35.6307
51.0928
46.6159
1317.55
1042.74
139.17
59.7955
53.5966
36.3157
57.1952
51.7768
63.001
212.474
181.724
859.958
1119.79
142.04
64.6193
61.3518
37.3023
65.8711
58.1099
74.039
350.895
260.594
537.574
674.145
38.5958
78.0332
67.218
86.684
612.841
461.813
2239.27
326.319
405.993
40.9389
109.624
79.9925
110.093
1250.29
887.661
435.743
528.271
666.802
121.89
162.692
79.3968
117.494
1027.79
542.707
108.048
403.145
806.741
177.974
153.279
56.1207
211.204
235.774
168.542
206.041
1131.29
1314.24
156.659
1026.21
916.27
825.07
1027.46
155.044
254.789
217.678
64.1818
296.199
354.916
238.711
291.449
696.201
840.317
174.229
657.829
543.623
906.813
674.205
174.756
456.013
355.655
75.7191
450.305
598.733
358.944
445.296
418.537
520.7
880.176
624.328
87.3248
2615.32
849.9
1205.39
604.297
836.872
2761.17
301.42
317.41
2126.67
7834.39
1253.29
112.159
870.693
1732.26
6925.72
1207.92
1696.21
906.112
35.0026
46.1611
41.8066
48.8376
95.4616
69.7791
1760.87
663.665
55.1238
149.793
125.58
3306.52
132.787
66.3227
65.2872
3509.51
897.072
988.336
733.307
267.333
291.547
121.516
98.2521
49.6472
1243
174.954
477.125
130.106
363.693
99.1829
1028.83
1415.68
161.976
422.402
345.517
528.696
434.387
163.939
1756.64
3271.03
1085.04
62.2739
52.5878
74.1351
130.445
63.8773
64.2036
1886.1
343.839
1665.24
463.368
1497.66
290.83
1118.05
1106.04
984.183
1000.64
2146.56
3099.66
591.477
2284.77
1645.09
3333.67
2416.49
610.744
508.488
168.694
179.867
739.503
852.962
3315.63
938.379
245.519
266.414
220.766
238.703
924.177
1036.73
1223.35
135.429
795.884
693.228
1177.06
801.68
141.37
97.3365
317.887
135.781
607.257
357.183
102.877
539.673
864.691
814.604
785.74
217.318
1491.43
218.266
185.146
1357.39
1204.52
1478.69
1376.21
190.476
1197.14
1206.15
976.012
338.38
332.498
338.245
339.152
969.612
910.426
305.346
278.461
329.011
312.642
921.677
324.229
328.036
260.055
263.171
714.18
3369.71
728.467
490.381
501.822
404.522
410.421
1576.09
1162.17
473.77
1481.14
2051.91
680.812
200.471
215.364
183.773
196.045
672.213
1845.45
881.507
888.7
642.41
648.908
3693.41
1505.1
622.751
707.105
273.262
327.283
2797.36
4892.59
1833.37
2525.84
1226.37
4228.32
2653.04
3975.15
1240.05
1033.55
3100.53
2182.57
1884.43
2140.93
2455.49
44.5463
165.193
116.385
261.202
3843.22
7230.76
352.062
123.851
131.349
1035.13
2582.65
3022.83
533.527
598.223
1434.95
244.305
260.541
706.65
124.121
86.9714
155.163
455.348
118.078
133.537
1277.68
2074.04
2219.39
1074.54
920.394
2085.07
1811.28
2984.08
2991.17
1076.2
311.03
125.889
132.46
117.747
123.784
302.282
155.772
165.263
502.161
1206.56
503.205
533.402
6024.28
3010.49
627.098
945.38
1915.33
2030.41
569.133
219.098
178.818
267.866
232.074
603.232
1162.07
2812.38
2959.61
1274.24
238.428
110.356
115.835
755.528
744.899
343.308
1751.07
1623.05
789.416
607.578
300.354
313.144
822.325
330.432
336.939
317.112
327.526
809.948
397.391
144.564
152.832
134.746
141.983
390.239
465.437
1095.83
1085.71
1600.43
1532.05
574.212
374.747
808.957
760.149
1082.93
1078.67
430.442
459.15
1115.66
825.315
3872.92
2249.53
865.86
1102.09
620.206
1671.13
1619.71
1827.15
721.75
3329.77
8933.41
463.11
646.561
542.419
571.841
1271.81
2081.99
1516.62
782.662
1824.62
5593.53
1889.98
1788.5
14258.6
1207.73
1609.68
1447.47
1669.87
1294.85
3466.41
3446.88
1756.02
2036.95
3691.63
1306.1
1333.49
272.656
1092.72
430.485
1173.34
317.265
2993.57
2532.72
1240.9
3211.79
3539.34
3257.31
2740.68
1489.69
3358.75
3843.14
2721.39
3199.27
4001.46
2207.84
2578.64
1827.1
2101.43
3803.02
1918.61
1073.39
802.526
1391.15
1152.38
711.093
452.158
1139.9
2439.52
2668.52
1230.45
1082.84
2264.88
2388
2283.79
2154.91
936.874
3173.05
3019.08
2608.3
3140.28
2918.12
1057.39
2829
2338.42
2510.62
2646.21
1979.31
920.12
1026.61
2854.79
1224.56
1365.79
1070.5
1182.86
2739.89
2806.87
1450.04
1672
457.229
492.183
1139.51
904.48
426.936
448.77
1121.82
1150.68
785.083
274.875
302.577
228.889
264.259
780.724
939.278
351.649
399.979
310.185
336.986
858.815
500.478
190.073
217.851
731.722
748.26
1565.64
1696
907.526
2128.39
1950.81
2263.17
1553.03
1461.33
1908.09
1624.59
683.025
1344.09
1550.87
1533
521.133
629.586
483.231
504.242
1520.13
673.211
680.899
651.337
670.591
1301.81
431.147
444.375
409.281
426.498
1278.2
1435.1
465.713
478.675
448.725
461.518
1424.38
2591.05
2761.57
1171.4
1252.55
2442.33
2520.53
1022.97
1023.93
1015.88
1023.14
1035.39
1046.95
1024.95
1031.94
693.904
703.635
683.302
691.033
760.441
990.3
707.463
732.124
1651.31
1847.47
1414.48
1583.21
3407.11
2326.63
2507.03
1923.31
2243.49
1124.43
1098.96
470.597
1712.06
1743.87
1651.11
1700.75
1757.56
558.795
1512.23
1164.37
1071.66
873.489
382.525
1213.27
1470.93
1051.65
1112.95
1577.01
1632.93
1493.47
1557.57
425.559
1078.58
1078.78
3583.15
1697.1
3539.65
3193.32
3540.54
1776.38
3909.56
2140.06
3838.41
3488.6
869.452
994.812
1735.46
1687.45
625.556
688.048
1805.27
1753.12
3532.45
1304.94
586.033
798.738
4875.29
5226.88
1894.21
4993.72
4132.49
2201.74
1210.03
4383.22
3101.29
5082.12
3282.26
1594.82
60.0285
40.8969
35.8334
3655.67
3633.05
120.233
66.0972
66.4089
3651.13
1414.41
2606.18
2234.49
336.073
268.994
147.035
275.006
176.053
463.761
1642.8
280.046
305.863
50.6216
60.1944
110.834
422.12
890.878
1103.33
198.026
97.3068
101.962
91.4895
95.814
193.772
1178.93
1366.21
2648.32
788.233
690.523
371.76
399.898
420.119
900.017
1167.84
1284.77
646.93
103.576
108.608
233.14
308.807
722.245
702.936
680.64
568.673
277.205
797.637
370.364
392.956
3196.16
3045.79
2486.86
1622.15
1593.09
1196.41
2927.01
3560.69
3381.36
1835.61
1011.47
1128.03
1754.68
1207.55
1675.31
1652.81
1671.69
1708.15
3451.29
2783.23
2941.86
3625.16
1960.28
1707.05
893.078
1269.29
165.443
127.419
253.779
1176.18
2396.32
2058.13
4003.36
4085
4160.93
3686.04
3897.69
83.4407
107.841
325.661
1721.56
1437.33
1343.17
2005.08
1859.49
2249.3
2945.43
2815.12
3464.72
3414.55
2903.78
815.289
890.035
1889.86
3227.53
2359.99
2480.15
3120.39
2485.69
2627.13
1060.6
1320.21
1202.09
791.913
558.087
562.936
1147.89
810.449
834.994
568.692
576.697
811.29
161.647
182.668
479.63
635.41
988.671
809.501
1213.34
1173.74
794.878
1652.78
1301.69
1318.3
917.047
924.137
1503.82
1478.44
1499.13
1341.73
1367.21
1336.4
859.614
864.433
843.01
845.655
1229.74
1464.83
903.824
910.406
869.734
875.43
1394.89
731.218
724.701
312.708
339.492
741.716
733.504
525.685
513.349
250.792
1576.67
1585.59
1512.41
1524.76
1729.68
1594.2
1602.87
273.264
551.349
530.105
3352.23
3332.52
2580.73
2672.06
3375.49
3295.24
3318.39
773.337
1574.71
1410.58
344.118
362.92
748.752
652.696
324.891
338.93
1185.65
1183.14
876.738
902.071
1203.38
1190.82
3678.7
1750.71
1194.52
1708.42
14116.4
2832.87
2080.79
3903.79
3455.37
1803.6
1785.62
1219.25
4354.72
4588.4
4520.43
3705.94
1277.58
1840.8
1820.14
2652.35
1497.8
1723.85
3515.98
3637.98
3079.61
2953.89
2346.73
1242.93
1576.7
1389.33
2725.51
3428.51
3252.22
3558.12
3517.96
2871.91
177.472
250.162
1259.31
2257.64
2215.7
2337.67
2302.86
2121.5
1612.62
1609.42
1621.16
1615.8
2161
3045.3
1879.32
1894.53
1814.16
1855.27
3064.92
1937.19
1561.69
1494.51
1605.09
1593.57
1983.58
2841.34
1921.88
1931.93
1906.88
1915.77
2912.98
2421.19
2374.49
2332.34
2399.55
1092.9
792.547
795.877
1577.63
1133.1
1132.74
1124.54
1132.06
1554.52
3714.63
3757.52
3424.15
3610.36
1649.82
1676.36
1598.68
1623.79
1909.4
1168.08
1569.45
1553.63
1654.93
1131.7
1132.54
1131.92
1131.52
1637.85
1555.1
1575.38
1312.52
1541.37
1910.71
3740.52
3662.93
3110.32
3793.38
1685.96
2200.18
11644.6
1259.73
948.704
959.688
1776.83
5660.4
5616.47
9012.37
5337.07
4860.67
1715.52
1696.09
1206.92
1645.22
1731.67
1860.23
1645.65
1849.68
1628.07
1291.69
1888.54
1733.14
3494.14
3476.62
3660.82
3104.59
3309.74
1287.77
1431.4
1012.06
534.19
656.474
1038.27
1088.39
773.643
991.9
1278.04
3397.28
3597.74
3497.51
3555.04
4011.25
3981.17
3745.9
2876.58
3619.81
3380.47
3944.59
3840.65
3040.1
3263.84
3454.9
4096.41
3599.85
2937.99
3089.92
1683.85
1516.55
1770.36
1287.87
1559.13
1735.68
1795.68
1737.42
2478.94
1725.18
1671.77
2173.44
1863.6
2533.94
2303.51
1632.26
1626.61
1650.23
1639.89
2350.16
2243.61
1538.84
1562.34
3139.02
3092.53
2792.64
3153.8
3163.7
2996.4
2902.08
2951.08
2621.31
1687.73
1754.01
1590.61
1630.8
2435.58
3322.44
3129.93
2372.5
3537.68
3520.66
3509.53
2769.17
3443.85
3435.55
2125.59
2235.18
3035.27
1090.77
1178.56
667.813
755.607
1126.04
825.983
589.547
614.699
1060.26
1020.58
700.054
1143.15
1259.07
764.814
1140.92
1102.65
1577.97
1296.97
1275.04
1389.42
1329.03
1611.14
2068
1988.42
1523.11
1891.83
1940.41
1774.77
1828.9
1499.74
1866.72
1990.93
2142.44
1828.84
987.306
1085.11
1558.68
1511.87
932.535
947.979
1436.13
1457.31
1391.19
1414.11
853.028
856.172
1320.39
1253.89
847.508
849.934
891.315
897.287
1449.49
1412.21
881.156
886.258
2651.29
1958.73
1970.94
1940.26
1947.38
2687.15
2442.37
2077.2
2196.76
1988.89
2018.98
2486.39
1023.11
1515.02
1495.61
1545.48
1530.74
1023.32
1022.53
1428.34
1407.22
1474.52
1452.3
1023.43
1039.19
1631.56
1617.24
1654.07
1644.26
1043.08
1026.48
1572.44
1559.33
1602.76
1587.83
1028.92
1557.48
1567.34
696.959
983.819
980.797
990.538
987.058
700.191
1536.32
1547.2
1629.58
1648.49
823.615
1156.72
1058.84
1387.88
1374.47
927.648
712.159
999.165
994.426
1020.44
1006.1
719.123
1610.99
1619.34
3154.57
3299.32
3366.11
2785.15
2964.58
2388.1
3314.25
3348.2
3219.41
3275.34
2442.77
2021.57
2929.95
2732.87
3301.08
3145.46
2135.6
1109.79
810.931
824.247
799.475
803.981
1103.08
1722.73
1733.02
1669.63
1688.75
1779.39
1869.05
1496.9
1029.91
1096.91
853.602
919.607
1266.69
1436.99
1799.77
1715.77
1450.84
1058.81
1674.21
1664.16
1696.34
1684.65
1073.59
1595.95
1614.65
1515.84
1537.19
3507.02
2734.46
2859.78
2451.21
2595.37
3393.45
3378.43
3500.21
2993.67
3181.59
3569.43
3811.14
3078.09
3233.37
2764.66
2923.36
3703.09
1731.19
1747.29
1695.85
1714.12
1334.32
1239.42
930.906
1794.23
1818.54
1762.7
1777.88
1718.92
1139.28
1143.21
1134.11
1136.34
1703.33
1791.14
1172.6
1211.4
1148.61
1156.83
1771.57
3646.75
981.367
1035.75
1410.95
4653.34
7519.35
7608.04
6498.15
6827.68
4937.26
2100.63
4692.49
3638.96
3856.45
1213.8
1760.52
1737.3
4383.24
4664.18
4751.19
4092.36
4386.33
5123.21
4790.66
3485.53
4406.76
4147.56
1954.37
1871.42
1374.9
31.7552
31.7647
31.8509
31.7689
31.7852
31.8611
31.792
31.8163
31.8772
31.8254
31.8534
31.8972
31.8622
31.8838
31.915
31.8887
31.8944
31.922
31.8931
31.8806
31.9151
31.8742
31.8504
31.8984
31.8417
31.8159
31.8796
31.8079
31.7872
31.8641
31.6403
31.6605
31.7372
31.6694
31.7041
31.7622
31.7184
31.768
31.7998
31.7862
31.8435
31.8439
31.8616
31.9056
31.8798
31.915
31.9231
31.8919
31.9192
31.8904
31.8751
31.8766
31.8281
31.8393
31.811
31.7613
31.7985
31.7457
31.7036
31.764
31.5354
31.5759
31.6373
31.5937
31.6609
31.6893
31.689
31.796
31.7652
31.8387
31.9801
31.8578
32.0272
32.1419
31.9343
32.1644
32.169
31.9539
32.1517
32.0621
31.9115
32.0251
31.9078
31.835
31.8685
31.7618
31.7547
31.7311
31.6544
31.6874
31.446
31.5162
31.5581
31.5462
31.6741
31.658
31.7343
31.9882
31.8243
32.1025
32.5502
32.0621
32.7287
33.2189
32.2815
33.3098
33.2317
32.3108
33.1149
32.7025
32.157
32.569
32.2158
31.9559
32.1173
31.8749
31.7769
31.8098
31.655
31.6488
31.3744
31.4834
31.5057
31.5341
31.7745
31.6906
31.896
32.4851
32.0771
32.8033
34.5573
32.8447
35.5877
40.1012
33.8912
40.5926
38.7093
33.8617
37.525
34.8048
33.0243
34.2116
33.0226
32.3569
32.7547
32.1773
31.9292
32.0387
31.732
31.6661
31.3166
31.4734
31.479
31.5541
31.9494
31.8131
32.1594
33.2981
32.6681
34.0112
40.8488
35.565
39.1694
45.0679
38.3174
58.8615
55.8947
42.9023
44.7743
41.0852
38.4252
38.4738
34.6948
33.3484
34.0182
32.7405
32.2918
32.4674
31.9037
31.7658
31.2672
31.4777
31.4736
31.5904
32.1359
31.9978
32.4248
34.0007
33.5026
34.5772
35.9313
35.5374
46.8291
52.6561
50.7783
85.1435
58.7358
50.5939
45.4256
37.2271
35.2666
35.8987
33.5561
32.9248
33.0885
32.1653
31.962
31.2228
31.486
31.4797
31.6276
32.2905
32.1777
32.6335
34.4664
34.1317
35.3328
36.9926
36.7762
53.1492
62.7421
61.2479
128.922
79.797
72.8197
51.789
39.8673
37.9135
37.9072
34.469
33.7831
33.7922
32.4759
32.2405
31.1818
31.4951
31.4882
31.6622
32.4241
32.3249
32.8114
34.9048
34.5709
35.946
37.9754
37.6895
60.8002
81.8016
78.4939
142.935
89.6365
87.4065
55.8107
41.9531
40.4538
39.5681
35.2974
34.6893
34.445
32.7817
32.5546
31.1446
31.5071
31.4977
31.6986
32.561
32.4572
32.9979
35.4769
35.0305
36.7631
39.4949
39.0586
70.9049
102.522
98.0942
138.289
89.9058
90.4764
57.6339
43.2747
42.3576
40.6838
35.9243
35.4759
34.9538
33.0367
32.8514
31.1113
31.524
31.5108
31.7403
32.7184
32.598
33.2207
36.2663
35.6536
37.9292
42.6818
41.0167
85.5138
132.814
125.994
126.344
93.8997
94.6541
57.9096
43.8906
43.4892
41.2612
36.3107
36.0434
35.2791
33.2128
33.0885
31.093
31.5699
31.529
31.8173
32.9658
32.7618
33.5822
37.6802
36.5007
39.3957
47.0597
45.4239
102.645
184.103
171.762
863.496
458.493
514.716
106.763
64.8734
65.852
57.3246
43.9893
43.9551
41.4135
36.4791
36.3711
35.431
33.3026
33.2429
31.0634
31.5932
31.5765
31.8653
33.1736
33.0178
33.9085
39.34
38.022
42.4354
51.2447
51.9973
192.861
536.627
408.42
447.614
218.935
238.11
100.355
63.0613
64.5084
56.1664
43.7338
43.9587
41.2748
36.4804
36.4939
35.4468
33.3166
33.3123
31.0293
31.6104
31.5984
31.9076
33.3938
33.2266
34.2887
42.2274
39.9164
51.0895
324.704
211.277
867.725
518.74
610.963
302.931
115.815
121.619
94.9901
61.2846
62.6069
54.9578
43.3213
43.6328
40.9749
36.3607
36.4567
35.3548
33.2599
33.3069
30.9883
31.6168
31.6131
31.9404
33.6578
33.456
34.7886
46.3258
43.1414
60.3547
412.749
353.08
853.172
434.653
494.406
269.011
109.953
114.155
90.8052
59.7057
60.8646
53.824
42.8789
43.2142
40.6416
36.1992
36.3236
35.2216
33.1685
33.2391
30.9393
31.6123
31.6166
31.9645
33.9736
33.7309
35.4147
51.5204
47.5278
71.894
451.347
425.982
788.948
376.476
418.205
243.949
105.886
108.796
87.71
58.3849
59.3525
52.8457
42.4461
42.7682
40.2991
36.01
36.1535
35.0599
33.0523
33.1413
30.883
31.6008
31.6099
31.986
34.3622
34.0633
36.1882
57.7231
52.9705
84.0758
461.691
455.988
716.355
333.879
364.639
224.597
102.773
105.05
85.5463
57.2966
58.0914
52.0157
42.0488
42.3431
39.9752
35.8133
35.9609
34.887
32.9223
33.0207
30.8207
31.5871
31.5974
32.0121
34.8345
34.4723
37.1123
64.5322
59.4111
94.6349
456.217
461.446
648.407
301.332
324.954
209.117
100.068
102.067
83.8597
56.4582
57.062
51.3343
41.6922
41.9558
39.6781
35.6198
35.7643
34.7132
32.7861
32.8886
30.7542
31.5756
31.5838
32.0487
35.3961
34.9662
38.2003
70.7812
66.1934
102.609
442.36
453.328
588.478
275.615
294.355
196.381
97.6435
99.437
82.3721
55.8752
56.2906
50.827
41.3793
41.6096
39.4104
35.4344
35.5725
34.5439
32.6484
32.7517
30.6852
31.5702
31.5735
32.1004
36.0698
35.5523
39.5207
75.7514
72.1461
108.554
424.443
438.14
536.676
254.735
270.001
185.666
95.4614
97.0766
81.0142
55.4613
55.7602
50.4792
41.1204
41.309
39.1782
35.2602
35.3897
34.3819
32.512
32.6141
30.6151
31.5748
31.5702
32.1732
36.9132
36.2624
41.0953
79.6014
76.8067
112.917
404.936
419.647
492.11
237.402
250.11
176.483
93.4863
94.9497
79.7676
55.1245
55.3723
50.2277
40.9231
41.0654
38.9897
35.1006
35.2188
34.2303
32.3787
32.4783
30.5456
31.5959
31.5781
32.2797
37.9307
37.1542
42.7305
82.5863
80.4212
115.988
385.22
399.989
453.678
222.743
233.514
168.488
91.684
93.0208
78.6175
54.8217
55.0465
50.0206
40.7791
40.8827
38.8444
34.9588
35.0634
34.0916
32.2503
32.3461
30.4787
31.6447
31.605
32.4384
39.0076
38.1999
44.2282
84.8666
83.2174
118
366.043
380.355
420.359
210.148
219.419
161.435
90.0252
91.2569
77.5496
54.5379
54.7492
49.8341
40.6713
40.7494
38.7331
34.8355
34.9263
33.967
32.128
32.2191
30.4175
31.7321
31.6626
32.6585
40.031
39.2713
45.5311
86.5598
85.341
119.152
347.786
361.383
391.275
199.182
207.268
155.141
88.4849
89.6299
76.5501
54.2677
54.4692
49.6586
40.5851
40.6481
38.645
34.7287
34.8074
33.856
32.0123
32.0984
30.3653
31.8611
31.7605
32.9298
40.9555
40.272
46.6505
87.7623
86.903
119.614
330.619
343.389
365.71
189.523
196.655
149.47
87.0429
88.1159
75.6073
54.0078
54.2019
49.49
40.5114
40.5658
38.5716
34.6353
34.7042
33.7565
31.9031
31.9844
30.3248
32.025
31.8992
33.2314
41.7756
41.1701
47.6097
88.5569
87.9962
119.532
314.59
326.506
343.076
180.931
187.284
144.315
85.6826
86.6958
74.7109
53.7555
53.9441
49.3256
40.4449
40.4943
38.5073
34.5524
34.6137
33.6666
31.7997
31.8767
30.2979
32.2123
32.0701
33.5436
42.4983
41.965
48.43
89.0154
88.7005
119.026
299.679
310.759
322.901
173.219
178.926
139.592
84.3902
85.3535
73.8525
53.5083
53.6933
49.1635
40.3821
40.4289
38.4487
34.4775
34.533
33.5844
31.7015
31.7747
30.2847
32.4119
32.2614
33.8528
43.1331
42.6649
49.1293
89.1993
89.0849
118.194
285.833
296.12
304.802
166.242
171.41
135.238
83.1548
84.0764
73.0249
53.2639
53.447
49.0019
40.321
40.3668
38.3931
34.4087
34.4598
33.5082
31.6078
31.6777
30.2843
32.6154
32.4627
34.1512
43.6894
43.2792
49.7228
89.1615
89.2088
117.117
272.98
282.53
288.466
159.887
164.599
131.198
81.9672
82.8537
72.2221
53.0204
53.203
48.8393
40.2599
40.3058
38.3389
34.3442
34.3922
33.4367
31.5181
31.585
30.295
32.8169
32.6662
34.4344
44.1756
43.8172
50.2239
88.9469
89.1229
115.863
261.045
269.914
273.642
154.061
158.384
127.43
80.8199
81.6769
71.4394
52.776
52.9595
48.6742
40.1975
40.2445
38.2848
34.2828
34.3286
33.3688
31.4317
31.4962
30.3148
33.0128
32.8665
34.7006
44.5997
44.2871
50.6444
88.5935
88.8703
114.483
249.949
258.195
260.119
148.689
152.678
123.899
79.7066
80.5386
70.6726
52.5291
52.7146
48.5056
40.133
40.1817
38.2296
34.2236
34.2679
33.3036
31.3482
31.4106
30.3418
33.2008
33.0606
34.9491
44.9688
44.6969
50.9951
88.1334
88.4874
113.021
239.62
247.297
247.726
143.71
147.41
120.576
78.6223
79.433
69.9184
52.2784
52.4668
48.3322
40.0654
40.1164
38.1724
34.1655
34.209
33.2402
31.2671
31.3277
30.3742
33.38
33.2465
35.1804
45.2898
45.0534
51.2857
87.5935
88.0049
111.512
229.989
237.149
236.319
139.073
142.521
117.434
77.5624
78.3551
69.1738
52.0227
52.215
48.1532
39.994
40.0479
38.1126
34.1078
34.1511
33.1779
31.1881
31.2472
30.4108
33.5498
33.4233
35.3952
45.5686
45.3632
51.5248
86.9965
87.4488
109.983
220.994
227.683
225.777
134.736
137.962
114.455
76.5234
77.3008
68.4365
51.7611
51.9579
47.9677
39.9181
39.9754
38.0495
34.05
34.0934
33.1162
31.1108
31.1686
30.4483
33.7034
33.5908
35.5865
45.8035
45.6323
51.7153
86.3713
86.8406
108.475
212.603
218.838
216.028
130.7
133.694
111.656
75.5254
76.2665
67.7238
51.5026
51.6947
47.7827
39.8411
39.8984
37.9859
33.9946
34.0355
33.0579
31.039
31.0917
60.0942
59.0896
51.0307
125.5
183.651
210.421
82.8958
94.6351
81.9691
77.3956
73.8457
57.9466
170.253
267.986
268.76
218.444
239.097
148.104
96.6864
92.6382
66.7003
172.186
243.117
234.156
268.276
264.927
174.531
123.867
117.868
79.3373
157.843
191.269
187.772
213.187
209.713
167.609
168.001
157.596
91.853
1293.26
1582.15
1510.36
822.253
862.003
1113.06
144.9
260.66
238.93
184.262
180.888
151.372
377.732
312.952
139.394
757.498
1448.59
1416.51
2123.42
1825.56
1204.1
390.596
405.662
621.373
127.789
212.214
200.457
232.709
216.73
129.541
65.9102
48.4244
40.2964
1508.14
1055.49
1969.6
39.8889
47.9437
56.9724
1722.57
1720.53
60.0894
65.7113
73.4536
42.0058
53.4812
47.1862
475.381
582.618
637.427
206.037
263.575
198.979
70.1963
61.6094
91.8592
48.4179
55.0815
58.8884
47.5748
51.2368
45.7608
37.436
37.2075
35.4824
49.0044
39.3486
39.9512
38.7366
39.1836
48.296
1315.57
1727.52
1726.14
1296.88
1303.9
1054.85
86.3071
81.7108
132.151
57.993
68.5356
70.9328
62.4832
65.727
55.9264
38.6595
38.2983
36.1223
54.6832
41.2909
42.2688
40.1842
40.9942
53.9211
86.4071
82.9261
61.8734
207.298
155.407
158.616
138.337
140.981
185.619
880.861
1082.45
1056.92
1411.57
1396.9
1107.21
90.521
90.0508
143.077
63.7514
75.8263
76.7597
72.9379
74.5642
62.6693
40.4802
39.9684
37.0205
62.2192
44.1319
45.4324
42.6142
43.7348
61.118
108.926
104.067
72.4353
335.956
214.713
218.843
190.443
194.572
267.146
554.868
706.438
680.479
1058.76
965.165
652.489
44.8954
43.2806
38.2516
73.0437
47.7292
49.5665
45.8998
47.2043
71.605
142.902
135.251
87.7138
554.043
314.663
310.085
268.454
275.087
478.868
1816.5
1912.37
2363.09
358.057
662.112
586.758
495.077
478.85
394.15
51.24
47.6773
40.044
89.6776
53.2828
58.4348
50.2402
52.4358
86.878
203.454
188.652
104.396
1247.38
920.36
929.004
659.262
667.173
892.293
2695.59
3486.61
302.378
600.76
2702.37
2070.96
1354.35
1192.79
689.472
126.069
193.605
165.122
293.929
266.902
155.946
85.121
100.206
91.103
153.472
144.951
112.811
1007.88
1269.66
1286.87
688.707
735.266
577.517
144.183
174.068
116.887
444.604
325.929
298.558
466.947
445.289
730.161
167.627
86.1262
90.099
82.0853
84.9342
164.294
57.0775
72.4007
67.2275
216.658
388.485
372.601
493.708
481.542
227.212
174.198
317.185
300.89
368.485
356.362
200.902
1142.05
1435.62
1424.19
1719.84
1706.44
1306.71
261.079
266.961
160.659
1009.56
563.672
564.383
586.904
592.165
941.743
868.291
505.564
487.046
564.279
564.87
1001.83
149.827
244.795
258.042
249.244
182.775
186.543
161.88
165.185
222.797
65.4141
91.3452
87.6071
300.647
382.32
375.883
445.738
441.266
350.996
247.758
509.368
497.627
368.157
359.435
286.481
718.517
1203.07
1092.16
1033.05
1010.71
822.649
254.291
246.041
173.351
641.217
495.193
505.673
282.136
295.89
590.878
874.008
573.181
580.568
516.021
526.219
761.568
174.884
263.206
256.823
435.587
255.758
262.037
223.202
227.768
369.685
77.4831
115.976
110.622
455.337
591.955
587.357
815.619
811.836
592.523
363.349
455.99
450.491
582.817
578.341
440.312
431.499
530.009
512.151
655.322
632.118
504.531
866.493
636.855
649.693
311.482
320.79
646.466
90.559
154.419
145.616
856.981
1179.23
1177.49
609.635
821.173
818.49
1169.47
1141.28
811.363
311.881
487.422
439.199
564.467
505.562
295.81
2023.56
1645.93
1728.07
11096.8
2308.75
3523
935.653
941.676
1255.56
125.315
246.274
208.669
1083.85
1038.98
838.766
4817.5
4861.27
8821.21
944.28
1188.18
1133.56
36.5402
36.2645
34.8061
44.7163
38.0941
38.5936
37.1547
37.8949
44.13
55.8149
54.3623
47.907
86.048
62.5677
65.2999
58.9154
61.5475
82.3177
940.318
1235.85
896.57
65.8632
64.364
54.0962
139.454
77.5187
80.9534
72.3373
76.3385
136.008
95.2604
89.5786
137.072
66.1164
77.9809
78.018
77.4023
77.7994
65.7772
944.167
1625.74
1403.37
1240.35
1187.75
954.435
407.263
442.589
826.495
274.726
351.831
339.962
425.24
364.878
282.829
109.469
68.9049
71.3358
66.0633
68.2119
106.426