/*--------------------------------*- C++ -*----------------------------------*\
| =========                 |                                                 |
| \\      /  F ield         | OpenFOAM: The Open Source CFD Toolbox           |
|  \\    /   O peration     | Version:  v1912                                 |
|   \\  /    A nd           | Website:  www.openfoam.com                      |
|    \\/     M anipulation  |                                                 |
\*---------------------------------------------------------------------------*/
FoamFile
{
    version     2.0;
    format      ascii;
    class       volScalarField;
    location    "1000";
    object      p;
}
// * * * * * * * * * * * * * * * * * * * * * * * * * * * * * * * * * * * * * //

dimensions      [0 2 -2 0 0 0 0];


internalField   nonuniform List<scalar> 
12556
(
658.48
657.685
655.721
651.619
646.121
633.867
613.975
582.255
534.346
465.23
370.975
251.187
111.425
-36.6769
-179.055
-304.384
-406.932
-486.196
-544.514
-585.648
-619.814
-635.788
-644.987
-649.312
658.957
658.439
657.08
654.024
648.531
638.065
620.335
593.99
550.716
486.503
396.118
277.377
134.691
-19.5098
-168.74
-299.6
-405.645
-486.7
-553.711
-592.389
-625.966
-640.118
-648.139
-651.885
660.174
660.287
660.273
659.462
655.551
649.245
637.179
615.31
579.682
522.418
434.763
309.782
149.728
-27.0154
-194.683
-334.364
-440.735
-517.097
-579.511
-611.651
-640.362
-650.556
-656.079
-658.624
661.588
662.588
664.437
666.737
665.618
665.388
661.797
648.55
626.497
583.849
505.643
373.395
180.203
-43.4799
-245.576
-397.968
-502.076
-569.102
-619.518
-640.85
-661.231
-665.705
-667.658
-668.48
662.24
664.246
668.196
674.088
676.837
684.141
691.703
691.606
690.177
674.46
623.592
493.276
237.556
-85.4765
-346.355
-510.111
-598.231
-642.203
-672.412
-678.233
-685.749
-682.971
-680.592
-679.325
661.157
664.166
670.213
679.747
687.041
702.31
721.858
737.837
764.435
792.964
805.883
727.802
353.775
-211.523
-553.907
-690.256
-731.217
-735.951
-734.416
-719.903
-710.78
-699.811
-692.683
-689.143
657.418
661.305
669.177
681.9
693.848
716.32
746.754
778.719
833.166
913.137
1037.93
1215.94
710.574
-662.386
-951.057
-951.801
-898.031
-841.638
-797.562
-760.392
-732.502
-713.416
-701.674
-695.941
650.194
654.721
663.903
678.907
694.956
722.703
760.828
804.964
877.823
988.727
1178.93
1587.44
-2055.26
-1569.94
-1261.94
-1068.51
-940.904
-851.186
-792.539
-746.611
-720.749
-705.215
-697.677
638.852
643.706
653.534
669.672
688.81
719.196
760.696
810.789
887.908
994.707
1136.75
1272.68
-3488.17
-2078.57
-1501.19
-1192.79
-1009.15
-882.984
-809.035
-749.257
-719.129
-701.246
-692.576
623.048
627.891
637.661
653.712
674.685
705.03
745.867
796.348
868.149
958.49
1058.67
1136.89
-3408.04
-2146.15
-1556.29
-1224.89
-1025.4
-883.897
-804.811
-737.98
-706.858
-688.453
-679.498
602.758
607.268
616.323
631.168
652.699
680.716
717.796
764.922
827.846
904.529
989.373
1068.58
-2633.51
-1854.39
-1426.84
-1157.89
-984.587
-851.717
-778.866
-712.486
-683.653
-666.548
-658.157
578.241
582.14
589.934
602.694
623.619
647.51
678.606
719.851
772.194
837.752
919.438
1020.69
-1758.07
-1407.97
-1186.2
-1019.43
-898.069
-791.922
-733.852
-674.52
-650.603
-636.259
-629.134
550.038
553.133
559.265
569.177
588.482
607.019
630.626
663.869
702.99
753.772
826.242
945.778
-775.02
-916.982
-957.851
-915.106
-849.532
-785.733
-714.452
-675.241
-627.357
-609.811
-599.109
-593.707
518.825
521.05
525.4
532.319
549.313
561.884
577.022
600.793
623.638
651.36
688.516
784.894
224.557
-390.038
-603.531
-673.845
-682.91
-667.462
-630.005
-609.432
-574.66
-563.882
-557.098
-553.588
485.427
486.695
489.099
492.757
506.828
512.965
519.213
532.533
537.523
536.914
520.122
456.223
179.606
-169.44
-381.036
-490.664
-540.309
-557.394
-547.029
-542.166
-519.953
-515.438
-512.314
-510.622
450.673
451.013
451.547
452.133
463.229
463.549
461.901
465.435
455.372
433.354
386.848
294.832
125.635
-88.0182
-254.902
-364.125
-428.11
-462.576
-470.629
-477.421
-465.95
-466.657
-466.643
-466.534
415.391
414.915
413.823
411.763
419.973
415.341
407.292
402.972
382.333
347.77
293.267
208.374
88.8911
-55.4699
-181.052
-276.102
-341.427
-383.282
-403.077
-417.613
-414.519
-419.224
-421.648
-422.767
380.333
379.183
376.765
372.576
378.217
369.788
357.147
347.308
320.811
281.826
228.292
155.497
64.849
-40.2924
-136.575
-215.883
-276.103
-319.251
-344.962
-363.883
-366.809
-374.256
-378.449
-380.454
346.113
344.441
341.015
335.25
338.763
327.714
312.192
298.986
270.139
231.129
181.839
120.296
48.5226
-32.0779
-107.831
-173.552
-226.843
-267.924
-295.689
-316.527
-323.336
-332.437
-337.758
-340.381
313.202
311.164
307.041
300.229
302.08
289.456
272.46
257.563
228.599
191.696
147.526
95.4492
37.0218
-26.9802
-87.9725
-142.65
-188.989
-226.559
-254.073
-275.181
-284.229
-294.11
-300.035
-302.992
281.938
279.674
275.137
267.738
268.362
255.013
237.598
222.187
194.403
160.521
121.412
77.1364
28.6733
-23.4112
-73.4297
-119.231
-159.243
-192.861
-218.866
-239.216
-249.297
-259.325
-265.452
-268.536
252.534
250.166
245.448
237.838
237.614
224.182
207.084
191.937
166.022
135.453
101.022
63.1838
22.4663
-20.6563
-62.2522
-100.875
-135.342
-165.05
-188.931
-207.94
-218.219
-227.963
-234.003
-237.06
225.098
222.72
218.009
210.476
209.715
196.66
180.363
165.965
142.239
114.964
84.7467
52.2713
17.7626
-18.3714
-53.3169
-86.0665
-115.737
-141.791
-163.311
-180.687
-190.622
-199.806
-205.564
-208.491
199.646
197.333
192.768
185.526
184.47
172.104
156.905
143.539
122.105
97.9556
71.5055
43.552
14.1423
-16.3809
-45.9448
-73.8247
-99.3573
-122.087
-141.222
-156.86
-166.117
-174.58
-179.936
-182.665
176.132
173.938
169.621
162.815
161.652
150.172
136.236
124.052
104.894
83.6395
60.553
36.4599
11.3199
-14.5913
-39.7091
-63.4976
-85.4535
-105.198
-122.034
-135.94
-144.331
-151.992
-156.877
-159.372
154.463
152.426
148.424
142.152
141.019
130.538
117.941
107.004
90.0381
71.4376
51.3593
30.6012
9.09488
-12.9502
-34.3289
-54.6359
-73.4844
-90.5634
-105.241
-117.482
-124.915
-131.749
-136.134
-138.376
134.512
132.655
129.014
123.332
122.333
112.905
101.666
91.9867
77.0962
60.919
43.5392
25.6942
7.32321
-11.4267
-29.6123
-46.9215
-63.0538
-77.7546
-90.4355
-101.108
-107.552
-113.568
-117.447
-119.431
116.129
114.466
111.211
106.149
105.36
97.0011
87.1004
78.6591
65.7155
51.7521
36.804
21.5305
5.89867
-10.0013
-25.4221
-40.1204
-53.8612
-66.4364
-77.2812
-86.4964
-91.9534
-97.1812
-100.563
-102.295
99.1501
97.6901
94.8323
90.4015
89.8797
82.5808
73.9799
66.7399
55.6138
43.6785
30.9339
17.9534
4.74178
-8.66041
-21.657
-34.0566
-45.675
-56.3426
-65.5014
-73.3688
-77.8614
-82.339
-85.2438
-86.7309
83.4078
82.1523
79.6959
75.8959
75.6838
69.4221
62.0723
55.9903
46.5598
36.4907
25.756
14.8408
3.79167
-7.39373
-18.2385
-28.592
-38.3102
-47.2555
-54.8627
-61.4853
-65.0434
-68.8125
-71.2622
-72.5162
68.7216
67.6711
65.6156
62.4404
62.5771
57.3246
51.175
46.2063
38.3611
30.0194
21.1321
12.0964
3.00104
-6.19241
-15.1039
-23.6155
-31.616
-38.9946
-45.1667
-50.636
-53.2853
-56.3854
-58.4025
-59.4343
54.9431
54.0937
52.4337
49.8726
50.3816
46.1062
41.1087
37.2123
30.8558
24.1239
16.949
9.64206
2.33245
-5.04852
-12.2015
-19.0357
-25.467
-31.4074
-36.2415
-40.636
-42.4088
-44.8769
-46.484
-47.3064
41.8102
41.1667
39.9034
37.9562
38.9101
35.5993
31.7124
28.8533
23.9034
18.6836
13.1105
7.41233
1.75555
-3.95421
-9.48688
-14.7746
-19.7557
-24.3615
-27.9352
-31.3178
-32.1857
-34.0451
-35.256
-35.8727
29.4627
28.9993
28.1098
26.7444
28.0589
25.6539
22.8417
20.9938
17.382
13.5932
9.53298
5.35067
1.24562
-2.90132
-6.92113
-10.7649
-14.3892
-17.7417
-20.1135
-22.5389
-22.6317
-23.9252
-24.7702
-25.2099
16.687
16.4718
16.0019
15.28
17.4971
16.1121
14.3562
13.5144
11.1836
8.75587
6.13805
3.40425
0.783432
-1.87988
-4.46835
-6.94644
-9.28573
-11.4451
-12.6445
-14.1455
-12.9298
-13.6233
-14.0744
-14.2803
7.53776
7.35081
7.12073
6.70379
7.64224
6.74153
6.0199
6.31766
5.21305
4.07364
2.85015
1.5012
0.365438
-0.874686
-2.09344
-3.26403
-4.37184
-5.38409
-5.31638
-5.97651
-5.71448
-6.08238
-6.28987
-6.46256
1304.87
-3700.02
-2146.24
1147.38
-3706.47
-3786.93
1075.27
-2862.64
-3626.27
1027.35
-1915.58
-2742.58
953.088
-831.318
-864.792
-1034.24
-1799.91
811.368
312.877
-787.21
177.66
-403.354
-938.353
1588.2
871.811
-1839.21
-488.512
-4613.24
-2476.84
-3402.45
-2193.38
-1675.59
1077.47
1139.56
1262.4
-5216.86
-5311.85
-3473.17
-2395.56
-2301.35
1006.09
1065.78
1128.36
1107.61
1131.32
1169.32
-3977.81
-4663.59
-2741.75
-2109.92
-2359.23
938.084
1013.17
1058.7
1050.8
1088.54
1098.15
-2685.03
-3238.81
853.202
940.975
1005.93
992.12
1055.65
1074.95
-1571.89
-1499.53
-2008.96
726.725
799.556
929.07
900.236
1000.91
1021.05
522.881
284.637
321.568
1549.29
1268.62
2180.08
1618.92
-5304.56
-4684.6
-3233.99
-4495.27
-5161.91
1172.81
1191.47
1185.68
1189.15
1176.51
1250.35
1192.07
-4703.05
-5197.13
-3794.93
-5077.23
-4618.37
-5170.65
-5095.81
-3814.22
1100.71
1126.07
1098.67
1129.35
1102.84
1174.5
1132.25
-3319.78
-3924.99
-3213.34
-3828.71
-3249.87
-4579.12
-3919.21
-3325.49
1076.55
1088.36
1045.23
1091.53
1080.63
1101.36
1091.4
-2082.91
-2607.93
1023.42
1054.13
986.552
-1535.21
1059.54
1027.98
1079
1061.22
-1570.06
-973.531
-1429.06
-1527.97
1035.36
1001.1
889.703
-62.5576
1007.9
921.153
1025.99
1007.31
-139.454
1155.37
1290.62
1501.95
1479.75
1610.58
2060.3
-5266.7
-2708.02
1202.6
1195.68
1264.29
-3205.75
-1865.83
-1608.23
-1995.47
-1941.54
-1878.36
-2139.55
-191.37
-480.326
-840.116
1282.98
1548.78
1431.77
1229.38
2977.85
2154.58
-2404.95
-4330.38
-3004.72
-2181.18
-2468.55
-2267.79
-2562.88
-2054.34
-3172.11
-2637.57
-2386.52
-1161.3
-342.655
-481.308
1423.59
1794.58
2200.45
-2081.35
-312.107
1233.83
-5402.4
-3932.06
-5292.39
-2649.39
-5113.76
-3609.72
-5278.55
-5287.73
-4307.02
-4353.67
-2849
-3144.9
-2918.51
-3122.2
-2823.54
-3491.95
-3167.58
-2997.78
1064.34
1036.67
1026.23
-1548.82
-1795.78
-1872.66
1007.11
968.067
953.077
986.649
972.758
1008.1
1428.64
1250.02
1387.84
1269.98
1469.59
1178.48
1251.26
1349.19
1969.19
2141.4
2832.22
1519.53
2039.36
1875.48
2036.7
1487.13
-5130.02
-5093.6
1182.85
1180.77
1182.29
1213.69
1164.93
1178.16
1177.28
1165.96
1206.21
-4943.67
-4973.78
-4882.26
-4330.68
-4424.19
-4142.58
-4289.75
-4851.95
-5171.33
-4469.95
-4408.16
-4445.04
-4473.91
-5162.49
1114.1
1112.14
1157.19
1153.76
-3568.24
-3523.43
-3614.34
1087.44
1086.35
1093.86
1093.26
-2778.85
-2488.5
-2380.67
-2508.92
-2800.54
1033.67
1004.71
991.099
1022.34
1009.38
1037.01
-1207.49
1041.07
1037.32
1069.1
1068.45
-1882.1
-1206.64
-1221.38
-1466.94
946.795
923.874
995.46
1009.5
471.691
157.566
1014.43
-336.782
110.905
-254.417
1014.11
-392.062
-282.117
78.8808
-2990.49
-2069.49
-2207.36
560.504
536.829
764.993
656.922
660.317
956.215
196.604
-123.364
-296.363
3958.89
-2238.64
-2387.89
-900.843
-1139.7
-1161.26
-140.809
-378.063
-118.688
2320.33
2551.19
3016.9
-2212.58
-67.6148
1769.95
-5258.06
-5757.94
-5720.92
-5314.97
-4117.46
-4303.97
-4130.31
-4912.1
-4776.77
-4538
1091.2
1076.1
1070.04
1086.25
1078.41
1092.26
1048.94
1039.87
1065.34
1001.97
982.501
977.683
858.867
594.717
341.792
-5245.89
-5699.52
-5773.75
-4944.01
-4101.78
-3762.31
-4369.26
-4186.36
-4974.4
-4813.69
-5076.16
-4959.43
-5113.41
1109.39
1099.16
1089.23
1108.13
1110.09
1106.21
-4076.4
-3924.2
-3790.65
-3571.89
-3333.97
-3548.07
-4285.9
-3897.62
-4085.43
-3619.8
-3830.11
-4240.72
1082.96
1059.47
1051.83
1068.08
1061.85
1084.04
1091.24
1104.79
1101.23
1092.87
1103.71
1084.87
1097.7
1101.89
1106.89
1099.64
1096.84
1091.38
-2305.82
-2448.36
-2176.57
-1401.47
-1395.27
1053.87
1023.86
1073.62
1081.22
1092.07
1083.62
1064.02
-1699.54
913.924
912.849
875.642
975.79
968.019
998.076
124.258
373.064
133.722
1008.67
443.842
673.436
507.86
626.39
1015.27
1011.99
-4561.74
-3149.45
-4177.86
-3320.25
-3375.06
-1900.37
-2027.2
-2046.05
1203.8
1193.19
2683.89
2968.66
3631.24
2760.23
2552.62
-2540.56
-2391.86
-2343.83
-2400.12
-2559.42
-1178.38
-1012.6
-1018.8
-1020.07
-1183.23
-810.894
-969.313
-590.341
-606.441
-761.906
-400.404
-553.749
-493.235
-5631.96
-4971.19
-4483.61
-5407.38
-5103.95
-4292.9
-3601.02
-4283.74
-5612.97
-5572.88
-5262.35
-5310.44
-5698.11
-5634.41
-4514.63
-4357.39
-4165.98
-4411.13
-4580.36
-4186.55
-4361.8
-4623.11
-4492.86
-4733.3
-4562.51
-2978.12
-3029.93
-2998.95
-2915.87
-3038.02
-3351.77
-3250.58
-3380.81
-3079.18
-3207.44
-3302.84
-1752.3
-1726.21
-1855.72
989.189
984.5
999.291
1009.63
996.304
991.653
1329.1
1306.56
1332.11
1404.09
1333.79
1539.22
1432.96
1358.29
1205.79
1255.14
1225.03
1314.55
1267.77
1216.79
1694.86
1733.65
1581.29
1744.73
1664.42
-5640.54
-5672.31
-5220.68
-5796.88
-5796.41
-5792.4
-5634.08
-5495.73
-5803.75
-5666.71
-4951.41
-5480.33
-5626.06
1178.18
1182.72
1184.87
1183.96
1183.18
1180.49
1190.56
1191.9
1186.97
1189.63
1167.2
1198.13
1189.97
1218.19
1202.03
1167.66
1174.98
1185.11
1183.87
1188.29
1185.85
1175.73
-5211.35
-5112.45
-4848.21
-5076.89
-5348.72
-5235.24
1123
1117.93
1133.12
1123.72
1111.07
1110.3
1115.37
1111.01
1178.89
1167.47
1191.09
1182.43
1146.89
1135.59
1163.54
1151.43
-3594.54
-3730.05
-3424.16
-3552.54
-3649.01
-3972.83
-4127.42
-3775.95
-3924.62
1097.48
1103.72
1090.6
1109.18
1099.92
1104.1
1110.99
1099.31
1084.84
1103.29
1096.25
1100.04
1100.75
1096.32
1104.35
1103.5
1108.94
1104.08
1097.58
1101.66
1098.44
1097.12
1091.64
1096.59
1098.36
-2569.28
-2635.19
-2697.18
-2556.86
-2743.92
-2675.19
-1193.88
-1352.63
-1386.58
-1190.44
1051.96
1028.66
1078.25
1079.31
1072.08
1065.53
1085.6
1079.51
-1772.99
994.152
964.249
956.576
652.353
552.235
1007.84
243.818
414.927
299.557
1011.92
-489.936
-50.0644
181.6
-94.0409
998.54
-1798.9
-1469.88
-925.5
-2194.33
-2246.78
-1046.08
-1079.71
-1472.79
-2257.29
-974.033
-966.663
-814.423
-1983.03
-1518.72
-1459.41
3018.48
3375.02
3964.42
-1961.88
292.757
2416.35
-1070.79
-616.097
-2071.21
-4292.02
-4864.43
-5171.11
1148.81
1135.14
1120.32
1154.6
1140.19
1154.59
-1552.39
-1682.44
-1700.37
-2096.02
-1854.68
-1787.89
1004.81
999.032
1012.32
-5261.79
-5433.01
-4907.3
1115.6
1102.95
1112.98
1122.07
1123.96
1132.77
1135.27
1145.69
1141.04
1023.25
1012.03
1007.42
-1550.52
-1504.84
-1493.54
1032.58
1037.42
1029.57
-1632.8
-1647.63
-1559.6
-1391.53
-1377.45
-1509.3
1009.6
1024.35
1031.18
1031.03
1003.52
-5132.5
-3237.54
-1920.29
-1979.25
-1986.97
-2188.91
-2057.48
-2017.09
1214.01
-3618.02
-3092.78
-3659.35
-2303.59
-2361.2
-2228.01
-817.873
-833.164
-664.303
-665.273
-760.899
-1090.67
-446.103
-2228.99
-5455.7
-5207.65
-5033.36
-5745.51
-5685.12
-2891.99
-2922.04
-2876.16
-3161.2
-3152.52
-3125.79
-2750.33
-2872.17
-2951.85
-3459.94
-3410.07
-3454.23
-1864.77
-1841.53
-1871.6
1385.02
1416.9
1269.63
1289.46
1315.11
1294.99
1180.42
1199.23
1193.89
1276.4
1260.19
1235.97
1991.29
1793.9
1769.37
1931.42
1890.24
2031.9
1462.45
1504.92
1537.29
1177.74
1179.73
1189.26
1180.92
1181.76
1182.03
1201.96
1204.2
1191.53
1190.84
1167.27
1174.51
1173.08
1190.11
1186.01
1175.28
1173.51
1176.98
1178.93
1173.11
1174.93
1170.21
1117.05
1122.36
1119.74
1107.69
1110.67
1114.99
1164.87
1175.36
1165.5
1176.76
1172.4
1205.31
1201.72
1136.76
1168
1163.63
1144.48
1149.72
1161.17
-3747.62
-3799.86
-3495.02
-3542.21
-3567.21
-3852.08
-3873.49
-3741.79
-3876.66
-3735.39
1021.12
1014.64
1025.5
1046.28
1030.91
1024.26
1044.81
1050.14
1045.22
1034.14
1037.7
1040.65
-1879.78
968.322
968.024
974.562
739.227
976.466
343.239
488.397
615.249
1020.46
1017.53
1013.51
-395.246
-250.037
-223.93
-237.568
1011.64
1018.26
1020.93
-126.987
-201.121
-350.58
-2108.88
-2143.33
-2232.11
-2185.88
-2165.48
3785.59
4408.79
3472.88
-2286.49
-2314.46
-2245.34
-2406.04
-2354.48
-2341.12
-1052.37
-149.964
-2035.03
-5499.71
-5506.46
-5456.2
-5476.39
-5746.16
-5611.3
-5618.9
-5592.31
-5603.26
-5735.07
-4872.66
-4796.01
-4838.01
-4702.3
-4752.4
-4828.72
-5746.15
-5589.18
-5556.68
-5623.74
-5614.99
-5774.86
-5033.83
-4956.26
-4994.47
-4880.57
-4919.03
-4999.55
-5423.49
-5441.28
-5351.22
-5388.94
1104.15
1099.48
1099.59
1093.93
1090.84
1089.17
1095.29
1093.43
1097.61
-1507.96
-1560.43
-1393.61
-1464.31
1064.16
1065.43
1065.99
1063.43
1024.23
1027.42
1037.19
1021.23
1084.49
1082.14
1079.55
1087.68
1085.22
1088.87
1073.62
1072.19
1076.69
1061.1
1066.82
-1708.99
-1700.27
-1687.83
-1564.42
943.271
1003.22
1158.14
1000.17
989.746
987.232
1010.62
378.034
358.05
1143.48
1010.09
770.218
1016.33
1025.75
1020.67
1006.21
-4805.74
-5087.57
-4889.82
-3960.95
-3741.97
-2891.85
-4607.07
-4301.07
-3275.48
-3403.38
-2041.31
-2028.08
-2038.55
1208.47
1175.23
3206.4
3090.98
2909.15
2272.44
2138.66
2703.09
2457.84
2538.12
-2467.31
-2412.6
-2507.33
-1031.77
-1031.94
-1021.55
-1126.78
-847.135
-831.765
-818.301
-962.046
-912.251
-904.133
-591.036
-649.392
-649.265
-474.803
-475.78
-520.438
-5484.87
-5361.02
-5550.89
-5311.9
-5540.46
-5625.8
-5658.01
-5604.24
-5588.91
-5494.4
-5509.72
-5494.51
-5481.99
-5570.4
-5672.55
-5558.42
-5576.72
-5526.33
-5541.99
-5653.75
-4465.52
-4392.95
-4441.48
-4463.42
-4525.77
-4237.32
-4261.92
-4227.53
-4310.46
-4673.6
-4713.77
-4678.7
-4593.79
-4649.12
-4490.26
-4541.84
-4618.5
-3015.06
-2941.79
-2927.59
-2955.99
-2890.68
-2941.7
-3082.35
-3109.51
-3058.75
-3315.5
-3357.3
-3386.31
1354.31
1286.79
1222.4
1208.17
1188
1225.76
1246.9
1234.86
1703.83
1782.74
1834.95
2021.04
1906.98
1595.11
1559.29
1629.35
-5650.87
-5479.36
-5460.91
-5522.77
-5499.13
-5663.21
-5804.4
-5796.53
-5606.55
-5779.27
-5784.52
-5727.03
-5772.69
-5566.5
-5789.92
-5805.32
-5850.01
-5726.11
1179.95
1181.29
1178.89
1182.03
1181.7
1181.04
1196.67
1199.22
1191.88
1194.21
1176.47
1175.6
1167.95
1170.72
1181.62
1178.25
1177.37
1176.6
1172.9
1173.91
1176.79
1177.65
-5182.11
-5097.47
-5127.16
-5029.28
-5063.21
-5144.36
-5305.39
-5231.58
-5301.67
-5154.37
-5185.78
-5266.67
1121.92
1123.02
1123.13
1118.95
1121.74
1120.23
1128.77
1126.2
1133.63
1122.17
1122.22
1125.29
1111.2
1112.81
1111.81
1112.91
1113.26
1110.99
1113.19
1112.79
1115.53
1110.73
1110.91
1111.66
1185.9
1181.35
1175.21
1178.52
1182.52
1170.18
1174.34
1171.37
1195.28
1190.1
1150.99
1147.83
1142.96
1145.67
1148.83
1137.99
1133.31
1137.02
1159.56
1161.84
1166.02
1153.56
1157.69
1155.52
1159.51
1155.41
-3678.53
-3706.98
-3621.98
-3592.5
-3627.35
-4018.47
-4049.93
-4009.6
-4164.4
-4100.66
-4069.07
-3818.23
-3854.35
-3820.89
-3964.56
-3919.97
-3872.07
1098.75
1095.46
1094.06
1098.83
1097.24
1101.16
1104.76
1101.29
1106.78
1109.15
1100.75
1091.56
1088.25
1089.17
1093.01
1092.53
1092.18
1097.79
1093.85
1096.45
1106.71
1104.49
1107.21
1109.01
1111.18
1106.65
1107.68
1105.81
1098.34
1099.67
1096.38
1096.59
-2652.98
-2634.47
-2684.02
-2544.78
-2589.76
-2624.24
-2806.41
-2841.59
-2726.5
-2739.75
-2751.26
-1322.72
-1323.04
-1379.13
-1200.56
-1256.58
-1270.41
1054.75
1047.53
1065.75
1062.15
1034.11
1034.45
1030.76
1037.03
1036.38
1042.77
1039.83
1077.97
1076.12
1075.99
1077.81
1076.72
1078.31
1084.27
1078.1
1077.36
1076.43
1077.28
1081.84
-1822.34
983.065
980.171
992.506
607.884
632.18
704.767
561.132
571.186
544.53
1008.93
347.176
291.698
219.621
1012.04
1013.78
1011.77
-467
43.4089
-21.3228
161.283
150.229
161.368
-42.1771
-170.1
-155.36
-51.4297
1008.55
1017.72
1011.35
608.835
582.249
563.059
570.852
528.853
504.498
511.286
448.157
420.872
422.535
333.766
308.935
299.311
186.089
171.208
144.741
18.1375
18.3292
-24.8791
-147.66
-133.562
-186.713
-291.854
-269.759
-323.69
-406.003
-382.068
-430.073
-490.49
-468.965
639.207
621.23
590.378
613.116
580.317
539.341
565.854
508.787
460.146
484.237
391.361
344.848
353.484
220.437
192.45
170.699
14.2977
17.5107
-37.8707
-184.909
-154.641
-229.359
-345.544
-302.397
-378.545
-461.019
-417.02
-483.563
-539.102
-500.338
680.198
675.7
633.51
672.825
657.348
597.156
648.999
608.9
529.571
588.717
498.225
412.399
455.783
287.543
233.316
219.554
0.732373
12.3364
-70.8436
-261.241
-199.208
-314.374
-442.189
-364.773
-475.679
-552.396
-479.842
-571.065
-611.977
-555.281
726.436
740.971
691.504
745.752
758.693
680.542
761.617
760.151
641.569
753.672
694.138
536.562
652.634
425.922
312.814
315.698
-51.9516
-6.4373
-164.858
-425.076
-290.809
-487.175
-613.015
-476.789
-638.267
-685.435
-581.613
-694.371
-708.838
-633.963
769.564
803.939
757.442
817.52
866
786.104
885.323
954.181
806.423
980.314
1053.55
765.468
1060.26
777.669
483.169
646.867
-298.588
-83.0141
-488.021
-788.581
-491.032
-829.742
-877.387
-668.973
-878.658
-863.134
-725.828
-854.426
-825.047
-736.586
800.248
849.787
817.629
869.82
944.854
889.909
976.503
1104.25
1001.1
1163.69
1500.69
1173.42
1402.69
1558.78
1172.12
996.893
-119.537
129.857
-965.702
-1017.43
-797.926
-1405.57
-1233.98
-960.513
-1185.26
-1062.11
-912.691
-1027.91
-942.044
-855.102
811.354
866.649
856.875
888.578
967.294
955.967
998.642
1111.56
1119.19
1179.97
1247.36
1250.43
1564.36
1653.86
1689.86
-2775.85
-2294.01
-1828.06
-1987.82
-1557.43
-1325.35
-1455.93
-1227.02
-1109.34
-1169.1
-1032.57
-968.403
801.737
854.916
866.153
875.325
944.297
964.752
969.75
1050.65
1098.51
1116.89
1149.71
1175.89
1245.6
1247.93
1276.8
-3602.72
-2938.4
-2803.19
-2170.86
-1679.97
-1611.09
-1561.7
-1294.13
-1254.75
-1226.62
-1068.39
-1047.39
774.218
821.593
848.337
839.483
898.135
934.359
919.178
984.515
1034
1040.56
1062.16
1081.61
1126.82
1135.67
1150.17
-3152.94
-2705.43
-2853.19
-1949.12
-1570.4
-1672.14
-1473.01
-1242.96
-1292
-1182.8
-1038.42
-1066.93
732.282
772.233
810.61
787.422
837.474
884.258
855.825
916.189
968.023
972.687
994.073
1010.26
1062.33
1073.63
1081.8
-2303.99
-2078.23
-2324.74
-1524.96
-1312.03
-1515.6
-1252.16
-1100.74
-1214.22
-1058.59
-952.58
-1021.39
678.773
709.577
757.742
721.489
761.45
820.036
776.681
830.919
897.208
899.502
924.783
942.935
1013.61
1031.86
1041.2
-1439.92
-1432.07
-1609.91
-1064.5
-1004.42
-1236.24
-981.945
-914.397
-1056.39
-892.848
-833.13
-924.83
616.469
635.913
692.069
643.362
667.991
739.696
677.302
711.45
804.782
796.405
818.092
864.586
929.312
961.569
976.623
-512.479
-593.759
-822.912
-491.197
-650.565
-959.153
-679.704
-724.189
-929.512
-729.238
-727.203
-866.295
-722.847
-703.979
-800.887
549.602
556.56
617.337
558.83
564.079
643.931
564.97
563.372
677.595
645.785
652.853
717.594
741.832
746.137
829.32
251.784
19.5502
-86.7858
-205.555
-383.692
-568.331
-425.411
-511.874
-664.093
-530.691
-566.478
-683.903
-573.152
-582.896
-672.42
481.903
477.606
536.492
475.22
463.648
538.045
457.61
429.608
527.005
416.082
353.976
475.607
325.196
191.608
266.382
137.899
-46.2354
-94.2515
-101.634
-242.66
-339.727
-280.623
-369.045
-470.269
-391.299
-441.318
-531.798
-453.349
-478.947
-555.112
418.004
405.182
458.714
399.538
376.998
440.572
367.178
329.138
401.482
313.49
250.17
322.652
225.873
131.001
172.852
96.6439
-23.3577
-37.8677
-61.3006
-165.521
-218.71
-195.993
-273.643
-341.774
-295.077
-347.251
-415.412
-361.013
-393.287
-456.009
360.53
342.519
388.548
335.118
307.754
358.093
296.707
257.543
308.912
242.477
186.092
231.364
166.649
94.9129
120.331
69.9843
-15.64
-20.629
-43.1953
-121.8
-152.333
-145.84
-210.192
-255.295
-228.935
-277.168
-327.584
-290.714
-324.572
-374.549
310.385
289.932
328.459
281.879
253.519
292.927
242.609
205.801
243.051
192.117
143.655
173.907
127.922
71.3802
88.1257
52.0658
-12.7266
-14.6452
-33.745
-94.8263
-113.89
-113.992
-166.903
-197.851
-182.865
-225.475
-262.778
-237.933
-270.342
-309.808
267.305
246.266
278.237
238.229
210.862
241.893
200.679
167.364
195.141
155.212
113.909
135.262
100.936
55.1
66.7648
39.5506
-11.4496
-12.3155
-28.0702
-76.8086
-89.6763
-92.3358
-136.057
-158.244
-149.552
-186.486
-214.714
-197.584
-227.256
-258.659
230.503
210.009
236.567
202.353
176.912
201.655
167.671
138.014
159.301
127.326
92.1141
107.845
81.2395
43.3532
51.8125
30.5282
-10.7228
-11.2386
-24.2078
-63.922
-73.2053
-76.692
-113.119
-129.71
-124.535
-156.324
-178.238
-166.058
-192.595
-217.909
199.056
179.739
201.931
172.644
149.496
169.516
141.24
115.039
131.755
105.682
75.5786
87.564
66.3454
34.6045
40.9289
23.8567
-10.1503
-10.5735
-21.2913
-54.1697
-61.2441
-64.8021
-95.394
-108.276
-105.083
-132.389
-149.836
-140.863
-164.291
-185.007
172.088
154.269
172.963
147.81
127.034
143.468
119.723
96.6649
110.068
88.4957
62.6806
72.0612
54.7666
27.9258
32.7683
18.8233
-9.5878
-10.0116
-18.91
-46.4458
-52.0795
-55.383
-81.2452
-91.5699
-89.4966
-112.951
-127.162
-120.3
-140.826
-158.036
148.837
132.648
148.536
126.839
108.368
122.049
101.929
81.6969
92.6412
74.5765
52.3871
59.8945
45.5607
22.7245
26.5051
14.9631
-8.98904
-9.44221
-16.8569
-40.1044
-44.7495
-47.6676
-69.6387
-78.1363
-76.6843
-96.8364
-108.647
-103.195
-121.088
-135.592
128.667
114.129
127.753
108.956
92.6523
104.191
87.0007
69.3045
78.3839
63.1085
44.014
50.1352
38.1042
18.606
21.6057
11.9628
-8.3465
-8.83238
-15.0232
-34.7506
-38.6851
-41.1787
-59.9017
-67.0499
-65.9271
-83.2393
-93.2268
-88.7296
-104.266
-116.648
111.052
98.1243
109.912
93.5569
79.2552
89.1064
74.3154
58.8945
66.5353
53.5158
37.0891
42.162
31.9671
15.2975
17.7116
9.60375
-7.66714
-8.1797
-13.3485
-30.1311
-33.5346
-35.6053
-51.5794
-57.7028
-56.733
-71.5893
-80.1627
-76.3187
-89.7571
-100.453
95.5623
84.1731
94.46
80.1729
67.7055
76.2103
63.4104
50.0352
56.5486
45.3826
31.2778
35.5427
26.8441
12.6054
14.573
7.72996
-6.96238
-7.49288
-11.7977
-26.0768
-29.0699
-30.7374
-44.3551
-49.6805
-48.7565
-61.4747
-68.9303
-65.5349
-77.1077
-86.4456
81.8419
71.9045
80.9611
68.431
57.642
65.0625
53.9324
42.4029
48.0229
38.3992
26.335
29.9688
22.5111
10.3879
12.0112
6.227
-6.24358
-6.78358
-10.3493
-22.4689
-25.1368
-26.4264
-38.0001
-42.6924
-41.7456
-52.5883
-59.1482
-56.057
-65.9672
-74.2014
69.5952
61.0187
69.0636
58.0327
48.7821
55.3236
45.6065
35.7502
40.6561
32.3304
22.0768
25.2123
18.7998
8.53911
9.89459
5.0095
-5.52047
-6.06285
-8.9883
-19.2209
-21.626
-22.563
-32.3434
-36.526
-35.5116
-44.6953
-50.5297
-47.6379
-56.0601
-63.3912
58.5745
51.2707
58.4838
48.7361
40.9007
46.7278
38.2144
29.8839
34.2165
26.9936
18.3621
21.102
15.581
6.97842
8.12465
4.01259
-4.80069
-5.33996
-7.70395
-16.2671
-18.4571
-19.0643
-27.2537
-31.0223
-29.9084
-37.6117
-42.8549
-40.0831
-47.1658
-53.7554
48.5675
42.4549
48.9867
40.3398
33.8132
39.0609
31.5781
24.6489
28.5214
22.2427
15.0791
17.5047
12.7525
5.64283
6.62557
3.18593
-4.08969
-4.62195
-6.48705
-13.555
-15.5682
-15.8639
-22.6258
-26.057
-24.8191
-31.1885
-35.9492
-33.2338
-39.1017
-45.0834
39.3923
34.3985
40.3759
32.6751
27.3669
32.147
25.5507
19.9187
23.4235
17.9589
12.1381
14.3149
10.2322
4.48233
5.33802
2.48992
-3.39113
-3.91378
-5.32954
-11.0419
-12.9096
-12.9078
-18.3741
-21.5307
-20.1479
-25.3027
-29.671
-26.9593
-31.7154
-37.201
30.8888
26.9516
32.485
25.5965
21.431
25.8398
20.007
15.5863
18.8021
14.0425
9.46412
11.4473
7.95189
3.45607
4.21461
1.89261
-2.70693
-3.2187
-4.22356
-8.69095
-10.4403
-10.1501
-14.4257
-17.3612
-15.8138
-19.8499
-23.9027
-21.1477
-24.8757
-29.962
22.9172
19.9844
25.1696
18.9781
15.8923
20.0132
14.8384
11.5594
14.5543
10.4072
6.99275
8.82965
5.85321
2.5301
3.21638
1.36799
-2.03739
-2.53821
-3.16116
-6.46991
-8.12471
-7.55062
-10.7183
-13.4786
-11.7471
-14.7403
-18.5436
-15.7032
-18.4692
-23.2398
15.3538
13.3824
18.3038
12.7082
10.6486
14.5575
9.94656
7.75342
10.5904
6.97385
4.66467
6.39958
3.88303
1.67581
2.3108
0.895216
-1.38028
-1.87212
-2.13294
-4.34882
-5.93141
-5.0728
-7.19599
-9.82238
-7.8861
-9.89481
-13.5071
-10.541
-12.3953
-16.9244
8.0985
7.04917
11.7772
6.69098
5.60496
9.37263
5.23744
4.08573
6.82681
3.66586
2.41753
4.09794
1.98584
0.87326
1.47077
0.462343
-0.729335
-1.21728
-1.12724
-2.29969
-3.83082
-2.68321
-3.8095
-6.33844
-4.17613
-5.24429
-8.71641
-5.58777
-6.56962
-10.9185
1.4121
1.18666
5.49503
1.11251
0.873565
4.36057
0.785905
0.49338
3.17926
0.396718
0.46333
1.84709
0.413349
-0.0159587
0.685122
-0.0812432
-0.231972
-0.563069
-0.288092
-0.4632
-1.79293
-0.522901
-0.703151
-2.97642
-0.763355
-0.943926
-4.10231
-1.00424
-1.19745
-5.13858
1312.68
1356.71
1342.53
-3579.97
-3982.21
-4169.4
-2251.51
-2627.77
-2451.5
1155.08
1169.62
1158.75
-3776.04
-4137.58
-4006.46
-4208.12
-4282.23
-3844.54
1085.01
1095.11
1082.49
-2981.15
-3189.54
-2986.59
-3953.23
-3782.77
-3534.2
1044.36
1052.37
1033.62
-2031.63
-2090.77
-1966.66
-2859.84
-2728.53
-2623.72
981.416
995.598
967.306
-880.136
-873.298
-825.745
-877.165
-963.559
-955.53
-1349.35
-1383.37
-992.168
-1843.14
-1720.29
-1685.02
854.582
893.922
846.45
185.532
444.054
581.965
-767.089
-614.652
-666.127
57.8895
-14.5274
115.633
-595.101
-444.213
-216.469
-869.603
-538.777
-668.545
2074.15
1712.25
1467.38
3800.09
4209.1
4742.56
1138.42
1593.08
1320.12
1108.86
2624.95
-1549.45
-1525.91
-1875.39
-42.0968
-393.531
-879.998
-4503.64
-4675.61
-4776.85
-2560.89
-3043.02
-2874.38
-2745.13
-2417.39
-2975.01
-2048.48
-2274.52
-2453.57
-1800.11
-2051.96
-1872.44
1102.55
1125.2
1096.94
1180.3
1150.14
1114.73
1211.72
1166.48
1197.27
-5234.67
-5364.92
-5346.1
-5460.15
-5458.22
-5315.55
-2902.71
-2934.31
-3594.35
-2400.56
-2684.68
-2667.96
-2581.6
-2657.67
-2370.16
1026.77
1043.97
1023.08
1089.54
1061.97
1038.17
1101.55
1073.14
1098.45
1116.23
1130.59
1117.02
1136.98
1133.26
1127.97
1163.99
1159.61
1165.04
-4019.88
-4076.59
-4027.18
-4747.03
-4705.31
-4623.07
-2413.64
-2628.55
-3054.94
-2211.53
-2419.7
-2293.16
-2613.74
-2528.65
-2296.2
960.915
977.788
955.71
1032.98
997.269
975.409
1028.22
1006.98
1039.26
1064.26
1070.99
1056.44
1089.05
1082.67
1081.51
1094.43
1091.85
1095.62
-2762.63
-2813.48
-2733.14
-3345.09
-3217.96
-3158.04
878.323
913.504
877.72
972.503
927.003
892.25
964.808
937.127
981.548
1017.29
1028.32
1006.09
1059.44
1047.6
1041.18
1064.4
1061.49
1070.17
-1566.86
-1614.09
-1623.54
-1716.37
-1774.81
-1535.75
-2037.41
-1961.3
-1935.38
741.611
799.976
762.649
867.898
813.614
752.496
878.807
832.026
886.049
938.619
956.284
920.88
999.986
994.46
993.523
1015.39
1013.14
1018.66
401.262
580.31
616.605
325.433
541.296
379.572
557.868
520.972
365.75
1487.01
1448.53
1549.43
1237.76
1269.16
1290.54
2130.6
2255.73
2325.67
1615.25
1707.31
1697.71
-5290.5
-5446.25
-5457.98
-4862.52
-4941.66
-4775.02
-3571.68
-3901.03
-3424.95
-4634.08
-4353.68
-4215.9
-4824.12
-4780.29
-5100.52
1180.31
1172.46
1159.17
1193.76
1177.17
1182.4
1171.3
1175.23
1189.07
1186.75
1184.18
1185.74
1187.09
1187.42
1179.43