/*--------------------------------*- C++ -*----------------------------------*\
| =========                 |                                                 |
| \\      /  F ield         | OpenFOAM: The Open Source CFD Toolbox           |
|  \\    /   O peration     | Version:  v1912                                 |
|   \\  /    A nd           | Website:  www.openfoam.com                      |
|    \\/     M anipulation  |                                                 |
\*---------------------------------------------------------------------------*/
FoamFile
{
    version     2.0;
    format      ascii;
    class       surfaceScalarField;
    location    "1000";
    object      phi;
}
// * * * * * * * * * * * * * * * * * * * * * * * * * * * * * * * * * * * * * //

dimensions      [0 3 -1 0 0 0 0];
oriented        oriented;


internalField   nonuniform List<scalar> 
25162
(
0.000433016
0.916217
0.00053208
0.916601
0.000620626
0.916561
0.000298575
0.916595
0.000376861
0.458339
0.000309802
0.458311
0.000376158
-0.000387358
-0.000474797
0.458291
0.000534094
-0.000592991
0.458239
0.00068862
-0.000791813
0.458219
0.000902669
-0.00102963
0.4582
0.00116512
-0.00129999
0.458202
0.00143265
-0.00156092
0.458232
0.00166038
-0.00173577
0.458292
0.00177715
-0.00177892
0.458369
0.00174526
-0.00168037
0.458426
0.00158482
-0.00147654
0.458454
0.00135762
-0.00122453
0.458456
0.00110322
-0.000982231
0.458464
0.000832925
-0.000786121
0.458435
0.000700682
-0.000578049
0.458451
0.000476718
-0.00179834
0.918586
0.000281804
-0.000419
-0.00112455
0.918676
-2.5028e-05
0.91575
0.913775
0.00119524
0.915022
0.00188748
0.915909
0.00213022
0.916319
0.000594128
0.917138
0.000993633
0.458091
0.000707245
-0.458204
-0.458193
-0.000860755
0.458
0.00105392
-0.458062
-0.00129368
0.45777
0.000745016
0.000840446
-0.228982
-0.000897952
0.228895
0.000984994
-0.00130045
-0.22893
0.228816
0.00141456
-0.00180939
-0.228887
0.22874
0.00195596
-0.00240248
-0.228882
0.228724
0.00255993
-0.00297605
-0.22893
0.228794
0.00311163
-0.00338823
-0.229045
0.228976
0.00345722
-0.00350077
-0.229194
0.229208
0.00348675
-0.00328281
-0.229312
0.229398
0.00319732
-0.00283553
-0.229381
0.229506
0.00271041
-0.00229245
-0.22939
0.229523
0.00216012
-0.00176923
-0.22937
0.229483
0.00165707
-0.458794
-0.00245088
0.460126
0.00111879
0.00010354
0.460813
-0.00171623
-0.4592
-0.001959
0.9179
0.00074559
0.00189936
-0.00118934
0.917907
0.000264336
0.914297
0.914039
0.00151822
0.913504
0.00405765
0.913369
0.00684329
0.913533
0.00278927
0.914955
0.00623649
-0.458066
0.457911
0.00294332
-0.457837
-0.00290338
0.458512
0.00222846
-0.457377
-0.00227901
0.457187
0.00119782
0.00127063
-0.228525
-0.00148147
0.228364
0.00164225
-0.228311
-0.00222063
0.228085
0.00244625
-0.22812
-0.0032159
0.22784
0.00349587
-0.228056
-0.00441329
0.227741
0.00472812
-0.22824
-0.00563305
0.227978
0.00589524
-0.228721
-0.00651502
0.228596
0.00664029
-0.229343
-0.00675191
0.229406
0.00668902
-0.229863
-0.00627843
0.230068
0.00607396
-0.230125
-0.0053298
0.230405
0.00504923
-0.230149
-0.00420908
0.230429
0.00392946
-0.00286574
-0.23008
0.230697
0.00224934
-0.462618
0.000973805
0.461279
0.00036525
-0.459814
-0.000649869
0.459685
0.000779681
-0.000319032
0.919383
-0.000744978
-0.000419047
0.00134408
0.916243
0.000630502
0.91501
0.91467
0.000527258
0.912976
0.00114319
0.912753
0.00233842
0.912338
0.00313054
0.912057
0.00210628
-0.457177
0.456764
0.00354319
-0.460088
-0.00472255
0.457078
0.00773246
-0.458708
-0.00894426
0.460317
0.00198333
0.0053521
-0.227773
-0.00193187
0.227592
0.00211282
-0.227258
-0.00292745
0.226932
0.00325311
-0.226752
-0.00441331
0.226309
0.00485695
-0.226515
-0.00631682
0.225987
0.00684439
-0.226872
-0.00844751
0.226372
0.00894781
-0.228054
-0.0101546
0.227803
0.0104056
-0.229664
-0.0105926
0.229794
0.0104627
-0.230936
-0.00962309
0.231324
0.0092344
-0.231498
-0.00788984
0.23199
0.00739713
-0.233804
-0.00119432
0.237679
-0.00268081
-0.00281159
-0.231371
0.231308
0.00287467
-0.461066
-0.00436966
0.462047
0.00338854
-0.460268
-0.00236924
0.461099
0.00153844
0.00243761
0.919036
-0.00114911
-0.000942176
0.00177752
0.916904
0.000826227
0.915962
0.915496
0.000158123
0.912818
0.000362331
0.912549
0.000708398
0.911992
0.00127062
0.911031
0.000463351
-0.456512
0.455739
0.00204391
-0.455692
-0.00243642
0.455104
0.00302473
-0.454285
-0.00383338
0.453577
0.00240808
0.00213307
-0.228301
-0.00420583
0.226464
0.00604315
-0.22658
-0.0091992
0.228366
0.00741294
-0.224759
-0.00522623
0.224236
0.0057497
-0.223964
-0.00789937
0.223117
0.00874648
-0.224275
-0.0115569
0.22331
0.0125223
-0.226725
-0.0149644
0.226213
0.0154772
-0.230411
-0.0156989
0.230905
0.0152042
-0.23297
-0.0121303
0.233892
0.0112084
-0.241299
-0.00116982
0.238037
0.0044316
-0.233199
-0.00650664
0.233725
0.0059804
-0.00440327
-0.232451
0.232899
0.00395588
-0.463462
-0.00516138
0.464794
0.00382879
-0.461862
-0.00290989
0.462645
0.00212639
0.00322138
0.920573
-0.00275421
-0.00200406
0.00178587
0.918339
0.000815679
0.916932
0.916312
-9.44569e-05
0.912913
-9.73518e-05
0.912552
0.000129654
0.911765
0.000286004
0.91059
0.000284431
-0.454874
0.454589
0.000571229
-0.454633
-0.0015096
0.453901
0.00224178
-0.45283
-0.00274636
0.451876
0.00181896
0.00188125
-0.225289
-0.00229168
0.225042
0.00253893
-0.223674
-0.0035941
0.223216
0.00405236
-0.223881
-0.00782728
0.221578
0.0101301
-0.221595
-0.0141706
0.222232
0.0135336
-0.219652
-0.016971
0.21934
0.017283
-0.223882
-0.0223672
0.222841
0.023409
-0.234657
-0.020565
0.235104
0.0201174
-0.243572
-0.0103178
0.241371
0.0125186
-0.236953
-0.0117712
0.238107
0.0106172
-0.235856
-0.00760221
0.236762
0.00669636
-0.00400779
-0.23468
0.235159
0.00352869
-0.465924
-0.00546818
0.467073
0.00431864
-0.463044
-0.00348671
0.463404
0.00312653
0.00272489
0.922478
-0.00226571
-0.00236434
0.00151189
0.919552
0.000624833
0.917819
0.916937
-0.000475272
0.913388
-0.000824477
0.912901
-0.00102899
0.911969
2.24099e-05
0.910245
-0.00070638
-0.454459
0.454171
0.000310292
-0.452881
-0.000534709
0.452531
0.000884744
-0.451545
-0.00182805
0.451172
0.00105046
0.0011512
-0.22425
-0.00141639
0.224036
0.00163016
-0.222164
-0.00251347
0.221738
0.00293939
-0.218819
-0.00420801
0.218269
0.00475762
-0.215377
-0.00800597
0.213192
0.0101913
-0.213847
-0.0230171
0.108963
0.103501
0.010167
0.0142325
-0.0179798
-0.108768
0.108148
0.0185998
-0.01492
-0.24415
0.0286569
-0.015189
0.122363
0.123239
-0.0217774
-0.244036
0.246854
0.0189601
-0.242665
-0.0117933
0.244165
0.0102938
-0.239382
-0.00742049
0.240262
0.00654085
-0.00438398
-0.236599
0.237173
0.00381088
-0.468229
-0.00481234
0.468872
0.00416914
-0.464219
-0.00314842
0.465037
0.00233032
0.00165933
0.923916
-0.00144522
-0.001652
0.000789544
0.920422
0.000298914
0.91831
0.917235
-0.000869163
0.914257
-0.00168584
0.913718
-0.00230805
0.912591
-0.00116454
0.910804
-0.00170204
-0.45413
0.454134
-0.00116878
-0.452376
0.00121585
0.452278
-0.00111735
-0.449894
0.000958021
0.449612
-0.000291582
-0.00038379
-0.223549
-0.000281049
0.223449
0.000381283
-0.220949
-0.000558422
0.22103
0.00047687
-0.217111
-0.000782814
0.216867
0.00102749
-0.210488
-0.00190782
0.210244
0.00215151
-0.0987602
-0.00168524
0.098978
0.0014674
-0.0233155
-0.132545
0.134986
0.0208749
-0.0214122
-0.256486
0.259776
0.0181222
-0.248916
-0.0113365
0.250492
0.00976053
-0.243211
-0.00631659
0.244088
0.00543955
-0.00339245
-0.238831
0.2393
0.00292375
-0.469916
-0.00311795
0.470783
0.00225069
-0.465708
-0.00163085
0.46629
0.00104832
-0.000115315
0.924635
-5.95426e-05
-0.000544322
-0.000292343
0.920599
-0.000193345
0.918211
0.917042
-0.00125308
0.91551
-0.00243205
0.914897
-0.00367486
0.913834
-0.00212012
0.911886
-0.0026372
-0.454311
0.454487
-0.00229662
-0.452346
0.00249593
0.452531
-0.00268141
-0.449497
0.00284789
0.449647
-0.00139772
-0.00160034
-0.223632
0.00165789
0.223667
-0.00169356
-0.220926
0.00184224
0.220984
-0.00190013
-0.216809
0.00215529
0.216947
-0.00229384
-0.211005
0.00304162
0.211461
-0.00349751
-0.102498
0.00302322
0.102883
-0.00340791
-0.010566
-0.147845
0.148634
0.00977787
-0.0100671
-0.267591
0.269125
0.00853355
-0.254337
-0.00515044
0.255136
0.0043512
-0.245948
-0.00252333
0.246316
0.00215513
-0.00122556
-0.240374
0.240615
0.00098492
-0.471928
-0.00062433
0.472894
-0.000341422
-0.466592
0.000796627
0.466792
-0.000997093
-0.00229118
0.924215
0.00155535
0.00115639
-0.0016404
0.919948
-0.000858419
0.917429
0.916184
-0.00159971
0.91711
-0.00330501
0.916602
-0.0049321
0.915461
-0.00306597
0.913604
-0.00358395
-0.454845
0.455203
-0.00342355
-0.452788
0.00382933
0.453259
-0.00430001
-0.449958
0.00473858
0.450524
-0.00247894
-0.00282515
-0.223959
0.00294722
0.224102
-0.00308984
-0.221394
0.00360809
0.221597
-0.00381129
-0.217623
0.00452158
0.217912
-0.00481096
-0.212828
0.00586628
0.213249
-0.00628775
-0.104254
0.00378124
0.104361
-0.00193563
-0.00195258
0.00554655
-0.148024
0.147298
-0.00482065
0.00515364
-0.270034
0.269241
-0.00436017
-0.255799
0.00294572
0.255528
-0.00267479
-0.246787
0.00212253
0.246658
-0.00199331
0.00166341
-0.240833
0.240764
-0.00159427
-0.472926
0.00313425
0.472534
-0.00274156
-0.466664
0.00269586
0.467075
-0.00310689
-0.00471768
0.922602
0.00342796
0.00290281
-0.00311065
0.918341
-0.00158085
0.915899
0.914603
-0.00203321
0.919143
-0.00404891
0.918618
-0.00618913
0.917602
-0.00398105
0.91587
-0.00447427
-0.455736
0.456266
-0.00451176
-0.453793
0.00515923
0.454379
-0.00574553
-0.451433
0.00642835
0.452575
-0.00369595
-0.00387434
-0.224682
0.00409235
0.224915
-0.00432557
-0.222355
0.00512337
0.222651
-0.00541951
-0.218897
0.00641888
0.219263
-0.00678468
-0.21443
0.0079453
0.214813
-0.00832814
-0.104952
0.00459691
0.105005
-0.00231388
-0.0023362
0.0148791
-0.140235
0.139069
-0.0137134
0.016869
-0.264512
0.262325
-0.0146821
-0.253355
0.00999651
0.252273
-0.0089141
-0.24558
0.00654734
0.244943
-0.00590982
0.00452126
-0.240068
0.239759
-0.00421193
-0.47183
0.00676053
0.470853
-0.00578295
-0.467366
0.0049103
0.466579
-0.00412288
-0.00697488
0.920003
0.00494821
0.00462554
-0.00454666
0.915913
-0.00223868
0.913591
0.912364
-0.00242963
0.921573
-0.00486774
0.921056
-0.00742413
0.920158
-0.00480235
0.918455
-0.00520631
-0.456953
0.457637
-0.00548698
-0.455162
0.00624913
0.455979
-0.00706659
-0.453688
0.00795135
0.454958
-0.00453619
-0.00468549
-0.22572
0.0050571
0.226021
-0.00535874
-0.223661
0.00635942
0.224039
-0.00673715
-0.220485
0.00797431
0.220938
-0.0084277
-0.216057
0.00986069
0.216533
-0.0103367
-0.105355
0.00571061
0.105417
-0.00286882
-0.00290432
0.018424
-0.131016
0.129842
-0.0172504
0.0226924
-0.255251
0.252858
-0.0202986
-0.248435
0.0145924
0.24702
-0.0131779
-0.242444
0.00977816
0.24141
-0.00874405
0.00674505
-0.238166
0.237546
-0.00612584
-0.469642
0.00982167
0.468206
-0.00838501
-0.465727
0.00713237
0.464667
-0.00607187
-0.00902461
0.918101
0.00571115
0.00521549
-0.00580924
0.912697
-0.00281768
0.910599
0.909546
-0.00646312
0.928036
-0.0130882
0.927681
-0.0197915
0.926861
-0.00572797
0.925562
-0.0211701
-0.458398
0.459268
-0.00659744
-0.456825
0.00750184
0.457846
-0.00852369
-0.456162
0.00952054
0.457033
-0.00515136
-0.00524059
-0.226993
0.00579788
0.227333
-0.00613758
-0.225256
0.00729135
0.225688
-0.00772418
-0.22244
0.00918949
0.222986
-0.00973584
-0.21827
0.0115872
0.218967
-0.00610491
-0.00617851
-0.0531383
0.00355487
0.0531699
-0.00358652
-0.0579252
0.00664982
0.057439
-0.0129715
0.00680783
0.0171052
-0.122739
0.242182
-0.0307182
0.0168413
-0.122672
-0.246147
0.0233488
0.243731
-0.0209329
-0.24224
0.0161106
0.240765
-0.0146363
-0.238609
0.011255
0.237683
-0.0103289
0.00802379
-0.235539
0.234896
-0.00738078
-0.466451
0.0119023
0.464694
-0.0101447
-0.463562
0.0088445
0.462361
-0.00764381
-0.0106436
0.915015
0.00713356
0.00659643
-0.00684558
0.908899
-0.00336978
0.907123
0.906177
-0.00289839
0.930934
-0.00587636
0.930659
-0.00901326
0.929998
-0.00612794
0.928971
-0.00629512
-0.462059
0.46296
-0.00702833
-0.460668
0.00801116
0.461723
-0.00906576
-0.458877
0.0102112
0.460136
-0.00569795
-0.00577188
-0.228467
0.00637754
0.228841
-0.00675135
-0.227122
0.00800262
0.227595
-0.00847543
-0.224911
0.0101088
0.225542
-0.0107403
-0.221874
0.0130182
0.222819
-0.00695683
-0.00700665
-0.0546476
0.00887374
0.109687
-0.0545651
-0.00464653
-0.00470197
-0.111514
0.00933508
0.111463
-0.0183851
0.00910159
0.0306099
-0.235901
0.234064
-0.0287734
-0.237719
0.0194921
0.236446
-0.0182187
-0.237396
0.0149761
0.236837
-0.0144177
-0.235168
0.0112135
0.234536
-0.0105822
0.00836011
-0.233052
0.232492
-0.00779988
-0.463192
0.0126679
0.461891
-0.0113673
-0.461145
0.0100929
0.459687
-0.00863504
-0.0100236
0.911147
0.0068845
0.00700671
-0.00750212
0.906378
-0.00366902
0.90329
0.902508
-0.00304567
0.93398
-0.00617239
0.933786
-0.00945647
0.933282
-0.00645449
0.932519
-0.00654979
-0.463919
0.464873
-0.00740902
-0.462804
0.00843525
0.463897
-0.00952883
-0.461414
0.0107089
0.4627
-0.00598202
-0.00601298
-0.229984
0.00668828
0.230365
-0.00706945
-0.229028
0.00833011
0.229497
-0.00879916
-0.227472
0.0104319
0.228102
-0.0110611
-0.225751
0.0133146
0.226664
-0.0142276
-0.112733
0.0175934
0.223803
-0.0168786
-0.111784
-0.22572
0.0228613
0.226299
-0.0234407
-0.230677
0.0229335
0.23004
-0.0222969
-0.232696
0.0197332
0.231751
-0.0187886
-0.232691
0.015982
0.2318
-0.0150907
-0.231735
0.0126209
0.230986
-0.011871
0.00984084
-0.232117
0.22988
-0.00760334
-0.46078
0.0143627
0.458003
-0.0115856
-0.458185
0.0104113
0.456439
-0.00866517
-0.0103797
0.907379
0.00713861
0.00700922
-0.00753743
0.903536
-0.00386408
0.899617
0.898644
-0.00311733
0.937097
-0.00631083
0.936979
-0.00964863
0.93662
-0.00659822
0.936098
-0.00662891
-0.465847
0.466816
-0.00756702
-0.464992
0.00859451
0.466078
-0.00967992
-0.463976
0.0108409
0.465227
-0.0060495
-0.00604232
-0.231488
0.00673614
0.231852
-0.00709943
-0.230848
0.0082815
0.231276
-0.00870959
-0.229864
0.0101343
0.230397
-0.0106675
-0.228953
0.0124243
0.229581
-0.0130522
-0.221708
0.0147155
0.221135
-0.0141426
-0.227594
0.0174329
0.227911
-0.0177498
-0.228868
0.0177694
0.228627
-0.0175288
-0.229614
0.0162817
0.229082
-0.0157499
-0.22957
0.0139855
0.228958
-0.0133733
-0.228998
0.011563
0.228418
-0.010983
0.00934443
-0.228208
0.2277
-0.00883574
-0.457592
0.0148086
0.455202
-0.0124187
-0.453841
0.00929444
0.452528
-0.00798153
-0.00958648
0.902129
0.00767626
0.00716001
-0.00512524
0.899074
-0.00392067
0.898412
0.894723
-0.0031196
0.940217
-0.00630635
0.940166
-0.00961685
0.939931
-0.0065781
0.93961
-0.00655131
-0.467771
0.468723
-0.00753015
-0.467143
0.00852469
0.468182
-0.00956366
-0.46644
0.0106617
0.467606
-0.00593055
-0.00589686
-0.232893
0.00656611
0.233222
-0.00689452
-0.232472
0.00793645
0.232839
-0.00830304
-0.231803
0.00946609
0.232211
-0.00987395
-0.231156
0.0111362
0.231592
-0.0115729
-0.219869
0.0122846
0.219584
-0.011999
-0.22861
0.0140832
0.22878
-0.0142526
-0.228136
0.0143095
0.228022
-0.014195
-0.227849
0.0135088
0.227531
-0.0131903
-0.227443
0.0120597
0.227027
-0.0116441
-0.226905
0.0103495
0.22647
-0.00991442
0.00863739
-0.226335
0.225921
-0.00822322
-0.451806
0.0139838
0.450355
-0.0125328
-0.451203
0.0111435
0.449866
-0.00980651
-0.00882061
0.895963
0.00839819
0.00658833
-0.00475588
0.89501
-0.00356793
0.897224
0.891155
-0.00306336
0.94328
-0.00618211
0.943285
-0.00939912
0.943148
-0.00642158
0.942983
-0.00635029
-0.469636
0.470547
-0.00733349
-0.469187
0.00827137
0.470155
-0.00923913
-0.468718
0.0102481
0.469771
-0.00567751
-0.00562401
-0.234145
0.00624569
0.234431
-0.00653216
-0.23384
0.00741647
0.234142
-0.00771808
-0.233276
0.00863695
0.233584
-0.008945
-0.232693
0.00986437
0.233001
-0.0101721
-0.219058
0.0104024
0.218974
-0.010319
-0.229157
0.0117271
0.229249
-0.011819
-0.227759
0.0118458
0.227689
-0.0117763
-0.226766
0.0113479
0.22656
-0.0111421
-0.225986
0.0103815
0.225696
-0.0100912
-0.225338
0.00915217
0.225011
-0.00882521
0.00783269
-0.22482
0.224487
-0.00749917
-0.449011
0.0129194
0.447769
-0.0116775
-0.44862
0.010462
0.447426
-0.00926825
-0.0117582
0.891709
0.00791734
0.00809475
-0.00772178
0.890973
-0.000987693
0.89049
0.890167
-0.00296025
0.94624
-0.00596296
0.946287
-0.00903722
0.946222
-0.00616165
0.946166
-0.00605853
-0.471401
0.472258
-0.00701806
-0.471081
0.00788561
0.471965
-0.00876954
-0.470764
0.00967838
0.471698
-0.00533943
-0.0052721
-0.235227
0.00583692
0.235472
-0.006082
-0.234958
0.00681965
0.235202
-0.00706434
-0.234391
0.00778657
0.234626
-0.00802141
-0.233782
0.0087072
0.234002
-0.0089269
-0.218931
0.00892429
0.218972
-0.00896499
-0.229453
0.00994793
0.229502
-0.00999693
-0.227513
0.00999348
0.227462
-0.00994244
-0.226047
0.00964391
0.225904
-0.0095004
-0.224956
0.00896041
0.224745
-0.00874976
-0.224154
0.00805074
0.223905
-0.0078011
0.00702321
-0.223604
0.223335
-0.00675431
-0.446624
0.0117629
0.445571
-0.0107095
-0.446327
0.00965826
0.445276
-0.00860723
-0.0110229
0.887835
0.00734558
0.00755196
-0.00727404
0.887224
-0.00361052
0.886827
0.886557
-0.00282256
0.949063
-0.00567496
0.94914
-0.0085737
0.949121
-0.00583069
0.94913
-0.00570723
-0.473044
0.473837
-0.00662332
-0.472804
0.00741495
0.473601
-0.00821176
-0.472572
0.00902019
0.473389
-0.00495476
-0.00488268
-0.236149
0.00538555
0.236357
-0.00559336
-0.235864
0.00620528
0.236062
-0.00640357
-0.235246
0.0069753
0.235429
-0.00715761
-0.234561
0.00768158
0.234718
-0.00783884
-0.219212
0.00773236
0.219323
-0.00784298
-0.229607
0.00854187
0.229631
-0.00856567
-0.227324
0.00854018
0.227282
-0.00849804
-0.225534
0.00827159
0.225427
-0.00816483
-0.224198
0.00776187
0.224039
-0.00760307
-0.223244
0.00706769
0.22305
-0.00687313
0.00625484
-0.222624
0.222405
-0.00603633
-0.444601
0.0106083
0.443709
-0.00971619
-0.444314
0.00881122
0.443395
-0.00789213
-0.0101951
0.884342
0.00673504
0.00695235
-0.00675776
0.883787
-0.00336359
0.883433
0.883193
-0.00266212
0.951725
-0.00534266
0.95182
-0.00804739
0.951825
-0.00545783
0.951864
-0.00532294
-0.474553
0.475279
-0.0061839
-0.474354
0.00689979
0.475066
-0.00761231
-0.474152
0.00832646
0.474864
-0.0045549
-0.0044835
-0.23693
0.00492629
0.237106
-0.0051022
-0.236599
0.00561065
0.236761
-0.0057723
-0.235915
0.00623089
0.236059
-0.00637542
-0.235117
0.00678401
0.235229
-0.00689581
-0.219716
0.00675263
0.219862
-0.00689859
-0.229677
0.00740075
0.229685
-0.00740907
-0.227164
0.0073688
0.227127
-0.00733168
-0.225145
0.00714895
0.225061
-0.00706527
-0.223619
0.00675146
0.223495
-0.00662752
-0.22253
0.00620593
0.222375
-0.00605099
0.00555139
-0.221825
0.221646
-0.00537181
-0.442887
0.00951058
0.44213
-0.00875282
-0.442557
0.00797369
0.441755
-0.00717185
-0.00933561
0.881216
0.0061229
0.0063393
-0.00621207
0.880663
-0.00309944
0.88032
0.880094
-0.00248864
0.954214
-0.00498594
0.954318
-0.00748907
0.954328
-0.00506445
0.954366
-0.00492687
-0.475927
0.476587
-0.00572466
-0.475737
0.00636828
0.476372
-0.00700242
-0.475528
0.00763113
0.476147
-0.00415914
-0.00409113
-0.237591
0.00447915
0.237741
-0.00462835
-0.2372
0.005053
0.237333
-0.00518603
-0.236449
0.0055595
0.236566
-0.00567647
-0.235511
0.0059999
0.23559
-0.00607832
-0.220326
0.00593276
0.220486
-0.00609292
-0.229694
0.00645523
0.229692
-0.0064537
-0.227021
0.0064039
0.226987
-0.00637011
-0.224835
0.00621618
0.224767
-0.00614789
-0.223162
0.00589484
0.223063
-0.00579521
-0.221956
0.00545497
0.22183
-0.00532905
0.00491879
-0.221167
0.221018
-0.00476943
-0.44143
0.00849412
0.440783
-0.00784728
-0.441025
0.00717489
0.440326
-0.00647528
-0.00848563
0.878428
0.00553383
0.00573971
-0.00566525
0.877843
-0.00283252
0.877487
0.877261
-0.00231092
0.956525
-0.00462256
0.956629
-0.00692558
0.956632
-0.00467035
0.956645
-0.00453497
-0.477171
0.477769
-0.005268
-0.476968
0.00584494
0.477532
-0.00640834
-0.476725
0.0069616
0.477264
-0.00378233
-0.00371835
-0.238153
0.0040587
0.23828
-0.00418584
-0.237697
0.00454324
0.237808
-0.00465397
-0.236884
0.00496308
0.236981
-0.00505953
-0.235786
0.00531846
0.23584
-0.00537239
-0.220972
0.00524098
0.221134
-0.00540297
-0.229677
0.00566411
0.229669
-0.00565614
-0.226889
0.00560043
0.226858
-0.00556909
-0.224579
0.00543548
0.224521
-0.005378
-0.222792
0.00516805
0.222709
-0.00508592
-0.221487
0.00480533
0.221382
-0.00470109
0.00435896
-0.220618
0.220493
-0.00423321
-0.440184
0.00757387
0.439628
-0.00701818
-0.439689
0.00643545
0.439078
-0.00582373
-0.00767526
0.875946
0.00498278
0.00517411
-0.00513853
0.875306
-0.00257378
0.874923
0.874687
-0.00213532
0.95866
-0.00426517
0.958759
-0.00637552
0.958742
-0.00428791
0.958716
-0.00415859
-0.478293
0.478833
-0.00482749
-0.478062
0.0053441
0.478562
-0.00584466
-0.477767
0.00633214
0.478238
-0.00343168
-0.00337109
-0.238633
0.00367125
0.238742
-0.00378024
-0.238113
0.00408366
0.238206
-0.00417698
-0.237245
0.00443682
0.237326
-0.00451756
-0.235973
0.00472664
0.236009
-0.0047626
-0.221614
0.00465237
0.221771
-0.00480925
-0.229638
0.00499617
0.229626
-0.00498388
-0.226767
0.00492468
0.226738
-0.00489534
-0.224362
0.00477689
0.224312
-0.00472736
-0.222484
0.00454917
0.222415
-0.00448005
-0.221096
0.00424434
0.221008
-0.00415663
0.00386735
-0.220155
0.220048
-0.00376029
-0.439112
0.00675095
0.438632
-0.00627036
-0.438521
0.00576289
0.437985
-0.00522636
-0.00692133
0.873738
0.00447784
0.00465217
-0.00464451
0.87303
-0.00232987
0.872608
0.872358
-0.0019668
0.960627
-0.00392346
0.960716
-0.00585283
0.960671
-0.00392609
0.960596
-0.00380584
-0.479304
0.479791
-0.00441275
-0.479033
0.00487551
0.479479
-0.00532089
-0.478678
0.0057515
0.479091
-0.00310947
-0.00305445
-0.239045
0.003318
0.239139
-0.00341203
-0.238464
0.00367193
0.238544
-0.00375153
-0.237549
0.00397295
0.237617
-0.00404131
-0.236096
0.00421126
0.236119
-0.00423409
-0.222229
0.00414704
0.222377
-0.00429515
-0.229585
0.00442694
0.229569
-0.00441172
-0.226652
0.00435067
0.226625
-0.00432305
-0.224173
0.00421647
0.22413
-0.00417304
-0.222223
0.00401913
0.222164
-0.00395995
-0.220765
0.00375888
0.220691
-0.00368409
0.00343657
-0.219759
0.219667
-0.00334452
-0.438183
0.00602243
0.437765
-0.00560399
-0.437496
0.00515972
0.437024
-0.00468734
-0.00623362
0.871769
0.00402292
0.00417885
-0.00419098
0.870987
-0.00210504
0.870522
0.870253
-0.00180845
0.962435
-0.00360336
0.962511
-0.0053657
0.962434
-0.00359067
0.962301
-0.00348021
-0.480215
0.480654
-0.00402974
-0.479898
0.00444495
0.480296
-0.00484225
-0.479477
0.00522397
0.47984
-0.00281754
-0.00276951
-0.239401
0.00299993
0.239483
-0.00308161
-0.238766
0.00330633
0.238834
-0.00337504
-0.237807
0.00356597
0.237865
-0.00362443
-0.236172
0.00376336
0.236185
-0.00377666
-0.222806
0.00371218
0.222944
-0.00384989
-0.22952
0.00394042
0.229503
-0.00392318
-0.226544
0.00386138
0.226518
-0.00383528
-0.224007
0.00373831
0.223968
-0.0036997
-0.221998
0.00356483
0.221947
-0.00351345
-0.220482
0.00333967
0.220418
-0.00327511
0.00306107
-0.219417
0.219338
-0.00298121
-0.437374
0.00538276
0.437007
-0.00501597
-0.436593
0.00462484
0.436175
-0.00420711
-0.00561501
0.870012
0.00361713
0.00375559
-0.00378093
0.869153
-0.00190112
0.868642
0.868351
-0.0016629
0.964098
-0.0033099
0.964158
-0.00492094
0.964045
-0.00328515
0.963851
-0.0031858
-0.481037
0.481433
-0.00368189
-0.480671
0.00405549
0.481026
-0.00441119
-0.480182
0.00475108
0.480503
-0.00255749
-0.00251495
-0.239711
0.00271796
0.239783
-0.00278949
-0.239027
0.00298577
0.239087
-0.00304579
-0.238028
0.00321225
0.238079
-0.00326272
-0.236214
0.00337692
0.23622
-0.0033834
-0.223341
0.00333959
0.223468
-0.00346654
-0.229449
0.00352605
0.22943
-0.00350741
-0.226442
0.00344555
0.226417
-0.00342079
-0.223859
0.00333174
0.223824
-0.00329701
-0.221803
0.00317733
0.221757
-0.00313215
-0.220237
0.00298012
0.220181
-0.00292376
0.00273678
-0.21912
0.21905
-0.00266687
-0.436662
0.00482544
0.436339
-0.0045017
-0.435793
0.0041553
0.435422
-0.00378406
-0.00506696
0.868436
0.00326058
0.00338169
-0.0034162
0.867502
-0.00171927
0.866945
0.866632
-0.00153148
0.96563
-0.00304545
0.965672
-0.00452147
0.965521
-0.00301127
0.965264
-0.00292343
-0.48178
0.482139
-0.00337075
-0.481363
0.00370823
0.481683
-0.00402817
-0.480806
0.00433243
0.481092
-0.00232846
-0.00229017
-0.239984
0.00247057
0.240047
-0.00253376
-0.239256
0.00270701
0.239309
-0.00276001
-0.23822
0.00290665
0.238264
-0.00295061
-0.236232
0.00304503
0.236234
-0.00304669
-0.223833
0.00302118
0.22395
-0.00313766
-0.229373
0.00317378
0.229353
-0.00315417
-0.226345
0.00309265
0.226321
-0.00306909
-0.223725
0.00298664
0.223693
-0.00295508
-0.22163
0.0028477
0.22159
-0.00280752
-0.220022
0.00267302
0.219972
-0.0026233
0.00245833
-0.218859
0.218797
-0.0023966
-0.436034
0.00434365
0.435746
-0.00405587
-0.435081
0.00374709
0.434749
-0.00341528
-0.0045873
0.867018
0.00295052
0.00305513
-0.00309598
0.866011
-0.00155931
0.865409
0.865073
-0.00141498
0.967045
-0.00281138
0.967068
-0.00416885
0.966878
-0.00276968
0.966558
-0.00269345
-0.482454
0.482781
-0.0030967
-0.481986
0.0034031
0.482276
-0.00369253
-0.481363
0.00396663
0.48162
-0.00212823
-0.00209513
-0.240225
0.00225495
0.240282
-0.00231128
-0.239459
0.00246577
0.239506
-0.00251307
-0.238387
0.00264349
0.238426
-0.00268211
-0.236233
0.00276061
0.236232
-0.00275896
-0.224284
0.00274928
0.224391
-0.00285592
-0.229293
0.00287437
0.229273
-0.0028541
-0.226252
0.00279318
0.22623
-0.00277068
-0.223603
0.00269381
0.223574
-0.00266487
-0.221475
0.00256756
0.221439
-0.00253145
-0.219832
0.00241124
0.219787
-0.00236693
0.00222002
-0.218628
0.218573
-0.00216505
-0.435474
0.00393094
0.435216
-0.00367313
-0.434444
0.00339592
0.434146
-0.00309742
-0.00417303
0.865733
0.00268423
0.00277333
-0.00281878
0.864656
-0.00142062
0.86401
0.863652
-0.00131381
0.968358
-0.00260838
0.968363
-0.00386362
0.968133
-0.00256056
0.967751
-0.00249555
-0.483069
0.483369
-0.00285968
-0.482551
0.00313967
0.482815
-0.00340334
-0.481864
0.00365215
0.482096
-0.00195604
-0.00192833
-0.240442
0.00206997
0.240492
-0.00212069
-0.239641
0.00225995
0.239684
-0.00230263
-0.238535
0.00241978
0.238569
-0.002454
-0.236223
0.00251976
0.236219
-0.0025159
-0.224697
0.00251969
0.224794
-0.00261732
-0.229212
0.00262247
0.229191
-0.00260177
-0.226164
0.00254155
0.226142
-0.00251998
-0.22349
0.0024478
0.223463
-0.00242103
-0.221336
0.00233195
0.221303
-0.00229917
-0.219661
0.00219057
0.219621
-0.00215067
0.00201853
-0.218421
0.218372
-0.00196912
-0.434971
0.00358182
0.434738
-0.00334886
-0.43387
0.00309793
0.433599
-0.00282734
-0.00382085
0.864562
0.00245891
0.00253375
-0.00258272
0.863418
-0.00130239
0.86273
0.86235
-0.00122792
0.969586
-0.00243614
0.969571
-0.00360505
0.969302
-0.00238266
0.968858
-0.00232932
-0.483634
0.48391
-0.00265794
-0.483067
0.0029157
0.483309
-0.00315783
-0.482318
0.0033856
0.48253
-0.0018101
-0.00178748
-0.240637
0.00191344
0.240683
-0.00195961
-0.239806
0.00208655
0.239845
-0.00212548
-0.238666
0.0022318
0.238697
-0.0022624
-0.236206
0.00231797
0.2362
-0.00231275
-0.225075
0.00232786
0.225164
-0.00241733
-0.229128
0.00241254
0.229107
-0.00239158
-0.226079
0.0023321
0.226058
-0.00231134
-0.223386
0.00224307
0.223361
-0.00221809
-0.221209
0.00213574
0.221179
-0.00210566
-0.219507
0.00200648
0.219471
-0.00197017
0.00185006
-0.218234
0.218189
-0.00180522
-0.434516
0.00328984
0.434304
-0.00307738
-0.433348
0.00284821
0.4331
-0.00260082
-0.00352676
0.863483
0.00227209
0.00233292
-0.00238534
0.862277
-0.00120347
0.861548
0.861146
-0.0011572
0.970743
-0.00229455
0.970708
-0.00339258
0.9704
-0.0022359
0.969895
-0.00219364
-0.484157
0.484413
-0.00249157
-0.483541
0.00273106
0.483766
-0.00295553
-0.482733
0.00316616
0.482928
-0.00168999
-0.00167179
-0.240816
0.0017847
0.240858
-0.00182725
-0.239957
0.00194439
0.239993
-0.00198032
-0.238784
0.00207791
0.238812
-0.00210558
-0.236183
0.00215312
0.236177
-0.00214716
-0.225421
0.00217169
0.225504
-0.00225389
-0.229044
0.00224177
0.229023
-0.00222069
-0.225997
0.00216188
0.225976
-0.00214178
-0.223288
0.00207672
0.223265
-0.00205317
-0.221092
0.00197622
0.221064
-0.00194829
-0.219366
0.00185663
0.219333
-0.00182317
0.00171269
-0.218064
0.218023
-0.00167153
-0.4341
0.00305184
0.433904
-0.00285595
-0.432869
0.00264444
0.43264
-0.00241597
-0.00328768
0.862481
0.00212107
0.00216905
-0.00222481
0.861214
-0.00112289
0.860446
0.860023
-0.00110224
0.971846
-0.00218415
0.97179
-0.00322755
0.971444
-0.0021206
0.970877
-0.0020898
-0.484646
0.484885
-0.00235943
-0.483982
0.00258419
0.484193
-0.00279454
-0.483117
0.0029915
0.4833
-0.00159444
-0.00157974
-0.240981
0.00168225
0.241021
-0.00172196
-0.240097
0.00183148
0.24013
-0.00186505
-0.238891
0.00195573
0.238916
-0.00198106
-0.236159
0.0020224
0.236153
-0.00201616
-0.22574
0.0020485
0.225816
-0.00212428
-0.22896
0.00210688
0.228939
-0.00208575
-0.225917
0.0020275
0.225897
-0.00200793
-0.223196
0.00194539
0.223173
-0.00192298
-0.220983
0.00185024
0.220957
-0.00182399
-0.219236
0.00173818
0.219205
-0.00170695
0.00160402
-0.217906
0.217868
-0.00156576
-0.433715
0.00286368
0.433532
-0.00268092
-0.432425
0.00248344
0.432212
-0.00227008
-0.0031025
0.861537
0.00200561
0.00204085
-0.00210009
0.860212
-0.00106046
0.859407
0.858963
-0.00106043
0.972906
-0.00210155
0.972831
-0.00310268
0.972445
-0.0020327
0.97182
-0.00201206
-0.485106
0.485335
-0.00226088
-0.484397
0.0024742
0.484596
-0.0026736
-0.483477
0.00286006
0.48365
-0.00152172
-0.00151113
-0.241137
0.00160408
0.241174
-0.00164163
-0.240228
0.00174535
0.24026
-0.00177713
-0.238989
0.00186247
0.239013
-0.00188596
-0.236134
0.00192269
0.236128
-0.00191655
-0.226035
0.00195533
0.226105
-0.00202545
-0.228875
0.00200439
0.228854
-0.00198329
-0.225839
0.00192546
0.22582
-0.00190629
-0.223108
0.00184566
0.223086
-0.0018241
-0.22088
0.00175455
0.220855
-0.00172956
-0.219114
0.00164817
0.219084
-0.00161863
0.00152142
-0.217759
0.217723
-0.00148541
-0.433355
0.00272246
0.433182
-0.00254969
-0.432009
0.002363
0.431808
-0.0021613
-0.0029631
0.860637
0.0019196
0.00194359
-0.00200695
0.859256
-0.0010131
0.858413
0.85795
-0.00103882
0.973945
-0.00205544
0.973848
-0.00303733
0.973427
-0.00198575
0.97275
-0.00198182
-0.48555
0.48576
-0.00219539
-0.484792
0.00240004
0.484983
-0.00259162
-0.483819
0.00277067
0.483985
-0.00147118
-0.00146533
-0.241284
0.0015493
0.24132
-0.00158525
-0.240353
0.00168471
0.240384
-0.00171519
-0.239081
0.00179662
0.239103
-0.00181877
-0.23611
0.00185235
0.236104