/*--------------------------------*- C++ -*----------------------------------*\
| =========                 |                                                 |
| \\      /  F ield         | OpenFOAM: The Open Source CFD Toolbox           |
|  \\    /   O peration     | Version:  v1912                                 |
|   \\  /    A nd           | Website:  www.openfoam.com                      |
|    \\/     M anipulation  |                                                 |
\*---------------------------------------------------------------------------*/
FoamFile
{
    version     2.0;
    format      ascii;
    class       volVectorField;
    location    "1000";
    object      U;
}
// * * * * * * * * * * * * * * * * * * * * * * * * * * * * * * * * * * * * * //

dimensions      [0 1 -1 0 0 0 0];


internalField   nonuniform List<vector> 
12556
(
(99.9993 0.00196337 -1.51316e-19)
(99.999 0.00677949 5.10025e-24)
(99.998 0.0147611 -1.60746e-19)
(99.9966 0.0272311 -1.57511e-19)
(100 0.0212756 6.49505e-20)
(99.9984 0.0365078 0)
(99.9975 0.0593305 0)
(99.9967 0.0917975 -1.12554e-19)
(99.9957 0.135415 1.31891e-20)
(99.9949 0.189916 -8.72527e-20)
(99.9948 0.250076 1.05552e-20)
(99.996 0.304619 0)
(99.9984 0.338767 0)
(100.001 0.341751 1.4359e-20)
(100.004 0.314187 -2.39292e-20)
(100.005 0.266481 1.50475e-20)
(100.005 0.211796 0)
(100.004 0.159953 2.54097e-20)
(100.004 0.115081 1.04595e-19)
(100.002 0.0824986 -2.96092e-20)
(100.009 0.0944239 -6.188e-19)
(100.006 0.0598493 0)
(100.004 0.0322918 -7.92714e-20)
(100.004 0.0103487 -5.25109e-19)
(99.9928 0.0051488 6.37297e-19)
(99.9893 0.017951 1.6977e-19)
(99.9811 0.0396633 1.18507e-18)
(99.9676 0.0739482 -4.99849e-19)
(99.9698 0.102539 7.12466e-20)
(99.9491 0.174622 -7.29508e-22)
(99.9226 0.284779 0)
(99.9114 0.387729 -5.02674e-20)
(99.8807 0.577536 -4.67666e-20)
(99.8538 0.820848 -8.22382e-20)
(99.8434 1.09758 -3.42115e-20)
(99.8641 1.35892 -4.50862e-20)
(99.9207 1.53387 -9.22735e-21)
(99.9963 1.56462 4.93558e-23)
(100.062 1.44743 -3.57764e-21)
(100.1 1.2309 3.41679e-20)
(100.109 0.978726 -6.78646e-20)
(100.098 0.744027 0)
(100.112 0.5659 -4.82969e-19)
(100.081 0.392623 9.36267e-19)
(100.082 0.270292 6.31216e-19)
(100.06 0.171078 1.32674e-18)
(100.045 0.0920315 -1.33175e-18)
(100.039 0.0294215 6.29676e-19)
(99.9806 0.00607442 -6.37779e-19)
(99.9706 0.0220031 -1.36554e-18)
(99.9489 0.0513817 -3.05694e-18)
(99.9129 0.0998896 4.00186e-18)
(99.896 0.159907 -1.45707e-19)
(99.834 0.280066 -1.38661e-19)
(99.7499 0.465967 -2.34825e-19)
(99.6978 0.676445 0)
(99.5917 1.03361 1.8604e-19)
(99.4962 1.5067 4.02371e-20)
(99.4599 2.07137 -1.01993e-19)
(99.548 2.62731 -1.07123e-21)
(99.7824 3.01078 1.39119e-20)
(100.088 3.08009 -2.48593e-22)
(100.341 2.82562 0)
(100.47 2.36657 2.60787e-20)
(100.48 1.84504 -6.99791e-20)
(100.422 1.3672 -1.67545e-19)
(100.375 0.97144 -2.91858e-18)
(100.278 0.663137 -6.4919e-19)
(100.23 0.412245 -6.49533e-19)
(100.167 0.259217 1.50068e-18)
(100.127 0.138703 -1.68894e-19)
(100.11 0.0441545 0)
(99.968 0.00337841 -3.20679e-19)
(99.949 0.0148187 2.40041e-18)
(99.9089 0.0427888 -6.86799e-19)
(99.8419 0.0950903 0)
(99.7929 0.176964 0)
(99.6705 0.327628 -1.12573e-18)
(99.4997 0.56944 -2.19389e-18)
(99.3567 0.877484 2.08563e-19)
(99.1121 1.38889 9.94767e-20)
(98.8669 2.10663 4.72501e-20)
(98.7449 3.01202 -1.32971e-19)
(98.9032 4.00351 3.71303e-20)
(99.464 4.74826 3.72024e-20)
(100.24 4.86542 0)
(100.843 4.34906 0)
(101.105 3.51805 -1.19722e-19)
(101.1 2.65989 0)
(100.946 1.91074 0)
(100.781 1.29256 1.05278e-18)
(100.576 0.86267 -8.21339e-19)
(100.437 0.501423 -1.66168e-18)
(100.317 0.310445 8.56266e-19)
(100.241 0.164164 -1.72195e-19)
(100.207 0.0519412 0)
(99.9637 -0.00375384 0)
(99.9343 -0.00613504 0)
(99.8732 0.00908338 3.46005e-19)
(99.7704 0.0517959 5.15089e-19)
(99.6779 0.142694 3.75713e-19)
(99.4806 0.298739 0)
(99.1991 0.559661 0)
(98.9223 0.928691 0)
(98.464 1.55688 1.75472e-18)
(97.9681 2.47824 2.34923e-19)
(97.5671 3.82109 0)
(97.6777 5.56776 2.14042e-19)
(98.8324 7.0716 2.56859e-20)
(100.599 7.2356 -2.1039e-20)
(101.806 6.13725 5.62646e-19)
(102.178 4.64423 1.66128e-18)
(102.028 3.32495 3.24287e-19)
(101.681 2.30579 -4.1256e-21)
(101.314 1.47668 -1.74896e-18)
(100.954 0.956453 1.46669e-19)
(100.68 0.518065 0)
(100.487 0.312606 1.75607e-19)
(100.369 0.162123 -1.32094e-19)
(100.313 0.0507663 -4.10744e-20)
(99.977 -0.0156024 0)
(99.9371 -0.0417379 0)
(99.855 -0.0515534 -6.94506e-19)
(99.7158 -0.0335709 1.39209e-18)
(99.5729 0.0496748 0)
(99.2966 0.181429 0)
(98.894 0.418003 4.56389e-19)
(98.4519 0.792998 1.76402e-19)
(97.7364 1.41381 2.53271e-19)
(96.8224 2.413 -1.24966e-18)
(95.7548 4.17793 1.51627e-18)
(95.2369 7.21831 -1.4328e-18)
(97.4368 10.745 2.42606e-20)
(101.65 10.7722 0)
(103.734 8.15148 2.19067e-18)
(103.899 5.59463 0)
(103.313 3.71178 -2.88566e-19)
(102.589 2.42624 5.01716e-19)
(101.934 1.46376 4.481e-19)
(101.374 0.910096 -3.02964e-19)
(100.926 0.445859 0)
(100.653 0.257042 0)
(100.487 0.128377 -4.45608e-20)
(100.408 0.0393325 -1.2556e-19)
(100.017 -0.0318643 1.58418e-19)
(99.9675 -0.0910448 -1.70542e-19)
(99.867 -0.137433 3.48023e-19)
(99.6958 -0.158731 -1.25718e-18)
(99.5021 -0.101871 1.30848e-21)
(99.1536 -0.024661 4.64608e-19)
(98.6405 0.14006 -2.36246e-18)
(98.0349 0.449618 -2.50016e-19)
(97.0807 0.924581 5.95736e-19)
(95.6588 1.73478 4.02108e-19)
(93.4712 3.30097 1.12245e-18)
(90.145 7.39551 2.77287e-18)
(92.959 17.4678 3.18602e-19)
(105.558 16.3017 3.45783e-18)
(107.428 9.85837 0)
(106.389 5.89412 8.67501e-19)
(104.912 3.56571 -4.7362e-19)
(103.601 2.1714 -7.76974e-20)
(102.551 1.19523 0)
(101.78 0.699821 1.66756e-19)
(101.139 0.278457 1.14939e-19)
(100.785 0.141271 -1.38569e-19)
(100.573 0.0620029 -1.58377e-19)
(100.471 0.0174112 3.56669e-19)
(100.092 -0.0516687 -1.58332e-19)
(100.035 -0.151308 1.70385e-19)
(99.9206 -0.243289 -2.16122e-19)
(99.7258 -0.315254 -1.42991e-19)
(99.488 -0.30158 2.69605e-19)
(99.0855 -0.303061 1.56469e-19)
(98.4926 -0.248841 1.22558e-18)
(97.7684 -0.0707511 2.26966e-19)
(96.6675 0.141063 0)
(94.944 0.464522 1.64942e-19)
(92.1392 0.840078 -9.36636e-19)
(86.6719 0.938202 9.91648e-19)
(117.402 20.8017 9.24494e-19)
(113.133 9.10271 -1.94647e-19)
(109.315 4.80046 1.44002e-19)
(106.532 2.64009 -2.30991e-19)
(104.541 1.45935 7.07172e-20)
(103.053 0.660991 -9.13134e-20)
(102.101 0.325341 3.76855e-19)
(101.275 0.0239991 -1.40796e-19)
(100.855 -0.0287312 1.17422e-19)
(100.606 -0.0335291 -2.2942e-20)
(100.485 -0.013845 -3.36255e-19)
(100.207 -0.0737127 -7.63326e-20)
(100.146 -0.21846 -6.12464e-20)
(100.024 -0.36152 -2.09664e-20)
(99.8164 -0.49103 6.25454e-20)
(99.5459 -0.532079 -4.94198e-22)
(99.1147 -0.625238 0)
(98.484 -0.699573 2.00413e-19)
(97.7094 -0.683873 -1.31886e-21)
(96.5921 -0.752817 4.17284e-21)
(94.9113 -0.897158 -2.09771e-19)
(92.615 -1.3775 -9.29363e-20)
(90.3228 -2.90693 -3.30326e-20)
(130.453 9.35787 0)
(117.787 4.10676 6.56373e-19)
(111.538 1.9997 7.21753e-19)
(107.689 0.904174 3.40196e-20)
(105.169 0.324664 -2.10778e-19)
(103.328 -0.0925247 -9.63658e-20)
(102.262 -0.183616 2.13556e-19)
(101.3 -0.29443 4.85499e-20)
(100.838 -0.238296 0)
(100.565 -0.150282 1.81389e-19)
(100.431 -0.0518989 1.67978e-19)
(100.365 -0.0964584 1.50309e-19)
(100.303 -0.287782 2.35181e-21)
(100.181 -0.483414 0)
(99.9722 -0.672519 8.25382e-21)
(99.6827 -0.774015 -3.69049e-20)
(99.2485 -0.960671 3.82179e-20)
(98.6206 -1.16194 0)
(97.8529 -1.30164 -4.02785e-21)
(96.8043 -1.59406 1.57868e-19)
(95.2842 -2.00765 1.83885e-19)
(93.4298 -2.64465 0)
(91.8552 -3.4562 -2.00428e-20)
(130.059 -5.16162 -9.42663e-19)
(118.369 -2.5773 0)
(111.994 -1.65954 1.86231e-19)
(107.943 -1.26876 -6.34752e-20)
(105.281 -1.04532 -4.06558e-19)
(103.299 -0.955508 8.26506e-19)
(102.213 -0.764052 0)
(101.19 -0.64153 -4.76662e-20)
(100.717 -0.465625 -2.01122e-19)
(100.438 -0.276772 2.24977e-20)
(100.299 -0.0931116 0)
(100.567 -0.118401 -7.39523e-20)
(100.507 -0.354631 7.95669e-20)
(100.39 -0.600506 7.76406e-20)
(100.191 -0.846752 -7.12992e-20)
(99.8971 -1.00846 -3.63363e-20)
(99.4821 -1.28155 0)
(98.8887 -1.59674 -7.45035e-20)
(98.1643 -1.87046 5.70448e-20)
(97.2116 -2.32956 -2.8202e-19)
(95.8193 -2.90232 -1.62831e-19)
(94.1109 -3.56967 -4.15624e-19)
(92.6012 -4.13408 6.24619e-20)
(123.118 -13.925 1.06233e-18)
(115.563 -7.88314 0)
(110.674 -4.92637 -1.37084e-18)
(107.227 -3.32212 0)
(104.831 -2.37656 -3.96243e-19)
(102.949 -1.79052 0)
(101.945 -1.33498 -5.09698e-19)
(100.941 -0.978116 -5.98371e-19)
(100.49 -0.686637 4.56183e-20)
(100.222 -0.400323 -1.4599e-19)
(100.087 -0.133463 2.00523e-20)
(100.81 -0.138164 2.71767e-19)
(100.755 -0.414608 0)
(100.649 -0.705072 -7.74071e-20)
(100.469 -1.00149 0)
(100.181 -1.21946 0)
(99.8031 -1.56615 -1.05216e-19)
(99.2674 -1.97611 -2.58253e-20)
(98.6091 -2.36164 9.08238e-22)
(97.7631 -2.95522 7.16146e-20)
(96.4712 -3.67433 1.59105e-19)
(94.7744 -4.47092 -3.44365e-19)
(93.1393 -5.08814 2.9302e-22)
(115.046 -17.57 -1.42235e-18)
(111.264 -10.7924 3.10526e-19)
(108.276 -7.07416 -1.09911e-18)
(105.813 -4.84369 -5.19542e-20)
(103.931 -3.44165 -4.56691e-20)
(102.331 -2.48306 4.31781e-20)
(101.487 -1.82741 -6.21278e-19)
(100.571 -1.27058 3.54254e-19)
(100.166 -0.880018 0)
(99.9233 -0.509631 1.6845e-19)
(99.7993 -0.169321 0)
(101.088 -0.1552 -2.70407e-19)
(101.04 -0.466435 4.53391e-18)
(100.948 -0.794508 -9.08732e-18)
(100.792 -1.1335 -2.42708e-20)
(100.525 -1.39475 -3.18228e-20)
(100.197 -1.79803 0)
(99.7362 -2.27841 2.65842e-19)
(99.1596 -2.75466 -1.66707e-21)
(98.4425 -3.45842 -3.79774e-21)
(97.2896 -4.33968 -7.28763e-20)
(95.6719 -5.41988 1.87467e-19)
(93.9469 -6.34873 0)
(104.33 -26.822 -3.86733e-19)
(107.248 -16.7363 0)
(106.926 -11.4444 2.86821e-20)
(105.583 -7.97391 0)
(104.092 -5.67941 9.10776e-20)
(102.778 -4.12499 1.22019e-18)
(101.543 -2.96581 -1.29853e-18)
(100.895 -2.19547 0)
(100.108 -1.49525 0)
(99.7658 -1.03102 5.27311e-19)
(99.5569 -0.596543 9.76412e-20)
(99.4487 -0.198018 -2.97187e-19)
(101.394 -0.167998 0)
(101.354 -0.505294 0)
(101.278 -0.860681 0)
(101.151 -1.23109 0)
(100.905 -1.53388 0)
(100.629 -1.97821 0)
(100.249 -2.50975 0)
(99.7731 -3.04728 0)
(99.209 -3.82371 0)
(98.2768 -4.83726 0)
(97.012 -6.25573 0)
(95.5195 -8.43618 0)
(97.258 -17.139 0)
(102.485 -13.7899 0)
(103.505 -10.5213 1.08045e-18)
(103.18 -7.88052 0)
(102.404 -5.89781 0)
(101.568 -4.42719 -9.87678e-19)
(100.687 -3.22768 -1.76454e-18)
(100.233 -2.42495 -6.50456e-19)
(99.5886 -1.64366 -8.43789e-19)
(99.3128 -1.13316 8.49546e-19)
(99.141 -0.656906 0)
(99.0509 -0.218139 7.98969e-19)
(101.72 -0.176418 0)
(101.689 -0.530842 0)
(101.631 -0.90305 0)
(101.533 -1.29174 0)
(101.318 -1.61838 0)
(101.101 -2.08142 0)
(100.809 -2.62985 0)
(100.438 -3.19281 0)
(100.043 -3.9739 0)
(99.4 -4.98548 0)
(98.7134 -6.38702 0)
(97.8316 -8.3569 0)
(98.6332 -10.8463 -5.51729e-29)
(100.499 -10.5224 0)
(101.319 -8.9469 0)
(101.335 -7.21188 0)
(100.951 -5.68307 0)
(100.443 -4.42567 -1.97151e-19)
(99.8518 -3.30173 0)
(99.5538 -2.52353 0)
(99.045 -1.71758 -1.57475e-18)
(98.8318 -1.18661 7.93273e-19)
(98.6953 -0.690479 3.33361e-20)
(98.6232 -0.229477 -5.51986e-19)
(102.059 -0.180497 0)
(102.036 -0.543179 0)
(101.995 -0.922124 0)
(101.926 -1.31769 0)
(101.741 -1.65532 0)
(101.579 -2.11799 0)
(101.365 -2.65801 0)
(101.092 -3.21128 0)
(100.829 -3.94363 0)
(100.425 -4.827 0)
(100.049 -5.91301 0)
(96.6139 -6.75478 0)
(99.3883 -8.25727 4.51546e-33)
(99.8091 -8.21114 0)
(100.072 -7.44338 0)
(100.036 -6.35382 0)
(99.7937 -5.23404 0)
(99.4685 -4.22 0)
(99.0871 -3.23704 -5.6382e-19)
(98.8984 -2.51616 8.64996e-19)
(98.5044 -1.72674 4.91758e-19)
(98.3445 -1.19795 8.56255e-19)
(98.2384 -0.700287 -9.76275e-19)
(98.1823 -0.232775 0)
(102.401 -0.180619 0)
(102.386 -0.543521 0)
(102.36 -0.920287 0)
(102.315 -1.31267 0)
(102.16 -1.65036 0)
(102.044 -2.09724 0)
(101.895 -2.60835 0)
(101.697 -3.12553 0)
(101.525 -3.77099 0)
(101.243 -4.49137 0)
(100.966 -5.27207 0)
(95.8752 -5.56798 0)
(99.7972 -6.64268 9.65233e-38)
(99.5218 -6.63026 0)
(99.3521 -6.20614 0)
(99.1534 -5.50754 0)
(98.9133 -4.70675 0)
(98.6723 -3.91598 0)
(98.4082 -3.07404 0)
(98.2912 -2.43005 0)
(97.9861 -1.68512 1.70402e-18)
(97.8677 -1.17526 -1.62757e-18)
(97.7856 -0.690052 -1.10536e-19)
(97.7423 -0.229524 1.03965e-19)
(102.74 -0.177368 0)
(102.732 -0.533665 0)
(102.718 -0.900905 0)
(102.693 -1.28187 0)
(102.563 -1.61052 0)
(102.483 -2.0311 0)
(102.38 -2.50097 0)
(102.234 -2.96749 0)
(102.107 -3.51518 0)
(101.864 -4.08413 0)
(101.608 -4.65284 0)
(95.5673 -4.70799 0)
(100.017 -5.50924 0)
(99.3682 -5.49302 0)
(98.9059 -5.2274 0)
(98.5468 -4.75726 0)
(98.254 -4.17637 0)
(98.0294 -3.56165 0)
(97.8213 -2.85368 0)
(97.7431 -2.28987 0)
(97.5015 -1.60557 0)
(97.4124 -1.12545 0)
(97.3485 -0.664745 0)
(97.3149 -0.221656 0)
(103.069 -0.171415 0)
(103.067 -0.515674 0)
(103.062 -0.867801 0)
(103.052 -1.23132 0)
(102.942 -1.54435 0)
(102.888 -1.93267 0)
(102.814 -2.35602 0)
(102.698 -2.76776 0)
(102.583 -3.22446 0)
(102.334 -3.67158 0)
(102.063 -4.09556 0)
(95.5407 -4.05179 0)
(100.137 -4.65748 0)
(99.2655 -4.63369 0)
(98.6068 -4.44835 0)
(98.1154 -4.11444 0)
(97.7551 -3.68206 0)
(97.5133 -3.20024 0)
(97.3218 -2.60876 0)
(97.2584 -2.12091 0)
(97.0571 -1.50267 0)
(96.9863 -1.05825 0)
(96.9344 -0.62835 0)
(96.9081 -0.209603 0)
(103.386 -0.163462 0)
(103.387 -0.491687 0)
(103.389 -0.824848 0)
(103.388 -1.16696 0)
(103.294 -1.46023 0)
(103.254 -1.81399 0)
(103.195 -2.19061 0)
(103.092 -2.54974 0)
(102.967 -2.9286 0)
(102.695 -3.28265 0)
(102.388 -3.60616 0)
(95.6797 -3.52851 0)
(100.198 -3.98944 0)
(99.1851 -3.9595 0)
(98.3914 -3.81885 0)
(97.7965 -3.56956 0)
(97.3705 -3.23832 0)
(97.0967 -2.85522 0)
(96.8989 -2.36047 0)
(96.834 -1.94031 0)
(96.6553 -1.38765 0)
(96.5937 -0.981448 0)
(96.5486 -0.585486 0)
(96.5267 -0.195225 0)
(103.686 -0.154179 0)
(103.69 -0.463726 0)
(103.695 -0.775605 0)
(103.699 -1.09413 0)
(103.616 -1.36552 0)
(103.583 -1.68494 0)
(103.528 -2.01759 0)
(103.425 -2.3292 0)
(103.28 -2.64401 0)
(102.978 -2.92808 0)
(102.621 -3.17972 0)
(95.908 -3.09805 0)
(100.225 -3.45002 -5.23458e-34)
(99.1164 -3.41579 0)
(98.2269 -3.30233 0)
(97.552 -3.10812 0)
(97.0677 -2.84722 0)
(96.7571 -2.53758 0)
(96.5403 -2.12155 0)
(96.4638 -1.75974 0)
(96.2948 -1.26877 0)
(96.2358 -0.90084 0)
(96.1934 -0.539606 0)
(96.1737 -0.179823 0)
(103.967 -0.144152 0)
(103.972 -0.433556 0)
(103.979 -0.723107 0)
(103.984 -1.01724 0)
(103.909 -1.26614 0)
(103.876 -1.55299 0)
(103.818 -1.84587 0)
(103.708 -2.1159 0)
(103.536 -2.37893 0)
(103.205 -2.61037 0)
(102.785 -2.809 0)
(96.1777 -2.7365 0)
(100.23 -3.00554 0)
(99.0547 -2.96856 0)
(98.0952 -2.873 0)
(97.3582 -2.71632 0)
(96.824 -2.50568 0)
(96.4768 -2.25127 0)
(96.2351 -1.89896 0)
(96.1413 -1.5866 0)
(95.973 -1.15185 0)
(95.9119 -0.820604 0)
(95.8692 -0.493279 0)
(95.8501 -0.164289 0)
(104.229 -0.133866 0)
(104.235 -0.402624 0)
(104.242 -0.669789 0)
(104.245 -0.939792 0)
(104.173 -1.16663 0)
(104.137 -1.4235 0)
(104.07 -1.6812 0)
(103.948 -1.91549 0)
(103.748 -2.1369 0)
(103.39 -2.32846 0)
(102.899 -2.487 0)
(96.4604 -2.42868 0)
(100.221 -2.63407 -6.64485e-34)
(98.9979 -2.5955 0)
(97.986 -2.51259 0)
(97.2005 -2.38257 0)
(96.6241 -2.20882 0)
(96.2425 -1.99662 0)
(95.9737 -1.69598 0)
(95.8598 -1.42523 0)
(95.6864 -1.04069 0)
(95.6202 -0.743578 0)
(95.5751 -0.448312 0)
(95.5554 -0.149233 0)
(104.471 -0.123699 0)
(104.477 -0.372057 0)
(104.482 -0.617505 0)
(104.482 -0.864364 0)
(104.412 -1.07024 0)
(104.368 -1.30005 0)
(104.289 -1.52709 0)
(104.153 -1.73088 0)
(103.925 -1.91885 0)
(103.544 -2.07983 0)
(102.977 -2.20742 0)
(96.7395 -2.16438 0)
(100.203 -2.32059 0)
(98.945 -2.28125 0)
(97.893 -2.2078 0)
(97.0691 -2.09746 0)
(96.4573 -1.95151 0)
(96.0444 -1.7721 0)
(95.7484 -1.51361 0)
(95.6134 -1.27781 0)
(95.4315 -0.937565 0)
(95.3583 -0.671554 0)
(95.3095 -0.405895 0)
(95.2884 -0.135053 0)
(104.695 -0.113934 0)
(104.7 -0.342696 0)
(104.702 -0.567601 0)
(104.697 -0.792782 0)
(104.626 -0.97918 0)
(104.574 -1.18491 0)
(104.482 -1.38544 0)
(104.33 -1.56332 0)
(104.076 -1.72437 0)
(103.674 -1.86152 0)
(103.027 -1.96489 0)
(97.0061 -1.93638 0)
(100.179 -2.05442 2.17489e-34)
(98.8954 -2.01487 0)
(97.8121 -1.94879 0)
(96.9575 -1.85348 0)
(96.316 -1.72896 0)
(95.875 -1.57543 0)
(95.5529 -1.3516 0)
(95.397 -1.14515 0)
(95.2046 -0.843661 0)
(95.1235 -0.605554 0)
(95.0701 -0.366755 0)
(95.047 -0.121986 0)
(104.901 -0.104772 0)
(104.904 -0.315138 0)
(104.903 -0.521009 0)
(104.892 -0.726267 0)
(104.82 -0.894867 0)
(104.757 -1.07937 0)
(104.65 -1.25711 0)
(104.482 -1.41303 0)
(104.205 -1.55234 0)
(103.784 -1.67059 0)
(103.058 -1.75485 0)
(97.2557 -1.73935 0)
(100.151 -1.82765 0)
(98.8485 -1.78825 0)
(97.7407 -1.72813 0)
(96.8614 -1.64458 0)
(96.1948 -1.53692 0)
(95.7288 -1.40412 0)
(95.3821 -1.20896 0)
(95.2061 -1.02722 0)
(95.0022 -0.759438 0)
(94.9127 -0.546059 0)
(94.8544 -0.331275 0)
(94.8291 -0.11016 0)
(105.09 -0.0963479 0)
(105.091 -0.289784 0)
(105.087 -0.478331 0)
(105.069 -0.665573 0)
(104.994 -0.818137 0)
(104.921 -0.984099 0)
(104.799 -1.14234 0)
(104.616 -1.27965 0)
(104.317 -1.40135 0)
(103.879 -1.50441 0)
(103.075 -1.5735 0)
(97.4867 -1.56923 0)
(100.119 -1.6343 0)
(98.8041 -1.59528 0)
(97.6768 -1.54008 0)
(96.7773 -1.46593 0)
(96.0895 -1.37174 0)
(95.6013 -1.25572 0)
(95.2319 -1.08444 0)
(95.037 -0.923482 0)
(94.8212 -0.684883 0)
(94.7233 -0.493186 0)
(94.6599 -0.299603 0)
(94.6322 -0.0996177 0)
(105.263 -0.0887451 0)
(105.263 -0.266881 0)
(105.255 -0.439921 0)
(105.23 -0.611112 0)
(105.152 -0.749391 0)
(105.068 -0.899285 0)
(104.931 -1.04092 0)
(104.733 -1.16248 0)
(104.415 -1.26988 0)
(103.961 -1.36062 0)
(103.082 -1.41759 0)
(97.699 -1.4228 0)
(100.086 -1.46972 0)
(98.762 -1.4312 0)
(97.6191 -1.38011 0)
(96.703 -1.3136 0)
(95.9972 -1.23028 0)
(95.4892 -1.12795 0)
(95.0988 -0.976628 0)
(94.8862 -0.833165 0)
(94.6586 -0.619696 0)
(94.5526 -0.44682 0)
(94.4842 -0.271729 0)
(94.454 -0.0903538 0)
(105.424 -0.0820107 0)
(105.422 -0.246571 0)
(105.409 -0.405962 0)
(105.377 -0.563069 0)
(105.295 -0.688759 0)
(105.201 -0.824854 0)
(105.05 -0.952426 0)
(104.837 -1.06071 0)
(104.502 -1.15648 0)
(104.033 -1.23716 0)
(103.082 -1.28444 0)
(97.8936 -1.29752 0)
(100.051 -1.33027 0)
(98.7218 -1.2923 0)
(97.5664 -1.24467 0)
(96.6365 -1.18439 0)
(95.9153 -1.10991 0)
(95.3898 -1.01878 0)
(94.9801 -0.88417 0)
(94.7509 -0.755382 0)
(94.5118 -0.563434 0)
(94.398 -0.406719 0)
(94.3247 -0.247552 0)
(94.292 -0.0823313 0)
(105.572 -0.0761643 0)
(105.568 -0.228915 0)
(105.551 -0.376516 0)
(105.512 -0.521461 0)
(105.426 -0.636193 0)
(105.321 -0.760564 0)
(105.156 -0.876331 0)
(104.93 -0.973462 0)
(104.581 -1.05979 0)
(104.096 -1.13224 0)
(103.077 -1.17179 0)
(98.0717 -1.1913 0)
(100.015 -1.21302 0)
(98.6834 -1.1756 0)
(97.5178 -1.13087 0)
(96.5765 -1.07569 0)
(95.842 -1.00841 0)
(95.3008 -0.926449 0)
(94.8733 -0.805799 0)
(94.6288 -0.689251 0)
(94.3783 -0.515585 0)
(94.2571 -0.372575 0)
(94.1792 -0.226918 0)
(94.144 -0.0754957 0)
(105.71 -0.0712165 0)
(105.704 -0.213939 0)
(105.683 -0.351592 0)
(105.637 -0.486275 0)
(105.547 -0.59155 0)
(105.431 -0.706103 0)
(105.253 -0.812073 0)
(105.014 -0.899888 0)
(104.652 -0.978591 0)
(104.153 -1.04433 0)
(103.069 -1.07774 0)
(98.2349 -1.10247 0)
(99.9788 -1.11562 -3.1073e-35)
(98.6465 -1.07872 0)
(97.4727 -1.03641 0)
(96.5218 -0.98539 0)
(95.7756 -0.923932 0)
(95.2203 -0.849425 0)
(94.7763 -0.740391 0)
(94.5176 -0.633953 0)
(94.2562 -0.475688 0)
(94.128 -0.344086 0)
(94.0455 -0.209669 0)
(94.008 -0.069794 0)
(105.84 -0.0671456 0)
(105.832 -0.201599 0)
(105.806 -0.331107 0)
(105.754 -0.457274 0)
(105.659 -0.554657 0)
(105.533 -0.661139 0)
(105.341 -0.759111 0)
(105.091 -0.839216 0)
(104.717 -0.911839 0)
(104.204 -0.972162 0)
(103.059 -1.00074 0)
(98.3846 -1.02964 0)
(99.9421 -1.03621 0)
(98.6108 -0.999763 0)
(97.4304 -0.959439 0)
(96.4712 -0.911758 0)
(95.7148 -0.854956 0)
(95.1467 -0.786436 0)
(94.6874 -0.686979 0)
(94.4153 -0.588759 0)
(94.1429 -0.443172 0)
(94.0079 -0.320918 0)
(93.9211 -0.195609 0)
(93.8812 -0.0651535 0)
(105.962 -0.0639954 0)
(105.951 -0.191977 0)
(105.921 -0.315153 0)
(105.863 -0.434886 0)
(105.764 -0.525354 0)
(105.627 -0.625364 0)
(105.424 -0.716958 0)
(105.163 -0.790758 0)
(104.778 -0.858628 0)
(104.25 -0.914649 0)
(103.048 -0.939501 0)
(98.5223 -0.971728 0)
(99.9052 -0.97329 0)
(98.5762 -0.937218 0)
(97.3903 -0.898467 0)
(96.424 -0.853407 0)
(95.6584 -0.800245 0)
(95.0787 -0.73643 0)
(94.605 -0.644756 0)
(94.3202 -0.55308 0)
(94.0382 -0.418105 0)
(93.8969 -0.302936 0)
(93.806 -0.184685 0)
(93.7639 -0.0615722 0)
(106.084 -0.0615919 0)
(106.071 -0.184717 0)
(106.037 -0.303234 0)
(105.971 -0.417406 0)
(105.863 -0.503555 0)
(105.716 -0.598521 0)
(105.501 -0.685208 0)
(105.23 -0.753937 0)
(104.835 -0.818202 0)
(104.292 -0.870911 0)
(103.037 -0.893008 0)
(98.6495 -0.927876 0)
(99.8684 -0.9257 0)
(98.5425 -0.889903 0)
(97.352 -0.852332 0)
(96.3793 -0.809242 0)
(95.6055 -0.758817 0)
(95.0149 -0.698571 0)
(94.5276 -0.613076 0)
(94.2309 -0.526385 0)
(93.9346 -0.398759 0)
(93.7865 -0.289529 0)
(93.6913 -0.17646 0)
(93.6468 -0.0588478 0)
(106.18 -0.0603987 0)
(106.165 -0.180751 0)
(106.127 -0.296653 0)
(106.058 -0.410251 0)
(105.957 -0.489175 0)
(105.801 -0.580369 0)
(105.575 -0.663599 0)
(105.294 -0.728281 0)
(104.889 -0.789916 0)
(104.332 -0.840212 0)
(103.027 -0.860449 0)
(98.7675 -0.897476 0)
(99.8316 -0.892586 0)
(98.5093 -0.856911 0)
(97.3149 -0.820128 0)
(96.3365 -0.778404 0)
(95.555 -0.729908 0)
(94.9543 -0.67223 0)
(94.4541 -0.591437 0)
(94.1458 -0.508467 0)
(93.8518 -0.389863 0)
(93.6995 -0.281791 0)
(93.6011 -0.171774 0)
(93.555 -0.0574197 0)
(106.346 -0.059081 0)
(106.328 -0.177177 0)
(106.284 -0.291057 0)
(106.203 -0.399203 0)
(106.044 -0.48118 0)
(105.879 -0.570789 0)
(105.643 -0.652573 0)
(105.356 -0.713426 0)
(104.941 -0.773166 0)
(104.37 -0.821911 0)
(103.018 -0.841242 0)
(98.8774 -0.880294 0)
(99.7949 -0.873381 0)
(98.4764 -0.837563 0)
(97.2787 -0.801173 0)
(96.295 -0.760251 0)
(95.5063 -0.712936 0)
(94.8959 -0.657007 0)
(94.3861 -0.579623 0)
(94.0684 -0.498199 0)
(93.714 -0.377693 0)
(93.5517 -0.275178 0)
(93.4479 -0.167488 0)
(93.3986 -0.0558478 0)
(89.9445 -2.79006 -9.60556e-22)
(132.007 12.4109 2.1658e-20)
(117.936 23.306 -2.83402e-18)
(91.7419 -3.37789 -1.51439e-20)
(132.584 -4.14692 -1.87408e-19)
(132.87 10.1712 -6.39815e-19)
(92.527 -4.04351 -6.18689e-20)
(125.165 -14.2556 -5.91027e-19)
(131.895 -5.8282 1.13118e-18)
(93.0653 -4.94568 1.28814e-19)
(116.509 -18.4317 3.53139e-18)
(124.088 -15.045 -5.47545e-19)
(93.8884 -6.25034 -6.52197e-20)
(104.29 -27.5679 1.83516e-19)
(105.034 -27.1346 0)
(108.41 -18.4403 -1.73771e-18)
(115.442 -18.6492 -7.44004e-19)
(95.3062 -8.1538 0)
(96.0169 -18.2075 0)
(103.932 -27.4696 0)
(97.4217 -18.4448 1.68259e-19)
(102.757 -15.7393 -6.52456e-19)
(107.501 -18.2707 -2.08782e-19)
(86.6059 2.01005 -2.86548e-18)
(91.6945 16.1431 -3.05471e-19)
(115.288 23.4092 3.38655e-20)
(103.802 17.4433 -8.16032e-19)
(136.53 30.2974 1.9441e-19)
(117.203 39.3271 5.05927e-18)
(129.624 11.3158 0)
(118.998 6.73703 2.77111e-19)
(114.282 10.8048 -2.21299e-19)
(93.2375 -2.37883 0)
(91.9154 -3.25285 2.00824e-20)
(90.5363 -2.56402 -6.34897e-20)
(143.806 1.68325 5.43251e-20)
(144.214 13.9453 0)
(130.624 -3.60938 3.77476e-19)
(120.852 -1.16281 -1.0878e-18)
(119.988 4.85488 -2.32347e-19)
(93.9503 -3.34879 -2.54849e-20)
(92.7076 -3.96017 -9.64403e-20)
(92.0323 -3.33767 -1.9552e-20)
(92.173 -3.70664 8.11737e-20)
(91.4444 -4.08395 2.67919e-20)
(91.0346 -3.79068 -3.19114e-20)
(133.809 -15.3816 6.93684e-19)
(139.412 -9.06182 0)
(124.106 -13.1551 -1.68453e-18)
(118.154 -7.79251 -2.34872e-18)
(120.51 -3.05179 0)
(94.5976 -4.23968 3.49536e-19)
(93.286 -4.86644 -1.59488e-19)
(92.7849 -4.05561 0)
(92.8005 -4.43937 4.23272e-20)
(91.7664 -4.61915 0)
(91.7704 -4.32458 5.75365e-20)
(122.847 -21.8714 -8.83627e-21)
(127.607 -19.7407 0)
(95.411 -5.1822 -2.25411e-20)
(94.053 -6.11367 -1.13922e-19)
(93.3644 -5.00504 0)
(93.4695 -5.56836 4.7669e-20)
(91.7382 -5.84996 5.92365e-20)
(91.7771 -5.24117 -5.58952e-20)
(109.115 -28.3085 0)
(112.391 -23.4298 0)
(116.908 -23.3073 3.57839e-19)
(96.6276 -6.09624 0)
(95.4643 -7.85903 0)
(94.1758 -6.29463 0)
(94.4333 -7.07849 0)
(90.5646 -7.31442 -1.152e-18)
(91.5068 -6.58132 5.17623e-19)
(98.5786 -8.50264 0)
(97.6215 -11.235 1.0228e-27)
(96.0167 -17.4839 -1.68664e-22)
(86.6128 -5.75318 -5.61352e-20)
(89.9419 -4.68982 3.29086e-20)
(79.0909 -0.231683 4.5989e-18)
(85.7735 -5.71348 2.7279e-19)
(144.083 14.8682 2.61359e-18)
(137.365 29.4203 -1.54708e-19)
(127.62 18.6422 -1.53237e-18)
(136.221 27.6977 9.13547e-19)
(143.129 14.6892 -8.70424e-19)
(90.9937 -3.74016 0)
(90.7901 -3.63985 -3.67406e-20)
(91.337 -3.18872 0)
(90.6816 -3.67355 0)
(90.8511 -3.78049 0)
(90.1178 -4.49459 -4.77916e-20)
(90.6548 -3.71184 0)
(139.74 -8.51794 2.67486e-20)
(143.653 0.948469 5.4545e-20)
(133.294 1.99969 1.84846e-19)
(142.996 1.14911 -2.623e-20)
(139.323 -8.18403 0)
(143.291 13.7855 -1.08365e-19)
(143.139 1.86022 2.06324e-19)
(133.318 3.00831 1.2064e-20)
(91.7475 -4.29077 0)
(91.498 -4.10935 -4.04127e-20)
(92.2704 -3.78969 -2.04789e-20)
(91.3403 -4.14668 7.82909e-20)
(91.5777 -4.31382 0)
(90.8695 -3.81113 5.56016e-21)
(91.3143 -4.13328 1.49778e-19)
(128.292 -19.3466 0)
(133.417 -15.7292 -1.6883e-19)
(128.295 -11.3147 -4.42307e-21)
(132.928 -15.2378 6.16803e-19)
(128.018 -18.6422 0)
(139.007 -8.72621 0)
(133.675 -14.6079 -3.7433e-19)
(129.283 -10.1269 0)
(91.7698 -5.20104 -3.88988e-23)
(91.7629 -4.65005 -1.26706e-19)
(92.8637 -4.55537 -1.47588e-19)
(91.5876 -4.64289 1.12834e-19)
(91.4988 -5.20606 0)
(91.5865 -4.33209 2.66963e-20)
(91.5965 -4.61268 2.17201e-19)
(117.561 -23.2149 3.67671e-19)
(122.175 -22.0955 -9.6041e-19)
(91.5237 -6.53223 2.54444e-19)
(91.7332 -5.90016 -3.02042e-20)
(93.516 -5.65104 6.36061e-20)
(107.26 -28.3463 0)
(91.2521 -5.88709 -2.28965e-19)
(90.5956 -6.49196 -3.46779e-19)
(91.5028 -5.24552 -6.14434e-20)
(91.2738 -5.84115 0)
(107.023 -28.2405 1.79164e-19)
(107.666 -22.8442 7.8289e-19)
(111.746 -23.4415 0)
(109.045 -28.3234 1.6591e-19)
(78.1169 -7.64343 2.67863e-19)
(90.5138 -7.38546 -4.60064e-21)
(94.5208 -7.20515 4.02796e-22)
(98.3413 -23.4604 2.68819e-20)
(88.8646 -7.2228 0)
(52.7277 -8.13806 1.18344e-19)
(90.5582 -6.53418 7.17076e-20)
(88.9192 -7.1579 1.42204e-18)
(98.9014 -24.124 0)
(92.4154 -0.937195 -7.50866e-20)
(90.2118 -2.39775 6.9035e-20)
(87.7722 1.09994 8.49692e-19)
(87.9304 -1.53428 -4.0418e-19)
(85.9773 -4.87002 -3.16612e-19)
(80.6367 0.184398 2.04369e-18)
(135.713 51.4099 3.51421e-17)
(111.579 57.9763 4.16235e-19)
(91.152 -3.13389 -9.63689e-20)
(90.7493 -3.67138 1.81836e-20)
(90.0869 -4.31022 -2.9851e-21)
(122.227 -23.1808 -4.97448e-18)
(116.04 -17.3331 -1.54755e-18)
(113.37 -11.5666 0)
(117.066 -9.01193 5.03946e-19)
(106.819 -27.2961 3.10351e-18)
(114.683 -26.2916 -7.76859e-19)
(116.948 -25.9411 2.0486e-19)
(99.7606 -23.5664 2.28171e-19)
(103.401 -20.5158 -9.42149e-20)
(106.505 -22.3876 -1.84899e-18)
(89.8771 -4.44709 -1.2943e-20)
(86.7012 -4.98471 5.22354e-20)
(88.4793 -2.02525 6.15827e-21)
(89.3744 -6.73792 9.27781e-20)
(68.2046 -2.05656 9.58617e-18)
(78.506 -11.3837 -1.61134e-18)
(117.413 36.2067 -9.35601e-19)
(134.604 29.4469 -2.09818e-19)
(125.533 20.3439 1.31206e-18)
(117.289 -25.8497 0)
(119.545 -25.4054 0)
(119.755 -17.3895 0)
(121.99 -21.3979 4.56948e-19)
(117.469 -22.535 -7.2036e-19)
(127.341 -19.0286 0)
(122.65 -21.1674 -2.45746e-19)
(120.843 -16.9104 -9.88212e-19)
(106.424 -28.3612 1.24483e-19)
(90.7042 -26.8981 0)
(101.468 -26.3438 0)
(83.8422 22.8957 4.41857e-20)
(82.768 10.2967 -1.07018e-18)
(78.7846 1.42564 7.41517e-18)
(113.985 38.7504 4.33102e-21)
(100.582 29.1035 9.60382e-19)
(85.471 25.4816 -4.16659e-20)
(137.899 48.9492 -1.57706e-16)
(129.824 36.6449 -5.18441e-19)
(136.49 48.668 2.26491e-17)
(112.589 54.287 -4.89585e-19)
(134.007 50.2802 -3.45629e-18)
(126.949 37.9317 -1.00752e-18)
(144.301 7.07563 -2.38978e-19)
(144.348 7.88687 0)
(136.519 -12.8337 -1.89584e-19)
(136.9 -12.3978 7.71865e-19)
(121.943 -24.5622 2.90491e-19)
(122.627 -23.2999 -4.99813e-19)
(124.875 -21.086 0)
(124.285 -23.2121 2.35071e-18)
(122.534 -24.2461 1.39603e-19)
(125.395 -21.7566 6.35842e-18)
(124.376 -23.0823 1.19371e-18)
(125.554 -20.7841 -4.20755e-19)
(91.799 -5.53606 1.79964e-19)
(92.7476 -5.49172 1.39335e-19)
(92.8524 -5.74543 0)
(111.921 -26.2511 6.49323e-19)
(113.996 -26.3149 9.29778e-19)
(107.621 -27.465 -1.02594e-17)
(91.3744 -6.95618 -1.43434e-19)
(93.3802 -6.99235 1.01636e-19)
(93.5046 -7.37882 -8.88803e-20)
(93.2225 -6.56462 5.01454e-20)
(93.3414 -6.87773 -1.01108e-19)
(91.4074 -6.89075 -4.27908e-19)
(87.298 -9.66085 -4.18896e-18)
(89.1705 -7.06626 5.72289e-18)
(88.5365 -5.44577 1.9779e-20)
(89.2641 -6.9822 -2.40974e-18)
(87.1741 -9.13546 7.1607e-18)
(89.8682 -5.06138 -1.23508e-18)
(89.4482 -6.69188 -1.30166e-18)
(89.0042 -5.27211 0)
(81.6453 -4.00071 0)
(78.8259 -9.92344 1.28514e-20)
(70.3549 -1.62097 -4.46287e-18)
(86.6276 -9.40465 -1.29529e-19)
(80.0962 -10.223 1.42046e-18)
(82.7458 -4.75959 2.75615e-19)
(79.9718 -11.6147 -2.76037e-19)
(86.8248 -9.98099 3.58312e-19)
(142.025 21.4616 1.84926e-18)
(141.603 22.4682 -6.3513e-19)
(90.7722 -3.63485 2.0919e-20)
(89.639 -3.62295 -4.20182e-22)
(90.7788 -3.64234 0)
(90.4577 -4.0353 -3.93323e-20)
(89.9109 -4.04521 2.87197e-18)
(89.8569 -4.91193 -1.2807e-18)
(89.6824 -3.62973 -2.38129e-20)
(89.8816 -3.94275 -5.66175e-21)
(90.5261 -3.92538 2.64235e-20)
(141.748 -4.35754 -7.22584e-19)
(141.995 -3.72215 1.19995e-18)
(141.502 -3.48741 0)
(137.551 -1.90719 2.10727e-19)
(138.244 1.57876 -4.36337e-21)
(136.029 -6.06697 6.99993e-19)
(137.231 -3.00617 0)
(141.266 -4.12452 0)
(143.657 7.91104 -1.13301e-19)
(138.333 8.01227 1.10281e-19)
(137.559 12.1516 -2.18443e-19)
(138.375 2.81006 -9.42659e-20)
(138.438 6.67623 -8.15639e-20)
(143.631 7.10447 4.41131e-19)
(91.4868 -4.21141 1.51353e-19)
(91.5027 -4.22371 9.20293e-20)
(91.0634 -4.00143 1.16312e-20)
(91.0959 -4.02647 1.17006e-20)
(130.482 -17.8013 7.54276e-20)
(125.659 -21.4789 0)
(130.838 -17.5274 7.72836e-20)
(91.5657 -4.89806 -1.19023e-19)
(91.5612 -4.93132 -2.95662e-20)
(91.6212 -4.44262 2.59495e-20)
(91.6218 -4.46269 -5.23858e-20)
(122.217 -24.3545 -2.69183e-19)
(120.018 -24.9852 0)
(120.182 -22.6704 -8.64296e-19)
(119.841 -25.3223 4.83758e-19)