/*--------------------------------*- C++ -*----------------------------------*\
| =========                 |                                                 |
| \\      /  F ield         | OpenFOAM: The Open Source CFD Toolbox           |
|  \\    /   O peration     | Version:  v1912                                 |
|   \\  /    A nd           | Website:  www.openfoam.com                      |
|    \\/     M anipulation  |                                                 |
\*---------------------------------------------------------------------------*/
FoamFile
{
    version     2.0;
    format      ascii;
    class       volScalarField;
    location    "2.63";
    object      k;
}
// * * * * * * * * * * * * * * * * * * * * * * * * * * * * * * * * * * * * * //

dimensions      [0 2 -2 0 0 0 0];


internalField   nonuniform List<scalar> 
12556
(
36.90868766
36.9087294
36.90877697
36.90881029
36.95438726
36.95465633
36.95514393
36.95638104
36.95896498
36.96385561
36.9718571
36.98234481
36.99153042
36.99526301
36.99296693
36.98481448
36.97488138
36.96632995
36.96082006
36.95725516
36.91090564
36.90947454
36.90879788
36.90842455
36.72744253
36.72763538
36.727819
36.72811479
36.77351677
36.77490866
36.77796099
36.80521181
36.8171658
36.83971837
36.87672013
36.9260928
36.97445991
36.99743183
36.98774211
36.95007578
36.90253067
36.86070025
36.81065459
36.7905982
36.73580327
36.73103573
36.72871873
36.72764129
36.54732817
36.54777287
36.54821439
36.54876122
36.59477579
36.59841843
36.60584964
36.64073565
36.67014085
36.72434566
36.81577675
36.92544709
37.00162448
37.03584782
37.02137386
36.96128314
36.86770667
36.77338213
36.68173526
36.63715899
36.56854776
36.55787913
36.55273968
36.55068144
36.36863338
36.36905319
36.36970507
36.37113449
36.41775372
36.42555849
36.44143337
36.49185088
36.55348516
36.67996221
36.85497008
37.02355162
37.12759116
37.15764335
37.12102065
37.03301572
36.90151417
36.75391747
36.59431469
36.50778887
36.41226959
36.39192406
36.38191058
36.37797951
36.19190022
36.19236704
36.19344105
36.19619604
36.24476127
36.25852956
36.28795398
36.36250741
36.49374202
36.72926771
37.01172766
37.27071707
37.44007029
37.44391235
37.34484513
37.19319617
37.00899816
36.79843182
36.57428559
36.41255883
36.27241282
36.23344857
36.21531577
36.20825692
36.01688438
36.01747086
36.01926283
36.02418232
36.07633645
36.09983943
36.15221903
36.26537908
36.50524672
36.86953638
37.33822904
37.83031824
38.14734246
38.07814125
37.78482626
37.49252298
37.21056497
36.9156436
36.60059366
36.3595837
36.14937057
36.08149427
36.05143665
36.03954893
35.8443272
35.84529938
35.84840012
35.85633044
35.91297245
35.94970879
36.03349391
36.20711704
36.5635296
37.11107254
37.89946701
39.07964257
39.85556006
39.67232232
38.60005375
37.98571941
37.5276753
37.10772058
36.67028002
36.35290837
36.04374836
35.93635267
35.88904808
35.87038584
35.67475099
35.67630545
35.68118644
35.69318019
35.75652901
35.81014536
35.9337693
36.17769522
36.64950396
37.40974974
38.65740587
41.22358837
42.32053883
39.95495673
38.69323289
37.96693736
37.37402931
36.78224959
36.36978701
35.95595038
35.79858508
35.72851352
35.70113547
35.50963344
35.51221717
35.51979611
35.53716897
35.60893097
35.68255706
35.85180701
36.16706292
36.75178513
37.71334007
39.33412425
43.07769846
46.69238534
41.6547089
39.56150772
38.49024261
37.69478565
36.9236776
36.40309805
35.88530656
35.6704964
35.57283945
35.53500351
35.3496867
35.35342855
35.36399353
35.38801469
35.47065166
35.56655369
35.78400018
36.16487329
36.85428226
37.97878153
39.81580045
43.89760387
49.83194976
43.2216038
40.4582235
39.0609422
38.04284991
37.07991396
36.44697059
35.83081542
35.55568627
35.42730964
35.37747387
35.19640279
35.20181705
35.21636515
35.24957354
35.34015353
35.46121239
35.72663062
36.16929487
36.95840865
38.21754451
40.21000342
43.94724351
51.41234948
44.42008917
41.30008923
39.6209476
38.38555959
37.23308575
36.49682276
35.78917269
35.45695661
35.29715905
35.23440227
35.04955393
35.05645388
35.07476698
35.11700571
35.21694183
35.36456165
35.67548532
36.17846306
37.06155305
38.44376261
40.58967492
43.54536395
52.09957248
45.27051851
42.01475009
40.11863746
38.68613074
37.36928475
36.54580884
35.7609975
35.37483546
35.1853161
35.10952446
34.90986384
34.91876467
34.94250848
34.99493606
35.10043586
35.27385535
35.62671362
36.19064673
37.16348462
38.66684626
41.00489347
42.9897766
47.98162898
51.9164598
45.86314031
42.56778488
40.54063608
38.92641776
37.47853671
36.58688775
35.73785895
35.3076821
35.09091351
35.00314717
34.77590883
34.78672898
34.81549849
34.87624001
34.99504088
35.20126738
35.6015617
36.21605201
37.28900456
38.93706155
41.48174953
41.65461366
56.29570419
51.90360427
46.22966463
43.03039987
40.84414378
39.08476017
37.55866275
36.61577558
35.71275332
35.25016903
35.01003435
34.91182608
34.64725341
34.65990122
34.693316
34.76185732
34.89007514
35.11986268
35.5485418
36.18868058
37.29795228
39.02957859
41.76613917
37.78866739
55.84565667
51.5020693
46.45495929
43.31018081
41.03486956
39.16716667
37.60234777
36.6295311
35.68296015
35.19597021
34.9368438
34.83032728
34.52148655
34.53587281
34.57344848
34.64946706
34.78722147
35.03651776
35.48982748
36.12975849
37.23369844
38.95743343
41.64354527
34.41048714
53.78587862
51.06429883
46.66091255
43.51113195
41.09671728
39.18059767
37.60924947
36.62160592
35.63968266
35.13682476
34.8650679
34.75202145
34.39844961
34.41439581
34.45534812
34.53773625
34.68401931
34.94892696
35.42308355
36.06404151
37.11315894
38.74566521
41.13660939
36.50284487
50.58229311
50.7553834
46.71621683
43.51534627
41.02399253
39.14520751
37.58200532
36.58129993
35.58294637
35.0718754
34.79005628
34.67202394
34.27512432
34.29245009
34.33623339
34.42440323
34.57873878
34.85563819
35.3452557
36.00203916
37.00456532
38.49381169
40.57103206
38.27022973
44.39709926
50.24108733
46.50561656
43.25730177
40.82601035
39.03533452
37.50065846
36.50659057
35.50555987
34.99228703
34.70714672
34.58566092
34.15268528
34.17115396
34.21698508
34.30947207
34.47013425
34.75596353
35.25630224
35.92375175
36.93482856
38.35050155
40.1391884
38.1110031
38.03058993
49.12638393
45.93989216
42.85648083
40.58228475
38.87493031
37.38387612
36.40556838
35.4116952
34.90098572
34.6148747
34.49184754
34.02763732
34.04705738
34.09459756
34.19104545
34.35765394
34.64994145
35.15718564
35.83039985
36.84524466
38.24824558
39.82459885
36.6075369
36.59154831
47.90916855
45.29019411
42.4624738
40.32142254
38.6871065
37.24246553
36.28401084
35.3024563
34.79705364
34.51174517
34.38804067
33.90320461
33.92334128
33.97192506
34.07075016
34.24116297
34.53806969
35.04928441
35.72473638
36.73843623
38.11564393
39.45427888
35.05390488
35.68879084
46.77132813
44.68045303
42.08652983
40.05775315
38.48609686
37.08466212
36.14707117
35.18162691
34.68381268
34.4005659
34.2768074
33.7746546
33.79536884
33.8449726
33.94642833
34.12102276
34.42113094
34.93413541
35.60934962
36.61867055
37.95891378
39.04738914
33.66931834
34.7964772
45.71699098
44.1073866
41.73127585
39.79853833
38.2800105
36.9166944
35.9991163
35.05016632
34.56028375
34.27950721
34.15603965
33.64799988
33.66909687
33.71915899
33.82154036
33.99770398
34.30008783
34.81329626
35.48652225
36.48902893
37.78219816
38.61206158
32.38720956
33.98550455
44.74895554
43.56937772
41.39465082
39.54715393
38.07357725
36.743058
35.84369672
34.91273763
34.43176514
34.15383985
34.03086894
33.5158253
33.53724699
33.5880496
33.6924817
33.87195431
34.17592337
34.68823073
35.35826881
36.35180213
37.58815601
38.15439023
31.16076992
33.26690966
43.86655925
43.06273998
41.07354213
39.30448436
37.86952324
36.56690688
35.6836601
34.76837436
34.29513074
34.01974062
33.89728947
33.38819206
33.40978705
33.46075755
33.5651404
33.74429886
34.04954281
34.5602596
35.22635208
36.20873543
37.37800626
37.68301308
29.98277641
32.61644804
43.05055549
42.58290382
40.76557811
39.07013946
37.6693084
36.39039075
35.52109449
34.62282391
34.15810706
33.8853768
33.76346151
33.25280816
33.27459478
33.32627335
33.43279091
33.61551325
33.9217088
34.43046621
35.0921581
36.06088738
37.15282898
37.20356398
28.83969602
32.00123405
42.28743219
42.12574923
40.46898355
38.84329485
37.47352333
36.214878
35.35758565
34.47179938
34.01335742
33.74264811
33.62115207
33.12619194
33.14804788
33.1997595
33.30546385
33.48589316
33.79304642
34.29970177
34.9566851
35.90869918
36.91453863
36.71898932
27.73856639
31.40675125
41.56636261
41.68794316
40.18233601
38.62314727
37.2822928
36.04122246
35.1941406
34.32395543
33.87327167
33.60478569
33.48367595
32.98772683
33.00972598
33.06222657
33.17062127
33.35619046
33.66404752
34.1685907
34.820549
35.75226305
36.66594983
36.2314974
26.6974879
30.83078556
40.88255099
41.26672291
39.90437533
38.40895633
37.09547304
35.86988774
35.03159338
34.16943873
33.7231388
33.45607817
33.33519787
32.86458512
32.88662157
32.93911159
33.04593512
33.22633782
33.53511157
34.03760397
34.68411915
35.59167546
36.4088843
35.74293218
25.72453137
30.27590103
40.23153352
40.85996712
39.63403762
38.20009259
36.91283028
35.70112232
34.87027212
34.02353772
33.58445207
33.31919949
33.19852569
32.72226779
32.74445004
32.79783103
32.90819524
33.09721737
33.40658334
33.90709368
34.54757566
35.42714579
36.1452013
35.25481743
24.82295812
29.7455093
39.60923761
40.4658822
39.3703777
37.99597675
36.73406988
35.53502688
34.71071948
33.86605465
33.4293312
33.16501608
33.0443968
32.60572353
32.62795446
32.6813762
32.78944406
32.96830396
33.27874137
33.77733525
34.41099617
35.25902501
35.87703111
34.76844503
23.99156852
29.24224269
39.01356617
40.08310645
39.11259015
37.79609421
36.55889617
35.37163405
34.55283194
33.72630159
33.29656608
33.03367391
32.91311047
32.4574004
32.4798119
32.53417409
32.6465721
32.84090868
33.15187533
33.64856428
34.27441129
35.08775413
35.60629482
34.28492969
23.22977954
28.76764781
38.4434469
39.7106976
38.8600296
37.60000801
36.38704036
35.21094341
34.39722154
33.56348446
33.13429153
32.87205121
32.7514089
32.35180544
32.37429565
32.42887723
32.53879602
32.71385007
33.02626473
33.52099531
34.13782522
34.91378512
35.33333325
33.80521289
22.53366634
28.32216903
37.89743909
39.34769781
38.61214566
37.40730825
36.21818222
35.05298408
34.24340523
33.43611513
33.01341667
32.75214313
32.63145735
32.19333064
32.21605758
32.27154342
32.38541589
32.58959154
32.90245872
33.39499939
34.0012602
34.73758193
35.05863139
33.33030962
21.89861649
27.90581855
37.37432895
38.99368057
38.36853052
37.21767863
36.05213325
34.89808225
34.09274823
33.26087109
32.83844472
32.57780495
32.45693807
32.1047297
32.12758999
32.1835449
32.29714748
32.46648587
32.78150067
33.27167603
33.86473101
34.55954528
34.78278449
32.86168322
21.32461968
27.51862938
36.87392112
38.648425
38.12887831
37.03085848
35.88869309
34.74750274
33.94521382
33.15756061
32.73826912
32.47802081
32.35705012
31.90292128
31.92617274
31.9834036
32.10083899
32.35105221
32.66613021
33.15486498
33.72862763
34.38073396
34.50837039
32.40424867
20.81269096
27.16184725
36.40023594
38.31444663
37.89394444
36.84706481
35.72782342
34.60541315
33.80662162
32.9319929
32.51364892
32.25398521
32.13271318
42.9309649
47.1749522
42.67636533
43.83772959
50.6652984
47.61621332
43.97839677
52.34693107
50.96213051
43.60881189
53.0366516
52.46147889
43.02858989
43.64142045
47.01781734
53.34669521
53.07745954
42.10548242
53.57945878
44.04774495
55.96532905
53.84608413
53.37093792
40.8957957
39.79396049
42.23644054
39.60412906
50.35893592
44.12413745
46.19670644
42.03462062
40.46315703
39.70789059
42.95995519
42.2260181
55.1406822
56.13419824
49.53994546
43.98440457
42.56408819
40.11625079
43.38736767
43.04267913
44.00836579
45.60191214
46.50272805
54.42661815
53.88751868
51.28334666
45.40917021
44.40316083
40.50611947
43.34747321
43.39899906
43.82147201
42.27987201
44.09502915
55.64853785
54.97227996
40.90906337
43.11499613
43.3298134
43.32227739
37.86444045
40.12591008
39.87216333
56.34125836
56.11550562
41.39345426
42.60921429
43.07184242
42.67586135
32.37016111
34.7946881
40.63928386
54.82702006
53.91064705
46.90533532
48.55843687
43.23469145
46.53622124
56.00323365
50.67325254
45.19677421
49.79161095
54.67670266
46.61493845
47.30134326
43.5506342
47.89227856
46.68680955
48.63598454
48.03264775
53.94884538
54.98189946
49.32394111
55.75996491
55.16078738
54.89612559
55.81983041
49.0866103
44.26992937
45.45007184
44.01698135
45.14411642
43.467239
46.6089401
45.24791429
54.84689953
54.50359491
51.88084879
55.65591637
55.86786376
55.13203219
55.60638863
51.69383442
40.25111227
42.16617728
43.77297565
41.28869953
38.94860003
43.35429805
41.41776916
56.07961088
55.7165894
34.94034728
37.70042674
43.28901936
40.45688328
35.91011348
33.0237345
38.81363975
36.10590674
41.06095064
56.6284413
56.37128752
39.8506677
39.94933027
32.30918915
42.62945512
50.50553807
31.99169897
73.60649646
32.94171161
31.99764946
49.84201493
39.18654769
42.09056038
40.60116474
42.11717642
45.62298452
42.8531905
60.07398287
46.45391611
43.45215433
47.38146349
47.45936269
45.6521498
52.05897074
46.33016325
45.6949981
51.5400819
50.23158267
48.85832289
52.94882475
56.92455822
56.71209418
47.31002664
45.90953261
42.36039183
53.6311299
45.08890928
51.72763455
43.75355149
48.89885736
44.59843276
48.46725611
44.88191038
52.82962662
56.02100837
56.14655228
55.88447766
56.00561273
52.75920288
40.30301033
46.08030485
46.38908693
41.34503041
40.93803917
42.82693521
43.66469848
41.41700158
41.40304439
64.15313317
47.54844059
59.69911188
45.68252289
56.56927289
46.75352983
56.22153126
56.30112259
54.09612778
54.06167483
41.28937507
43.86358282
55.40328444
41.62070309
43.48237475
45.18795764
41.68014174
55.32191789
39.09371661
42.88893207
42.55834968
52.79249149
50.97630042
47.22279762
33.86481348
40.80981355
40.3314502
41.41506294
40.98022035
34.01871795
57.47984837
54.04734151
47.73885534
54.3290572
55.26608849
50.37350088
54.0260387
47.96440465
44.74511276
49.58919356
44.5296338
54.58423131
50.28734607
45.26433596
52.35705223
57.30963095
53.95286728
53.56993735
47.32339725
43.70325639
47.24615418
48.5003715
46.8611512
49.87092162
44.07038838
46.46381662
48.40163625
54.5445703
54.6386015
55.45805827
53.10800978
52.4999618
53.7238856
53.27913536
55.4119638
55.88458753
51.16404509
50.15511396
52.26867495
51.46417209
55.93714485
44.38181333
44.27341036
46.01821294
45.93215135
54.97311891
45.70994811
54.91725255
40.36417283
40.20443296
42.44837146
42.31680901
43.98761566
47.75020844
55.89459682
44.20753034
41.33841003
36.63575109
41.95983717
41.55715471
42.44392875
42.08565411
36.77537137
39.96243568
35.06705216
34.94423612
37.86706
37.73170488
52.70947982
41.55192127
54.50488872
53.29183205
40.14823436
39.69866086
31.97933392
33.23287622
42.01283785
41.67076408
32.534947
65.25767792
41.89401259
57.68978901
32.4547032
47.35305911
44.00737111
40.98793203
58.56127694
40.11509481
40.40418783
41.72028548
42.16727804
42.52019155
41.16528843
33.49672708
41.18336954
56.33266958
53.30462741
53.78123551
52.41751203
40.64930786
43.02170226
55.58886251
54.82182615
42.3501371
57.04035128
56.97363114
53.42892719
42.92936262
42.418474
44.70744559
45.69185107
42.69876549
42.97848725
55.67981166
58.25393177
57.32870036
56.3684227
54.22139892
45.81155216
46.25938516
48.48848769
47.752943
53.80992439
43.0927558
44.34696478
44.10439616
44.6498949
44.42493486
43.22445854
43.29761097
42.99322474
39.22528007
32.72368142
37.55186078
37.1417933
66.0878002
49.87542898
54.32885289
55.30137136
59.19879073
58.48688159
52.16225901
48.12398019
46.73488761
49.78151801
48.5622064
52.51434939
54.17093881
49.65403942
48.81513563
54.73059099
44.79893055
44.91709538
44.72062773
40.08875865
40.56968
43.81933477
46.51290707
46.85717583
54.68016842
55.77276836
54.57940728
54.46867078
55.18622819
54.14865662
53.84363542
54.42332902
54.2265509
55.20247624
41.22219039
43.67300275
43.3943216
44.02081465
43.76237556
41.35065412
40.9019788
35.8587305
36.16229457
33.59888124
33.80558242
39.40808426
42.97697715
39.3216314
39.95331151
36.28344838
36.62334988
41.80347301
55.94016637
48.27860763
51.70019784
56.31217267
39.82691195
35.50947845
33.79881505
38.41141615
33.30298033
33.52969086
32.80948744
37.01118955
47.87583437
39.04129368
38.45128475
37.68090144
37.0086484
36.61754653
32.18624468
41.06335097
42.52778935
52.29833162
31.99476553
83.40449535
43.68250311
42.18111613
46.70786543
32.76911195
32.0710336
54.08910134
53.02537331
53.07816867
45.89050697
45.92730861
40.80201961
40.15837072
51.77778993
51.79608499
51.70061459
47.57508412
56.20460883
47.62634337
56.62422465
48.39226747
42.72739397
40.74589893
46.58498254
45.1907025
48.60581171
45.934892
40.92837805
41.41029861
47.3554817
56.58516594
40.95870492
45.19910597
62.38757055
39.97068506
40.44771985
40.21260938
39.98023948
55.50463467
64.73971606
53.94917611
50.56116889
57.59937426
54.6973674
49.91090109
47.08589005
51.8201553
55.60008015
55.04674403
55.88442522
56.38317491
57.02563781
55.9871345
46.59257919
45.95944837
54.16245224
46.74436226
47.17997972
45.3804194
46.48675601
47.33201935
53.85598351
47.6336976
46.82340579
41.41746148
41.6650625
41.88866917
51.43979891
50.65861649
42.98149362
49.03787887
47.7378151
50.34825522
49.44724412
42.51749299
41.45499092
42.83604149
41.34107282
38.12803461
37.67480124
33.02938121
34.34380328
38.63302116
38.2563683
56.23410518
55.72659685
55.32633526
50.49922854
51.03734836
49.52799784
50.28174486
55.60920624
52.60241508
51.21314838
51.02822685
51.15127897
51.23313667
52.85991519
53.04251582
48.37371508
49.27363929
55.79436108
56.20706699
58.79850079
58.45057628
54.97420997
59.93122067
60.61580589
60.88352746
59.50251764
58.45767963
60.80805223
59.39361916
52.33750691
57.59687202
58.83512356
42.40381415
47.41928208
46.60562208
48.18697039
47.63961412
42.93925563
45.4736152
44.91078329
46.32210725
45.66720867
48.06903895
50.28875737
49.78308479
50.90270554
50.45110607
48.50086599
45.03103227
48.90954588
48.37117592
49.61054102
49.08663153
45.37965271
50.76974127
49.84656117
54.26025382
54.74198865
52.13106292
51.11347714
39.65314032
39.18297937
40.47028169
39.81831126
38.43379922
37.9751822
39.03452718
38.57055337
44.00766223
43.47299901
44.72881151
44.1907242
42.40585298
40.89004035
43.27775963
42.74063729
45.49186026
44.71580151
47.35459326
45.98022453
46.26832639
44.34123484
45.08274925
44.47384804
44.15649943
35.43577437
35.73978123
40.77196896
34.0106868
33.79504138
34.30668753
34.0973553
33.69126211
39.60399834
33.88754294
35.17959073
37.3838965
39.05560797
42.84922433
37.05005637
35.23614441
37.88124761
37.19203953
34.67482052
34.40423984
35.09977224
34.78155954
41.93138632
36.74446004
37.15057704
48.60576736
42.64416527
47.88618586
44.71982738
47.67218627
42.17916944
58.31540035
39.76350668
56.37428082
50.43906658
35.39551384
34.33748713
33.03116151
33.23499677
38.27697911
37.24277953
32.83892628
32.97578459
52.46275455
32.13081335
36.43329618
35.75663697
65.88866458
72.76510171
31.92746351
76.79768565
57.26457145
41.53382563
32.70178115
65.08135733
44.02081954
74.83906608
45.57776394
32.18191622
41.92558112
39.97737138
38.80271303
50.75588466
50.41007968
52.53178416
46.9092687
46.52135253
50.68028831
41.94386124
40.43632475
39.8544742
56.1544333
56.05200805
53.21727866
44.66783133
44.16090679
46.62297891
51.33948526
44.61350108
44.71709564
40.90415019
41.23648336
43.43272897
49.06019499
52.29072953
54.8886325
46.01854334
45.29489398
45.18118217
45.39344779
45.32506968
46.14621224
45.22189174
43.46579408
40.61614835
52.28089558
53.63987555
56.24286738
39.1119574
38.75196124
34.46033851
55.63004174
57.32352568
51.95799743
45.1351549
44.97631624
44.96739807
44.81888482
42.023767
42.62423512
42.9145873
43.80486413
45.5584654
35.73327174
39.60510675
39.23017124
45.24447307
43.44960662
40.10066817
32.3627465
32.39147999
33.14746928
42.2960831
53.55427812
48.73384602
40.09751105
47.79144838
45.75488387
31.98309959
32.88210853
32.32804836
32.34791359
32.00922889
60.52250646
45.59625039
41.27586859
42.29133536
50.9798055
40.58263116
41.44085149
50.42538459
52.94674357
46.25438978
44.77116641
46.56315591
47.10137368
40.57948778
40.45325353
59.62117271
61.69728778
63.21231925
53.9142188
60.48130136
42.44757886
42.6936466
45.1446128
61.60123368
57.39512818
55.10221377
64.57842324
62.12046563
41.25079626
42.53888681
41.91688777
46.73214534
46.10494125
42.60147569
52.40152917
51.71152488
42.14157569
45.29321151
42.37842144
42.5520615
44.13139412
40.19979989
40.54593256
57.20574944
57.92485238
54.64809126
54.68093664
53.67862059
53.52340238
50.90102468
51.82850783
51.47568555
53.35598939
53.15159736
53.62712946
47.0049546
48.08240826
52.55016395
53.74961388
58.64252997
55.30977291
58.91949827
59.25699616
56.75103959
40.89220453
42.90782635
42.41096654
46.32685817
46.10604415
43.47957123
40.44210442
40.21800328
42.00267167
41.67753809
47.25825156
49.28340046
48.97687109
51.14763722
50.83297671
49.39704997
44.34843667
46.89995819
46.63972433
48.66805339
48.36719862
46.09532726
41.36771114
41.85559447
44.71337938
43.93057986
40.72437335
41.20830671
44.68715336
45.16014616
46.27885719
38.89236397
38.75395876
40.01925183
39.84081198
36.78372973
38.54264375
38.4270894
45.65190779
44.025121
44.52286217
45.90801606
45.84610543
42.85450524
43.16297802
45.65211973
45.95040338
46.32358702
54.7362967
47.03205353
48.33725057
40.07337673
39.72531671
36.04920755
37.1633104
40.49118511
40.17762996
33.29341237
33.35923161
35.17788506
34.80580385
33.13222708
33.22264061
52.8576763
32.09166001
32.82998598
32.24613875
107.3856052
32.4305497
41.61137179
52.94109283
48.1415335
32.12172918
32.15181694
32.57554203
64.13595648
69.18488988
67.08597608
51.62595696
32.4268565
32.08423184
32.1057348
41.38754391
41.51064287
40.43646338
50.65994315
50.15290232
43.31195093
42.31161732
40.24900341
53.64700954
52.72164072
57.45038616
41.1340819
49.20138041
45.79595623
49.44310179
48.69817147
41.88531755
43.80168091
44.42406369
48.05090854
53.81360557
54.13410237
53.31858395
53.57269327
57.98843221
57.2023848
57.41934429
56.74176007
56.96702299
57.63405005
48.22040817
48.60173288
48.81591889
48.27023627
48.39730764
48.09119945
58.92354113
57.88051175
57.85313259
57.62906325
57.79575518
58.7099051
49.25700395
49.53119323
49.7725575
49.04985956
49.28245482
49.01940637
52.67612437
52.85172077
52.0474461
52.22757122
35.94163049
38.07610895
37.95410288
33.68068881
34.98144355
34.88793678
35.27526202
35.0929114
33.74484488
53.98918155
55.11325232
49.45930994
54.7119051
32.75025636
32.71419926
32.83953384
32.79969083
32.55416859
33.37502403
32.43335507
32.55258942
33.38302153
34.64966191
34.56325299
34.80914265
34.72828108
33.45312131
32.95501873
32.89136168
33.52539029
33.1055055
32.95610563
54.52390158
52.91207226
44.18687438
55.00274896
34.08821986
33.3525917
39.62597114
32.21685935
33.61604695
33.47450735
31.95995107
81.33393317
82.67175126
61.839842
72.48841672
62.35294545
32.26554333
32.30037762
32.82812016
32.03613547
57.69350046
62.96141618
58.05838016
59.43570264
56.004164
48.96156335
61.69052745
56.66028362
46.11687981
46.35085897
51.84321022
43.68932026
46.57669506
52.6153978
50.06059776
53.29978385
49.0128877
51.84829552
58.01374801
59.5295984
52.70538697
56.89718837
60.43272427
48.36038954
49.40795963
47.9031272
51.57266093
59.20846265
59.32553491
57.44013053
41.86940592
52.65019784
47.51959446
58.0888682
58.96979247
43.42243706
45.65042048
48.63714388
61.31073985
50.72076373
42.31738753
43.5304333
61.030467
57.84029735
61.31891225
56.48179062
58.96890337
61.33539953
62.52786441
61.85516371
55.13682091
55.24743788
55.46344041
54.70253113
54.81902731
54.87727014
56.66223882
56.26060099
56.49210174
55.75933622
55.9865177
56.32292924
46.37455143
49.06328902
49.05564365
46.86583933
47.10886399
45.75902981
46.80304117
46.57783062
46.33742865
47.70713702
48.04715261
47.20775333
48.44430454
48.25121218
48.98885211
48.77742735
47.00135851
46.0586151
43.98620811
41.25851099
47.24063416
47.06327635
46.8891478
42.08971
46.24373408
45.86800546
42.44457803
42.35152324
43.89058157
56.76858236
55.13708598
52.55063584
52.19739373
51.40714416
53.3419823
52.97632987
52.7275302
59.83432762
59.48562767
54.95566786
59.95677498
62.04150122
56.59652163
59.68034626
59.82407219
58.69666092
57.47677883
57.35134608
57.67336611
57.64793479
58.59218616
60.27258613
60.39705072
59.25550561
61.98686991
61.94595078
61.77498086
61.93997639
59.06152598
60.91412457
61.51533712
63.14293992
60.90091232
45.03534118
44.88586915
42.33982215
43.08891416
45.75009937
45.5934816
40.90341411
40.6645372
41.40325656
41.14566703
49.89929852
49.58913057
47.64873775
48.94489745
50.52214408
50.21078154
47.48075022
47.20359233
44.72121628
45.71375873
48.06402066
47.77558858
50.52513904
50.54008601
50.79956292
50.02580196
50.28219163
50.15087773
51.748238
51.49238002
51.66963778
51.05815601
51.2943428
51.48597284
39.49080894
36.88239026
37.02460666
36.6243699
36.75825701
39.33809857
40.20085684
37.49193506
37.70416036
37.16350702
37.32180201
39.99804355
38.26896818
35.87181681
36.00791269
35.65187829
35.78583323
38.14914676
38.87812273
36.36667145
36.50333225
36.10982322
36.25051502
38.73252225
39.2578038
39.09885174
43.83108942
41.89599858
42.07463347
41.52557823
41.68845888
43.644415
39.63545534
39.46105495
37.82152424
37.67798836
42.15089427
40.25815217
40.32305255
38.01666224
38.46549399
41.4942257
43.11676675
41.1674426
41.30240729
40.8031525
40.9011423
42.89428263
38.20296301
38.108815
45.33168095
45.49901958
45.83422528
43.58936297
44.24345977
44.5580361
46.19753864
46.21632501
46.40980933
46.43493672
44.82946912
44.25034739
44.85220901
44.34433488
45.89426078
45.70746343
44.12145377
35.51596205
37.53677524
37.40842584
37.81441442
37.69910508
35.66735482
33.95352382
33.85667457
34.23934763
34.15038133
33.66785353
33.67637288
34.05946341
36.26485575
35.6248426
37.15001948
36.89512916
34.89139877
35.68855126
34.8868433
35.135058
35.41337666
37.66978676
35.43626324
35.57864238
35.21417415
35.36959428
37.59089567
34.58657796
34.48341179
34.99039997
34.87764001
47.25641693
41.32102712
41.90175471
40.77008853
40.98376339
47.57199283
46.81908362
46.60462212
42.61438276
44.37141171
48.01835932
55.35082291
43.83077142
45.75193739
41.09422962
42.3435562
56.11503317
32.6011084
32.55426016
32.67676461
32.64429571
32.7833817
33.02973367
34.6162422
32.38976601
32.33766757
32.503235
32.44023129
33.09787314
34.3093573
34.21929051
34.48111172
34.39143101
33.16001314
32.88060064
33.94292878
33.81604689
34.13580053
34.04467769
32.92728588
51.94125869
33.3995906
33.11857269
32.07329487
63.90237384
90.07700122
95.60223244
89.07408908
90.33951244
68.88952272
32.14387184
67.57311702
49.93868414
53.21688711
32.64189092
32.17419159
32.224531
65.25890925
72.10157878
70.43427997
57.04642934
63.44717345
76.91376401
72.38889636
48.32314571
68.36608888
60.24450302
32.39692979
32.00195937
32.22215865
36.68067131
36.69725555
36.81319349
36.70455983
36.73599683
36.83249784
36.74886552
36.8013885
36.86554092
36.82129681
36.8953065
36.91247358
36.91705681
36.97618045
36.96261148
36.98881334
37.01585098
36.99310717
37.02003089
37.01538616
36.99493166
37.00845202
36.97009726
36.96198408
36.9535821
36.89027093
36.91488201
36.86814412
36.80654994
36.87060686
36.52736439
36.56252644
36.6610446
36.57873247
36.64815128
36.70824223
36.68038144
36.79529927
36.78900469
36.83574259
36.95450268
36.90032524
36.98848865
37.06527625
36.98804362
37.08409845
37.11553158
37.03198907
37.11550949
37.09919237
37.02913686
37.0871482
37.03203951
36.9798383
37.00813532
36.92031842
36.89223676
36.88695172
36.78439515
36.79317454
36.39311855
36.46589284
36.53382038
36.50204602
36.65101092
36.63992898
36.70849402
36.89495786
36.80971066
36.95896378
37.13715633
36.98583317
37.18641799
37.31455223
37.10845345
37.33711092
37.35652315
37.15870913
37.34279231
37.29707901
37.13533703
37.27242796
37.17998104
37.059173
37.14322829
37.01924944
36.93826503
36.9740724
36.83069451
36.78928107
36.28594582
36.42944536
36.44973044
36.49637022
36.73333959
36.66486536
36.82455399
37.13076837
36.93935591
37.23729159
37.55652265
37.21216486
37.64736759
37.87121057
37.40820587
37.90982453
37.91719699
37.44509775
37.84135551
37.70331316
37.37548878
37.64586511
37.46412917
37.23576649
37.40149828
37.21381393
37.05798775
37.14918479
36.95143042
36.85296395
36.2180916
36.44947629
36.43079871
36.5462302
36.90175799
36.76757236
37.04235718
37.54235765
37.21385188
37.73491901
38.40946685
37.70588555
38.65333175
39.51563777
38.09218307
39.53750765
39.32131922
38.08753753
38.99438563
38.50668285
37.85904717
38.34950549
37.95575995
37.56319986
37.84065979
37.53432167
37.280464
37.43646972
37.15071479
36.99232653
36.18414586
36.49909079
36.45966614
36.62993851
37.12921861
36.95251306
37.33676221
38.12450631
37.67478387
38.46293262
40.3255331
38.70960148
39.68966309
40.31429725
39.36141221
40.91882277
40.99569418
39.86925863
40.43358227
39.77680333
39.33445269
39.56562341
38.71364725
38.11610731
38.50346772
37.98756728
37.63549449
37.8396774
37.43361551
37.21198262
36.16874615
36.55991671
36.51026491
36.72614986
37.36858052
37.18491116
37.64077164
38.70956061
38.27895858
38.84710699
39.35105645
39.11532891
41.54179026
42.18245802
41.77921056
43.96532729
42.71167759
41.49375321
41.22334424
39.69890915
38.93333397
39.36110485
38.57384192
38.12791285
38.35926786
37.78725644
37.51438039
36.16466358
36.62918588
36.57696061
36.82836785
37.59330495
37.42715561
37.91539957
39.16230587
38.83536442
39.46885383
40.10659993
39.94850979
43.21273298
44.24533097
44.09624724
48.08064671
45.59418524
44.54354995
42.85547727
40.74131893
39.93988848
40.28116148
39.21151804
38.7181791
38.9253985
38.17908751
37.88082041
36.16761381
36.70279159
36.64733161
36.93187021
37.79941298
37.64642977
38.15924949
39.52381947
39.25810668
39.91926992
40.62129831
40.50351327
43.94615338
44.95390688
44.97972887
50.57712065
47.66619537
47.00751925
44.14298945
41.68080269
40.961397
41.12804228
39.84472104
39.35595373
39.49147103
38.57609399
38.27849154
36.17520186
36.77817785
36.72212948
37.03482982
37.99425313
37.8494933
38.38701883
39.86022779
39.60717966
40.30948883
41.07208237
40.95644025
43.90984495
44.35081716
44.51195185
51.75766667
48.83866555
48.51332396
45.05698026