/*--------------------------------*- C++ -*----------------------------------*\
| =========                 |                                                 |
| \\      /  F ield         | OpenFOAM: The Open Source CFD Toolbox           |
|  \\    /   O peration     | Version:  v1912                                 |
|   \\  /    A nd           | Website:  www.openfoam.com                      |
|    \\/     M anipulation  |                                                 |
\*---------------------------------------------------------------------------*/
FoamFile
{
    version     2.0;
    format      ascii;
    class       surfaceScalarField;
    location    "2.63";
    object      meshPhi;
}
// * * * * * * * * * * * * * * * * * * * * * * * * * * * * * * * * * * * * * //

dimensions      [0 3 -1 0 0 0 0];
oriented        oriented;


internalField   nonuniform List<scalar> 
25162
(
0
0
0
0
0
0
0
0
0
0
0
0
0
0
0
0
0
0
0
0
0
0
0
0
0
0
0
0
0
0
0
0
0
0
0
0
0
0
0
0
0
0
0
0
0
0
0
0
0
0
0
0
0
0
0
0
0
0
0
0
0
0
0
0
0
0
0
0
0
0
0
0
0
0
0
0
0
0
0
0
0
0
0
0
0
0
0
0
0
0
0
0
0
0
0
0
0
0
0
0
0
0
0
0
-4.070375948e-10
-7.906669721e-08
8.854051595e-07
0
-3.852064317e-10
-7.526906669e-07
0
0
0
0
0
0
0
0
0
0
0
0
0
0
0
0
0
0
0
0
0
0
0
0
0
0
0
0
0
0
0
0
0
0
0
0
0
0
0
0
0
0
0
0
0
0
0
0
0
0
0
0
0
0
0
0
0
0
0
0
0
0
0
0
0
0
1.706181397e-09
1.285409901e-06
-1.681656165e-07
-8.154714825e-06
6.784290572e-07
7.264685584e-05
-1.617072088e-06
-0.0001027959397
7.492726553e-07
0.0001901068366
-1.13224841e-06
-0.0002125217456
-3.094800117e-07
0.0002441392055
8.420283123e-07
-0.0002409928833
-7.579496898e-07
0.0001924034391
1.507807684e-06
-0.0001656952727
-3.189118599e-07
7.412907694e-05
8.225465948e-07
-4.6316746e-05
0
1.385166122e-06
2.252757986e-08
0
0
0
0
0
0
0
0
0
0
0
0
0
0
0
0
0
0
0
0
0
0
0
0
0
0
0
0
0
0
0
0
0
0
0
0
0
0
0
0
0
0
0
0
0
0
0
0
0
0
0
8.622931497e-08
2.71496345e-06
-4.855865767e-07
-1.949629303e-05
3.94527154e-06
0.0001717949789
-6.413368774e-06
-0.0002459471584
6.290547408e-06
0.0004916385043
-8.101528452e-06
-0.0005709797222
9.679197423e-07
0.0007671260132
-9.964209585e-08
-0.0008128118705
-5.451883472e-06
0.0008764559505
8.211747523e-06
-0.0008716681446
-6.40394141e-06
0.0007795575546
9.145210632e-06
-0.0007247141106
-3.469020169e-06
0.0005054873318
4.807567846e-06
-0.000421303239
-1.207109424e-06
0.0001772599836
1.75468729e-06
-0.0001105530063
0
2.758064717e-06
9.860815182e-08
0
0
0
0
0
0
0
0
0
0
0
0
0
0
0
0
0
0
0
0
0
0
0
0
0
0
0
0
0
0
0
0
0
0
0
0
0
0
0
0
0
0
0
0
0
-2.956013521e-08
-1.012049497e-06
4.967569679e-06
0.0001245051333
-8.577060454e-06
-0.0002139040292
1.638015532e-05
0.0005693108519
-2.007759021e-05
-0.0007014873075
1.238543432e-05
0.001079111828
-1.313599954e-05
-0.00118734345
-5.011489312e-06
0.00143075555
7.247804472e-06
-0.001482509585
-1.909567011e-05
0.001551922308
2.286689469e-05
-0.001547568655
-2.055858504e-05
0.001449799557
2.499225463e-05
-0.001387160209
-1.071979709e-05
0.001107801797
1.340420424e-05
-0.0009882162677
-1.246088678e-05
0.0006064070216
1.602845563e-05
-0.000480283152
-1.103046291e-06
0.0001458668183
1.328090621e-06
-7.276682e-05
0
0
0
0
0
0
0
0
0
0
0
0
0
0
0
0
0
0
0
0
0
0
0
0
0
0
0
0
0
0
0
0
0
0
0
0
0
0
0
0
0
0
9.991608013e-07
1.428641431e-05
-1.744801206e-06
-6.182869113e-05
1.709461554e-05
0.0003762888514
-2.039966979e-05
-0.0005231159653
4.23540137e-05
0.001028047708
-3.767577071e-05
-0.001197900383
1.612847859e-05
0.001596211136
-2.763380004e-05
-0.001681728207
-1.260544388e-05
0.001850681238
1.111058899e-05
-0.001872739677
-3.083475139e-05
0.001892915467
3.15500635e-05
-0.001891945442
-4.191555184e-05
0.001862456966
4.621778826e-05
-0.001828381651
-6.15790802e-05
0.00164724949
6.198611063e-05
-0.001526261852
-4.394565096e-06
0.001061715448
5.050534198e-06
-0.000895229854
-1.257472808e-06
0.0004098505695
1.277784031e-06
-0.0002738929244
1.88841725e-05
-1.882836476e-07
3.107205582e-07
-2.881853537e-07
0
0
0
0
0
0
0
0
0
0
0
0
0
0
0
0
0
0
0
0
0
0
0
0
0
0
0
0
0
0
0
0
0
0
0
-2.635440359e-08
-1.039188129e-08
-3.930020862e-07
4.403400347e-06
7.070475579e-05
-5.474223195e-06
-0.0001593481563
3.148176491e-05
0.0005892970063
-3.164658662e-05
-0.0007772487204
3.389785808e-05
0.001331825166
-3.538489216e-05
-0.001494401076
2.52032692e-05
0.001852949531
-9.156039011e-06
-0.001925138117
1.556345871e-05
0.001989013321
-5.146695107e-05
-7.722759929e-06
-0.0009606848876
-0.0009847021814
0.0009553513472
-1.473389239e-05
1.472967048e-05
-0.0009553471253
0.0009818577851
-9.057561997e-05
-0.00197207951
0.0009977943214
3.220249653e-05
5.080052722e-05
0.001860436472
-3.673312818e-05
4.183488046e-05
-0.001784781576
-1.311561236e-05
0.001394168581
1.523329e-05
-0.001219354638
-3.053010592e-07
0.0006507683268
-8.13675276e-07
-0.000478857725
9.639968082e-05
-8.259717546e-07
9.471780818e-07
-3.066270959e-05
0
0
0
0
0
0
0
0
0
0
0
0
0
0
0
0
0
0
0
0
0
0
0
0
0
0
0
0
0
0
0
0
0
1.075807222e-07
0
-2.180904321e-07
-3.573385523e-06
-5.436832466e-06
7.75145956e-06
0.0001165059901
-8.031271339e-06
-0.0002279778989
3.603482588e-05
0.0007229138814
-3.648181178e-05
-0.0009185067279
3.437383771e-05
0.001485244881
-3.282747201e-05
-0.001642727045
-2.560285318e-06
0.001932831158
5.54431109e-06
-0.001954331578
-5.528915297e-06
0.0009904116602
3.963096893e-06
-0.0009888458418
0.0009809520809
-2.579640587e-05
2.432910796e-05
-0.000979484783
0.001936889839
-4.777386042e-05
4.955805662e-05
-0.00189600702
-1.143031058e-05
0.001557956458
1.188439651e-05
-0.001389122057
1.7431191e-06
0.0008086018235
-1.025490814e-06
-0.0006179943043
0.0001677085975
-1.07906838e-06
1.064956484e-06
-7.357661147e-05
0
0
0
0
0
0
0
0
0
0
0
0
0
0
0
0
0
0
0
0
0
0
0
0
0
0
0
0
0
0
0
0
0
2.706113654e-07
0
-3.387450769e-07
-9.637282852e-06
-1.082111928e-05
9.427451967e-06
0.0001438390348
-9.738650485e-06
-0.000265045704
3.819105142e-05
0.0007805689247
-3.851919752e-05
-0.0009790086016
3.145454806e-05
0.001540066274
-3.121678358e-05
-0.001689541865
-8.626120828e-06
0.001939506228
8.901415396e-06
-0.001947807296
-9.471100404e-06
0.0009743013371
9.46993207e-06
-0.0009743001687
0.0009800249079
-2.132760826e-05
2.082816642e-05
-0.0009795254661
0.001955722773
-4.807256953e-05
4.762256255e-05
-0.001931406531
-1.378668677e-05
0.001633457445
1.412906578e-05
-0.001472168076
2.838071206e-06
0.0008944676222
-2.913041916e-06
-0.0006975994469
0.0002077219015
-1.010579096e-06
9.775871918e-07
-0.0001010280723
0
0
0
0
0
0
0
0
0
0
0
0
0
0
0
0
0
0
0
0
0
0
0
0
0
0
0
0
0
0
0
0
0
4.1181315e-07
0
-5.128725614e-07
-1.442106388e-05
-1.600651221e-05
1.051184532e-05
0.0001610378642
-1.082754138e-05
-0.0002876228786
3.943286843e-05
0.0008135166733
-3.978009865e-05
-0.001012971394
3.080626548e-05
0.001569112561
-3.063178883e-05
-0.001714485156
-9.34742515e-06
0.00194699127
9.394000797e-06
-0.001951513013
-9.551287466e-06
0.0009749367
9.23262644e-06
-0.0004870360745
-0.0004875819645
0.0009807447362
-1.94894777e-05
1.916724443e-05
-0.0009804225029
0.00195698844
-4.593616676e-05
4.52613508e-05
-0.001930917321
-1.320189394e-05
0.001628192523
1.283159792e-05
-0.001466017863
3.123085675e-06
0.0008874714503
-3.07007416e-06
-0.0006914260736
0.0002047311911
-9.533462002e-07
9.587003745e-07
-9.902636436e-05
0
0
0
0
0
0
0
0
0
0
0
0
0
0
0
0
0
0
0
0
0
0
0
0
0
0
0
0
0
0
0
0
0
6.210462571e-07
0
-7.472325393e-07
-2.126041167e-05
-2.322781398e-05
1.181896241e-05
0.0001822142709
-1.216936541e-05
-0.0003150824905
4.079808854e-05
0.0008533640216
-4.114840599e-05
-0.001054211809
3.006758735e-05
0.00160556851
-2.986287412e-05
-0.001746495214
-9.7832958e-06
0.001959744414
9.875224318e-06
-0.001961499836
-9.35816338e-06
0.0009802718477
9.265189858e-06
-0.000489974581
-0.0004902042931
0.0009837848301
-1.83575647e-05
1.807534741e-05
-0.0009835026128
0.00195774318
-4.162101957e-05
4.038398455e-05
-0.001913144183
-1.045393351e-05
0.001562017413
1.110666322e-05
-0.001397140304
2.850612788e-06
0.0008127008641
-2.680046843e-06
-0.00062086884
0.0001622736257
-9.767003676e-07
9.914740475e-07
-6.96925502e-05
0
0
0
0
0
0
0
0
0
0
0
0
0
0
0
0
0
0
0
0
0
0
0
0
0
0
0
0
0
0
0
0
0
9.096711391e-07
0
-9.725669314e-07
-3.037248671e-05
-3.12828303e-05
1.331790354e-05
0.0002067312072
-1.376837062e-05
-0.0003461762391
4.221543607e-05
0.0008966089131
-4.261891838e-05
-0.001098427214
2.917452276e-05
0.00164286371
-2.889673369e-05
-0.001778512812
-1.012119885e-05
0.001969841698
1.002142225e-05
-0.001969891022
-9.026648915e-06
0.0009846103587
9.02556322e-06
-0.0004920523311
-0.0004925569419
0.0009849250337
-1.721509721e-05
1.720210958e-05
-0.0009849120461
0.001932718575
-3.648477322e-05
3.481701418e-05
-0.001859699206
-8.521797475e-06
0.001453512581
5.885595268e-06
-0.001275152294
2.092009191e-06
0.00068873384
-2.021752521e-06
-0.0005064273841
0.0001053456785
-8.731262118e-07
8.022743283e-07
-3.432313044e-05
0
0
0
0
0
0
0
0
0
0
0
0
0
0
0
0
0
0
0
0
0
0
0
0
0
0
0
0
0
0
0
0
0
1.457924064e-06
0
-2.377173426e-06
-4.634643732e-05
-5.269778632e-05
1.503009051e-05
0.0002414905518
-1.624924472e-05
-0.000387186436
4.392749445e-05
0.0009518727112
-4.408485464e-05
-0.001153361823
2.785711218e-05
0.001684921914
-2.868871722e-05
-0.001815270424
-1.018991095e-05
0.001978533437
9.597802883e-06
-0.0009887412307
-0.0009892000984
-4.396040542e-06
0.0004938047599
4.258934018e-06
-0.0004936676534
-1.938859418e-06
0.0002461923397
1.555424878e-06
-0.0004921051562
0.000246296251
0.0009850628773
-1.714170018e-05
3.566618063e-05
-0.001971356393
0.0009853278381
-1.755880309e-05
-3.163072784e-05
0.001869999421
2.789259537e-05
-0.001763223802
-3.055692688e-06
0.00130119872
2.774393412e-06
-0.001111586832
1.073711576e-06
0.0005387813898
-6.775327964e-07
-0.0003727313828
4.230567015e-05
-4.485367739e-07
3.755461963e-07
-4.171723936e-06
0
0
0
0
0
0
0
0
0
0
0
0
0
0
0
0
0
0
0
0
0
0
0
0
0
0
0
0
0
0
0
0
0
2.184207863e-06
0
-1.750060436e-06
-6.141142967e-05
-5.606562404e-05
1.807762211e-05
0.0002764285246
-1.744014768e-05
-0.0004318870686
4.54961408e-05
0.001009174141
-4.481456022e-05
-0.001211416403
2.533667416e-05
0.001730756946
-2.584209777e-05
-0.001850643328
-1.092728972e-05
0.001987711689
1.092728968e-05
-0.0009938102707
-0.0009939014178
-5.003316692e-06
0.0009938102707
1.016329167e-05
-5.159974977e-06
-0.000496605198
-0.0004972050727
-1.517698794e-05
0.0004966052105
1.517696929e-05
-0.0009938102707
0.0004972050789
0.001987711689
-4.086064941e-05
4.029874014e-05
-0.001982615512
-2.255812626e-05
0.00175668094
2.2172387e-05
-0.001624590714
-3.000881576e-06
0.001097306212
1.884648523e-06
-0.0009083381624
-2.892445935e-07
0.0003694011009
1.11141438e-06
-0.0002354797495
5.700452799e-06
-9.202756228e-08
4.341694441e-08
0
0
0
0
0
0
0
0
0
0
0
0
0
0
0
0
0
0
0
0
0
0
0
0
0
0
0
0
0
0
0
0
0
0
1.036015294e-06
0
-3.581517554e-07
-2.784696715e-05
-1.739015801e-05
1.306347491e-05
0.0001949320449
-1.104656875e-05
-0.0003279403124
3.945515024e-05
0.0008549585509
-3.656078089e-05
-0.001048911522
2.827735334e-05
0.001579427103
-2.879520013e-05
-0.001717653673
-7.743950464e-06
0.001964105105
4.871086142e-06
-0.001990110645
-1.016329166e-05
0.00199702265
2.0953701e-05
-0.00199702265
-1.079040933e-05
-3.098053432e-05
0.00199702265
3.098053432e-05
-0.00199702265
-3.62708948e-05
0.001961856186
3.399114062e-05
-0.001907712368
-1.590533662e-05
0.001576533966
1.412475033e-05
-0.001417189165
2.613432615e-08
0.0008631229872
1.698957753e-07
-0.0006758303853
-1.215016781e-06
0.0002067213369
9.157634008e-07
-0.0001081931732
0
0
0
0
0
0
0
0
0
0
0
0
0
0
0
0
0
0
0
0
0
0
0
0
0
0
0
0
0
0
0
0
0
0
0
0
0
8.427488622e-09
0
0
-1.519774035e-07
0
4.872233822e-06
6.540064108e-05
-3.164632588e-06
-0.0001467114152
2.522748502e-05
0.0005391137506
-2.095475137e-05
-0.0007009355126
2.720575726e-05
0.001193305468
-2.539386933e-05
-0.001341141979
3.084832913e-06
0.001683440329
-5.099443564e-06
-0.001759383656
-1.807458692e-05
0.001885242093
1.57384802e-05
-0.001900099061
-2.822570409e-05
0.001881573619
2.557954562e-05
-0.001852533636
-2.484898669e-05
0.001671824844
2.132638155e-05
-0.001575550857
-8.756064116e-06
0.001184038245
7.209540492e-06
-0.001027946019
-9.297103619e-07
0.0005446474818
1.148606958e-06
-0.0003969631903
-6.699183566e-07
7.253092196e-05
4.69670297e-07
-1.985640599e-05
0
0
0
0
0
0
0
0
0
0
0
0
0
0
0
0
0
0
0
0
0
0
0
0
0
0
0
0
0
0
0
0
0
0
0
0
0
0
0
0
0
0
2.592946786e-07
1.472771319e-07
-3.893222777e-08
-1.105495734e-05
9.005944281e-06
0.0001895808147
-5.883329951e-06
-0.0002882864701
1.686359243e-05
0.0006405117395
-1.351051173e-05
-0.0007613487325
8.015103519e-06
0.001080284068
-7.871820078e-06
-0.001163269547
-7.241311355e-06
0.001323084295
4.653611151e-06
-0.001345240346
-1.488474725e-05
0.001318037043
1.128565151e-05
-0.001278085425
-1.121616011e-05
0.001070420359
8.432986176e-06
-0.0009751009123
-3.760521922e-06
0.0006382927285
2.967300211e-06
-0.0005192581848
-1.212247517e-06
0.0001964318385
9.826850249e-07
-0.000114563867
-9.57879144e-09
4.88888747e-07
0
0
0
0
0
0
0
0
0
0
0
0
0
0
0
0
0
0
0
0
0
0
0
0
0
0
0
0
0
0
0
0
0
0
0
0
0
0
0
0
0
0
0
0
0
0
0
0
5.36483487e-07
4.882137502e-06
-7.484332469e-08
-2.259042171e-05
4.605656594e-06
0.0001559774854
-2.554444843e-06
-0.0002167942824
4.970690708e-06
0.0004041820994
-3.621916654e-06
-0.0004591523521
1.798638208e-07
0.0005733686787
-7.175640437e-07
-0.0005904878704
-3.291193438e-06
0.0005724747513
1.811624791e-06
-0.0005441077748
-2.754962622e-06
0.0004045606296
1.698486917e-06
-0.000345204072
-1.174431519e-06
0.0001602370883
6.98297642e-07
-0.0001056525511
-8.210091545e-08
6.058993944e-06
2.492987146e-10
-6.51994029e-08
0
0
0
0
0
0
0
0
0
0
0
0
0
0
0
0
0
0
0
0
0
0
0
0
0
0
0
0
0
0
0
0
0
0
0
0
0
0
0
0
0
0
0
0
0
0
0
0
0
0
0
0
0
0
1.110158156e-08
0
0
-7.976767768e-07
4.836357933e-07
2.176892803e-05
-7.343266233e-08
-3.369815333e-05
4.06860738e-07
6.56146928e-05
-1.48838923e-07
-7.126123462e-05
-9.907840142e-08
6.628967066e-05
1.687603144e-08
-5.784038535e-05
-1.582910352e-07
2.300649394e-05
1.380277268e-08
-1.26812755e-05
0
0
0
0
0
0
0
0
0
0
0
0
0
0
0
0
0
0
0
0
0
0
0
0
0
0
0
0
0
0
0
0
0
0
0
0
0
0
0
0
0
0
0
0
0
0
0
0
0
0
0
0
0
0
0
0
0
0
0
0
0
0
0
0
0
0
0
0
0
0
0
0
0
0
0
0
0
0
0
0
0
0
0
0
0
0
0
0
0
0
0
0
0
0
0
0
0
0
0
0
0
0
0
0
0
0
0
0
0
0
0
0
0
0
0
0
0
0
0
0
0
0
0
0
0
0
0
0
0
0
0
0
0
0
0
0
0
0
0
0
0
0
0
0
0
0
0
0
0
0
0
0
0
0
0
0
0
0
0
0
0
0
0
0
0
0
0
0
0
0
0
0
0
0
0
0
0
0
0
0
0
0
0
0
0
0
0
0
0
0
0
0
0
0
0
0
0
0
0
0
0
0
0
0
0
0
0
0
0
0
0
0
0
0
0
0
0
0
0
0
0
0
0
0
0
0
0
0
0
0
0
0
0
0
0
0
0
0
0
0
0
0
0
0
0
0
0
0
0
0
0
0
0
0
0
0
0
0
0
0
0
0
0
0
0
0
0
0
0
0
0
0
0
0
0
0
0
0
0
0
0
0
0
0
0
0
0
0
0
0
0
0
0
0
0
0
0
0
0
0
0
0
0
0
0
0
0
0
0
0
0
0
0
0
0
0
0
0
0
0
0
0
0
0
0
0
0
0
0
0
0
0
0
0
0
0
0
0
0
0
0
0
0
0
0
0
0
0
0
0
0
0
0
0
0
0
0
0
0
0
0
0
0
0
0
0
0
0
0
0
0
0
0
0
0
0
0
0
0
0
0
0
0
0
0
0
0
0
0
0
0
0
0
0
0
0
0
0
0
0
0
0
0
0
0
0
0
0
0
0
0
0
0
0
0
0
0
0
0
0
0
0
0
0
0
0
0
0
0
0
0
0
0
0
0
0
0
0
0
0
0
0
0
0
0
0
0
0
0
0
0
0
0
0
0
0
0
0
0
0
0
0
0
0
0
0
0
0
0
0
0
0
0
0
0
0
0
0
0
0
0
0
0
0
0
0
0
0
0
0
0
0
0
0
0
0
0
0
0
0
0
0
0
0
0
0
0
0
0
0
0
0
0
0
0
0
0
0
0
0
0
0
0
0
0
0
0
0
0
0
0
0
0
0
0
0
0
0
0
0
0
0
0
0
0
0
0
0
0
0
0
0
0
0
0
0
0
0
0
0
0
0
0
0
0
0
0
0
0
0
0
0
0
0
0
0
0
0
0
0
0
0
0
0
0
0
0
0
0
0
0
0
0
0
0
0
0
0
0
0
0
0
0
0
0
0
0
0
0
0
0
0
0
0
0
0
0
0
0
0
0
0
0
0
0
0
0
0
0
0
0
0
0
0
0
0
0
0
0
0
0
0
0
0
0
0
0
0
0
0
0
0
0
0
0
0
0
0
0
0
0
0
0
0
0
0
0
0
0
0
0
0
0
0
0
0
0
0
0
0
0
0
0
0
0
0
0
0
0
0
0
0
0
0
0
0
0
0
0
0
0
0
0
0
0
0
0
0
0
0
0
0
0
0
0
0
0
0
0
0
0
0
0
0
0
0
0
0
0
0
0
0
0
0
0
0
0
0
0
0
0
0
0
0
0
0
0
0
0
0
0
0
0
0
0
0
0
0
0
0
0
0
0
0
0
0
0
0
0
0
0
0
0
0
0
0
0
0
0
0
0
0
0
0
0
0
0
0
0
0
0
0
0
0
0
0
0
0
0
0
0
0
0
0
0
0
0
0
0
0
0
0
0
0
0
0
0
0
0
0
0
0
0
0
0
0
0
0
0
0
0
0
0
0
0
0
0
0
0
0
0
0
0
0
0
0
0
0
0
0
0
0
0
0
0
0
0
0
0
0
0
0
0
0
0
0
0
0
0
0
0
0
0
0
0
0
0
0
0
0
0
0
0
0
0
0
0
0
0
0
0
0
0
0
0
0
0
0
0
0
0
0
0
0
0
0
0
0
0
0
0
0
0
0
0
0
0
0
0
0
0
0
0
0
0
0
0
0
0
0
0
0
0
0
0
0
0
0
0
0
0
0
0
0
0
0
0
0
0
0
0
0
0
0
0
0
0
0
0
0
0
0
0
0
0
0
0
0
0
0
0
0
0
0
0
0
0
0
0
0
0
0
0
0
0
0
0
0
0
0
0
0
0
0
0
0
0
0
0
0
0
0
0
0
0
0
0
0
0
0
0
0
0
0
0
0
0
0
0
0
0
0
0
0
0
0
0
0
0
0
0
0
0
0
0
0
0
0
0
0
0
0
0
0
0
0
0
0
0
0
0
0
0
0
0
0
0
0
0
0
0
0
0
0
0
0
0
0
0
0
0
0
0
0
0
0
0
0
0
0
0
0
0
0
0
0
0
0
0
0
0
0
0
0
0
0
0
0
0
0
0
0
0
0
0
0
0
0
0
0
0
0
0
0
0
0
0
0
0
0
0
0
0
0
0
0
0
0
0
0
0
0
0
0
0
0
0
0
0
0
0
0
0
0
0
0
0
0
0
0
0
0
0
0
0
0
0
0
0
0
0
0
0
0
0
0
0
0
0
0
0
0
0
0
0
0
0
0
0
0
0
0
0
0
0
0
0
0
0
0
0
0
0
0
0
0
0
0
0
0
0
0
0
0
0
0
0
0
0
0
0
0
0
0
0
0
0
0
0
0
0
0
0
0
0
0
0
0
0
0
0
0
0
0
0
0
0
0
0
0
0
0
0
0
0
0
0
0
0
0
0
0
0
0
0
0
0
0
0
0
0
0
0
0
0
0
0
0
0
0
0
0
0
0
0
0
0
0
0
0
0
0
0
0
0
0
0
0
0
0
0
0
0
0
0
0
0
0
0
0
0
0
0
0
0
0
0
0
0
0
0
0
0
0
0
0
0
0
0
0
0
0
0
0
0
0
0
0
0
0
0
0
0
0
0
0
0
0
0
0
0
0
0
0
0
0
0
0
0
0
0
0
0
0
0
0
0
0
0
0
0
0
0
0
0
0
0
0
0
0
0
0
0
0
0
0
0
0
0
0
0
0
0
0
0
0
0
0
0
0
0
0
0
0
0
0
0
0
0
0
0
0
0
0
0
0
0
0
0
0
0
0
0
0
0
0
0
0
0
0.0009752311815
-0.0009752749698
-9.427312075e-06
2.196786692e-05
-0.0009779326079
-2.251163081e-05
0.0004901453698
0.0004883310019
-3.095495424e-05
0.0009850369957
2.68700395e-05
0.000974430207
-9.778992219e-06
-0.0004873041704
-0.0004868983319
1.840700199e-05
-0.0009813675894
-1.886560867e-05
0.0004909138924
0.0004909123037
2.033652166e-05
0.000490965541
0.0004906907122
0.0009796271782
-9.496143361e-06
-0.0004897893206
-0.0004896998776
1.76881464e-05
-0.0009823397113
-1.701181588e-05
0.0004907168809
0.0004909464998
1.808552316e-05
0.0004899686483
0.0004910975668
0.0009837825406
-9.210625063e-06
-0.0004917757545
-0.00049182281
1.568358127e-05
-0.0009839603614
-1.631971801e-05
0.0009845964981
0.0009842017763
1.727120026e-05
0.0004941266376
-0.0004941274041
-4.395274012e-06
-0.0002465914184
1.015722801e-06
-1.069951913e-06
0.0002466456475
0.0002465542782
-0.0004926273887
-2.457167268e-06
1.582951341e-05
-0.0009855687701
-1.574023881e-05
0.0009854794955
0.0009850050932
1.560352175e-05
0.0004969283814
-0.0004969283814
-5.003316693e-06
-0.000496928416
7.35355545e-06
-7.353647879e-06
0.0004969285084
0.0002464389173
7.691452776e-07
-0.0009932571451
0.0004561142863
1.647572885e-05
8.561726095e-06
2.178793827e-05
-0.001964715808
0.0009911234702
0.0009851482523
-1.676641125e-05
-1.657744197e-05
0.0009849339834
1.595840734e-05
0.0009897509343
-0.0009893560953
-5.923754202e-06
-1.389487482e-05
0.0009557143917
1.353183036e-05
-0.0009850470376
-2.943092333e-05
0.0009835230067
-3.729999637e-05
0.0009746457268
4.451205467e-05
4.380466992e-06
-0.0002469377191
-4.534923251e-06
0.0002470921753
-0.0004976887246
-1.597117e-05
0.0004990598567
1.460003786e-05
-0.0009775655047
-2.169471146e-05
5.014807026e-05
-0.001950125929
-5.275480017e-05
0.001953240595
-5.850167385e-05
0.001949850375
5.281409518e-05
0.001944121365
-0.001949483697
-9.269969706e-06
8.896629665e-06
-8.942555223e-06
0.0009744761325
-8.857380527e-06
0.0009742116604
8.947057219e-06
4.791912442e-06
-0.0002451546613
-4.612711244e-06
0.0002449754601
-3.551426733e-06
-0.0002451643036
0.0002448628049
3.852925442e-06
-0.0009811373274
-1.971973975e-05
4.731327993e-05
-0.001958948631
-4.802846713e-05
0.001959776216
0.001956907352
4.913518282e-05
0.001957078288
-0.001959422774
-9.68280576e-06
8.799522007e-06
-8.845408537e-06
0.0009796730647
0.0009749830709
8.850258748e-06
9.318539007e-06
0.0009778207073
-9.366097486e-06
-0.0004887268298
-0.000489046319
5.626024258e-06
-0.0002445710861
-5.605927526e-06
0.0004890513869
-0.0002445003976
-5.701890536e-06
-0.0002431353018
0.0004868505901
5.516285735e-06
-0.0002435296835
3.802135114e-06
-0.000245813023
-3.826344997e-06
0.0002458372329
-4.868019961e-06
-0.0002454704986
0.0002451390137
5.199504865e-06
-0.0009824653213
-1.823195467e-05
4.380390139e-05
-0.001957038874
-4.515830557e-05
0.001962277723
0.001958089911
4.656969919e-05
0.001967020521
-0.001967405998
-1.018510909e-05
8.614518312e-06
-8.660201558e-06
0.0009838282238
0.0009802725707
8.798799027e-06
9.534458175e-06
0.0009819791453
-9.353156014e-06
-0.0004910792941
-0.0004910811533
2.900045543e-06
-0.0002455162402
-2.954586648e-06
0.0002455707813
-5.385628055e-06
-0.0002449150875
0.0004899696053
5.426346831e-06
-0.0002450952365
6.6113729e-06
-0.0004915857301
-6.758705126e-06
0.0004917330623
-7.380286851e-06
-0.0004919106439
6.331534064e-06
0.0002467300357
0.0002462293609
0.001976509511
-9.953290239e-06
-0.0009880960863
-0.0009886500454
8.352656582e-06
-0.0004944026376
-8.484277909e-06
0.0009886608966
0.000984655645
8.569232012e-06
4.438783658e-06
0.0004934798954
-0.0004935256282
-4.393050838e-06
3.986013756e-06
-0.0002472024595
-3.72863405e-06
0.0002469450798
-3.450853995e-06
-0.0002455791252
0.000245691091
3.338888163e-06
0.0002482811998
2.441579145e-06
-0.0002476036765
-3.119102514e-06
5.84548055e-06
-0.0004931186568
-5.671277315e-06
0.0004929444535
-6.362075906e-06
-0.0004924560383
0.0004924541702
6.36394395e-06
0.001960426396
-1.335553817e-05
-0.0009647410025
-0.0009932571451
9.53706102e-06
-0.0004963287637
-9.537061018e-06
0.0009932571451
-0.000494906179
0.0009887081931
8.355402375e-06
4.400712484e-06
0.0004952695122
-0.0004952235562
-4.446668485e-06
2.980408923e-06
-0.0002459011838
-3.645516886e-06
0.0002465662917
-4.363054587e-06
-0.0002455604654
0.0002458835463
4.039973689e-06
0.0009976816364
-0.0009976816364
-1.016329167e-05
-0.0009976816364
1.45502952e-05
-1.455029521e-05
0.0009976816364
0.0004966052615
7.353504379e-06
-5.812476586e-06
0.0004882033384
5.423990212e-06
-0.0002435990664
-0.0002442157857
6.168018725e-06
0.0004873052512
-6.107442759e-06
-0.0002440119883
-0.0002433538389
0.0004984439583
3.564353527e-06
-4.574516812e-06
-0.0004974337951
0.0004894443757
-0.0004898218374
-5.435014817e-06
-0.0002453715761
-3.317218934e-06
0.0002451373683
-0.0002462809474
0.0002464833264
4.178088023e-06
-2.419186792e-05
-0.0009804617441
2.31517401e-05
0.0004917087091
0.0004897931628
-1.126907949e-05
0.0002455964636
1.040634475e-05
-0.0004910146762
4.005199715e-06
-0.0002454893597
-3.887416057e-06
-0.0002430076872
-5.931645582e-06
0.0004867129502
-0.000243475508
-0.0004865599727
-5.738549276e-06
0.0004866068051
5.691716813e-06
-9.601181978e-06
0.0009739471243
9.555060759e-06
-0.000973901003
-5.970420531e-06
5.646972595e-06
-0.0002431646039
-0.0002430719209
2.992143981e-06
-0.000243005985
-2.993846178e-06
0.0004868073546
5.941411694e-06
-0.0002432150064
-0.0002433657411
0.0004869165184
-5.887965648e-06
-0.0002436381279
-0.0002433608454
-0.0002450246082
-4.490381604e-06
0.0002446469698
-0.0002457786349
0.0002454228631
5.147684168e-06
-9.924946905e-06
-0.0004910289359
0.0004911213216
9.832561191e-06
-4.810887812e-06
4.935598657e-06
-0.0002459033457
4.632262796e-06
-0.0002452424173
-4.414453705e-06
4.152358554e-06
-0.0002453114624
-0.000245296843
-4.668706066e-06
-0.0004902127795
-9.925959691e-06
0.0004902137923
-0.0002447455805
-5.577891218e-06
0.0004895552576
-0.000244617414
-0.0002448389828
0.0004895940345
5.815266665e-06
-0.0002449442941
0.0009787379265
9.544566922e-06
-0.0004895036257
-0.0004894603287
-3.167243168e-06
3.21827317e-06
-0.0002448900128
2.709372845e-06
-0.0002446911831
-2.763770266e-06
2.942411588e-06
-0.0002430855694
-0.0002446851368
-3.053192453e-06
-0.0004911376502
-7.251003784e-06
0.0002455212348
0.0002454871323
-0.0002458223135
0.0002457386804
3.885768178e-06
-1.693957506e-05
-0.0009810475806
1.711335127e-05
0.0004901193103
0.0004907544942
-7.872360061e-06
0.0002451677967
7.504357401e-06
-0.0004906221076
7.479379034e-06
-0.0004910886806
-7.528348597e-06
4.8486699e-06
-0.0002456869057
0.0002454510381
-0.0004909441392
-3.906067699e-06
-4.286214275e-06
-0.0009809567238
-1.779802837e-05
0.0004908835068
0.0004909316704
-0.0002455508046
-3.513589994e-06
0.0002456135406
-0.0002455052063
0.0002455151132
2.890138682e-06
0.0009818027536
9.213808868e-06
-0.000490899868
-0.0004905822363
-3.10379078e-06
2.948475068e-06
-0.0002453498906
3.938210183e-06
-0.0002453835764
-4.105438435e-06
2.70476608e-06
-0.0002449104808
-0.0002454523177
-3.167713201e-06
-0.0004926760595
-6.37050162e-06
0.0004926844852
-0.0004920121179
0.0004920105091
6.612981694e-06
-0.0002466001344
-4.574953663e-06
0.0002468120334
-0.0002467570435
0.0002468561047
3.886952522e-06
0.0004934806779
4.439127122e-06
-0.0004934810213
-1.007292408e-06
-0.0002466796977
0.0002459067416
1.780248583e-06
-4.470405681e-06
4.308945483e-06
-0.0002465955833
4.089728711e-06
-0.0002461723009
-4.517562148e-06
3.721426514e-06
-0.0002453623415
-0.0002473692146
-4.303650571e-06
-2.306676434e-06
0.0002495805839
1.199170726e-05
-0.0009849123471
-1.175073064e-05
0.0004921020022
0.0004925693682
-0.0004928346922
0.0004926542368
6.025935874e-06
2.439890954e-06
-0.0002466780096
-0.0005010910022
4.702942679e-06
0.0004987612508
-7.158101073e-07
-1.657381186e-06
-0.0002459243821
0.0002463012676
2.603523467e-06
0.0004952216998
4.309056929e-06
-0.0004951300443
1.342767744e-06
-0.0004892095561
0.0004894574777
-1.590689358e-06
-1.77761024e-06
1.569738995e-06
-0.0002457165109
6.241029913e-06
-0.0005011305912
-1.679838252e-06
-4.521602675e-06
3.662600565e-06
-0.0002451333372
-2.241312723e-06
-0.0002454374813
-0.0004894363928
8.091804241e-07
0.0004899699801
0.001937908468
-0.001948106345
-7.910401263e-06
-8.768336531e-06
0.0009751421375
-5.254970453e-06
0.0009890202921
6.6463386e-06
8.29975609e-06
0.0009794274963
-0.0009793530518
-8.374200561e-06
5.466872295e-06
-5.399710255e-06
0.0004893772136
-2.754037946e-06
0.0004998750999
1.322896396e-06
3.391940628e-05
-0.0002431407239
1.02065084e-05
0.0001990148092
-0.0002560349688
-9.844386609e-06
0.0002596777783
6.201577163e-06
0.0009739358736
-0.0009740249158
-9.512139851e-06
-5.742277845e-06
0.0004869202469
-5.71867412e-06
0.0004868074054
5.718623333e-06
6.529416401e-05
-0.0002477010678
-2.284822531e-05
0.0002052551291
-0.0009836875281
-1.748793051e-05
4.13977563e-05
-0.001942888162
-4.244892348e-05
0.001968354542
0.00196456758
4.404612397e-05
6.471906974e-05
-0.0002472583511
-2.166330794e-05
0.0002042025893
5.045269054e-06
-0.0004926898156
-5.295975969e-06
0.0002464465947
0.0002464939278
-2.758068487e-06
-0.0002462374504
0.0002461918984
2.803620523e-06
5.812940784e-07
-0.0004891999149
-8.177720136e-07
1.657285233e-05
-0.0009837363439
-1.460757095e-05
0.0009817710625
-0.0009845169857
1.232248518e-05
0.0004919529462
0.0004922332616
-5.714464116e-06
0.0004873010412
0.0004882266396
5.443571104e-06
0.0009739407053
8.935769811e-06
-0.000974576719
-2.171157848e-06
0.0002437427593
2.68041291e-06
-0.0002442520144
0.0002575213401
6.851013791e-06
-3.321892224e-06
-0.0002610504617
0.0002483378247
-4.722887349e-09
-0.0002487246337
3.915319571e-07
-1.904803928e-05
1.502855642e-05
-0.0004936692417
0.0002461002733
-0.0004919746853
-1.233238653e-05
-0.0009794152852
-2.240990204e-05
0.0004891481833
0.000488485136
-0.0002466216371
-2.944576999e-06
0.0002468081456
-5.189631565e-06
-0.0002465461263
0.0002471792357
4.556522132e-06
-1.689206369e-05
-0.0009828831001
0.0009831659205
1.660924327e-05
-7.097172928e-06
6.951732154e-06
-0.0004918666771
6.706027367e-06
-0.0004925789665
-6.803120449e-06
7.159866133e-06
-0.000491591131
-0.0004915888493
-7.094053687e-06
-0.000983793543
-1.694640048e-05
0.0009838478798
-3.413393086e-06
-0.0002472111861
0.000248024923
2.599656234e-06
0.0002448527913
4.553831361e-06
-0.0002448333901
-4.573232592e-06
-7.957818302e-08
-0.0004912325408
-2.937848006e-08
0.0002454134463
0.0002459280512
-0.0004791084776
-3.318444555e-06
0.0004790662038
3.360718386e-06
0.001029354778
1.297425865e-05
-2.174722546e-05
-8.065301754e-06
-0.0005022447128
-0.0005102717962
0.0004939661227
-0.0005041902475
1.37884783e-05
-0.0004965142357
-1.66698911e-05
0.0004972129568
-0.001003912447
-4.993957291e-05
0.0005028148307
0.000484782616
2.489792418e-05
4.135664913e-05
-1.206829402e-05
1.259155677e-05
-0.0004796317404
-0.0003132758228
0.000347195229
-1.2002195e-05
-0.0004948481491
1.091195686e-05
0.0002477807057
0.0002481576815
-9.559054508e-06
-5.306085785e-05
-0.0002506559104
-7.261293241e-06
5.375246598e-06
-0.0002541489222
-0.0002496293235
-3.070454957e-06
-0.0004930758509
-1.05634195e-05
0.0002461792384
0.000245457837
-4.849481754e-06
-0.0002453394733
0.0002453816859
4.807269158e-06
-0.0002454958628
-4.830837754e-06
0.0002454772188
-3.628040499e-06
-0.0002462568322
0.000246233898
3.650974729e-06
-0.000246849139
-3.919100089e-06
0.0002471401986
-0.0002454936051
5.127777171e-06
-3.647128686e-06
0.0002440129566
-0.0002509593644
0.0003161203704
1.331580161e-07
-6.9964814e-06
-0.0004910493801
0.0004910460382
6.999823261e-06
-7.058888257e-06
4.079659964e-06
-0.0002479801361
5.095471655e-06
-0.0002458930351
-4.696041639e-06
-6.435043235e-06
2.233824956e-05
-0.0002439288555
0.0002280256492
-0.0002465216452
-8.238310884e-06
-0.0004913202039
-7.042870522e-06
0.0002456118955
0.0002457546975
-0.0002462714122
-2.409382175e-06
0.0002463817346
2.299059804e-06
-4.88084166e-06
0.000492559669
4.833294217e-06
-0.0004925121216
4.831950768e-06
0.0004934329712
-0.0004934780396
-4.786882333e-06
4.3603391e-06
-0.0004928051914
-4.464884115e-06
0.0004929097364
-0.0004926413607
4.75409034e-06
0.0002465537862
0.0002463787532
0.0003163929722
-5.833555918e-07
-0.0002510905469
-1.265086057e-06
-0.0002466958563
0.0002470684715
8.924708296e-07
-4.532794149e-06
0.0004946314517
4.48936837e-06
-0.000494588026
4.490339222e-06
0.0004951766135
-4.72302217e-06
-0.0002474346454
-0.0002475092852
-4.689254875e-06
0.0004935747142
4.547185765e-06
-0.0004934326451
0.0004944470223
-0.0004943977328
-4.582083661e-06
-0.0002459235737
-1.734365386e-06
0.000246392853
0.0002503194925
6.143266931e-08
6.376918311e-05
-0.0003141501083
0.0002426972689
-2.336615917e-06
-0.0002425318108
5.590906272e-06
0.0004880868842
-5.777342651e-06
-0.0002435729319
-0.0002443275159
2.804085687e-06
-3.227799586e-06
0.0002431209828
-2.872414942e-06
0.0002479873781
5.204529361e-06
5.811607619e-06
-2.022044065e-05
0.0002439348407
-0.0002295260077
0.0002440299583
2.51688673e-06
0.0004886347265
6.127324302e-06
-0.0002448592154
-0.0002443119291
4.262798516e-06
0.0004985096726
-0.0004988544393
-3.918031859e-06
1.830170739e-06
-2.113050848e-06
0.0002486207048
1.230333336e-05
0.0002496047295
-4.386722803e-06
-0.0002477340357
-2.000508532e-06
0.0002468621293
-0.0002479327293
0.0002480048899
1.758010186e-06
0.0004945778011
4.59508483e-06
-0.0004949100874
1.550254508e-06