/*--------------------------------*- C++ -*----------------------------------*\
| =========                 |                                                 |
| \\      /  F ield         | OpenFOAM: The Open Source CFD Toolbox           |
|  \\    /   O peration     | Version:  v1912                                 |
|   \\  /    A nd           | Website:  www.openfoam.com                      |
|    \\/     M anipulation  |                                                 |
\*---------------------------------------------------------------------------*/
FoamFile
{
    version     2.0;
    format      ascii;
    class       volScalarField;
    location    "0.63";
    object      omega;
}
// * * * * * * * * * * * * * * * * * * * * * * * * * * * * * * * * * * * * * //

dimensions      [0 0 -1 0 0 0 0];


internalField   nonuniform List<scalar> 
12556
(
31.93090511
31.93173657
31.93267587
31.9335314
31.96664847
31.96738908
31.9681266
31.96965505
31.97274417
31.97803498
31.9857321
31.99376852
32.00012728
32.00015772
31.99373167
31.98626443
31.97893734
31.97302729
31.97027656
31.96817386
31.93450691
31.93324483
31.93202849
31.93103909
31.79420127
31.79680651
31.79945094
31.80186442
31.83587175
31.83862221
31.84288491
31.86505338
31.87937869
31.9041742
31.94006944
31.98111399
32.00761532
32.01049696
31.98712419
31.9500372
31.91446328
31.88757682
31.8551163
31.84403369
31.80590156
31.80186667
31.79840141
31.79532942
31.65958703
31.66406189
31.66874754
31.6726961
31.70742586
31.71336937
31.72359402
31.75501489
31.78985516
31.84749987
31.92983769
32.02299885
32.07238715
32.0837022
32.02930865
31.9486114
31.86860228
31.80826471
31.75110656
31.72655842
31.68135221
31.67375125
31.6675959
31.66261142
31.52615548
31.53225671
31.53849552
31.5443441
31.58128343
31.59273704
31.61453964
31.66492983
31.73672066
31.85871772
32.03716859
32.23365983
32.33789301
32.34365771
32.20828089
32.04336099
31.88323413
31.76374306
31.66836858
31.62115899
31.5621446
31.54944107
31.53987721
31.53243772
31.39535445
31.40313484
31.41150317
31.41985093
31.45945388
31.4794698
31.5212252
31.60202274
31.74270054
32.00668727
32.41118622
32.8781004
33.21198158
33.175933
32.76297173
32.35524335
32.01488327
31.77833603
31.61660353
31.53178071
31.45004396
31.42862644
31.41454372
31.40454579
31.26542605
31.27480371
31.28513364
31.2970617
31.34295787
31.37671199
31.44975214
31.57492527
31.84230418
32.38886621
33.41523348
35.15464231
36.51451312
35.99849688
34.30784584
33.13157198
32.35663933
31.88430287
31.600465
31.46150306
31.34611723
31.31087465
31.29069947
31.27720222
31.13884131
31.1501155
31.1634124
31.18018294
31.23298582
31.2858074
31.39998225
31.59412162
32.06335172
33.13749871
35.81680232
44.29782382
53.15654823
48.62628076
38.41982011
34.77780643
33.02183708
32.12185569
31.62247821
31.41120354
31.24940545
31.19631325
31.16793567
31.15060968
31.01378125
31.02704859
31.04358178
31.06710974
31.13154836
31.20876455
31.37275956
31.6617162
32.39672685
34.23145345
39.91920544
67.5377181
87.9500713
47.76806498
37.6727089
34.0820995
32.50168375
31.69761538
31.37728758
31.16118437
31.08558082
31.04665973
31.02463853
30.89451091
30.91033511
30.93170386
30.9648806
31.03866372
31.14623857
31.37144609
31.77436261
32.80219469
35.38686313
43.52850807
85.85204681
178.1492814
61.23299342
41.58638578
35.45312568
32.98821124
31.80998085
31.3587766
31.0806244
30.98014111
30.92890944
30.90178059
30.77930355
30.79773384
30.82389752
30.86742718
30.95580808
31.09755621
31.3863674
31.91539898
33.21258609
36.34965644
45.64143685
92.68283359
223.1607917
72.84091219
45.5061484
36.86981936
33.48993354
31.9398221
31.35213292
31.00861706
30.88182765
30.81700967
30.78389622
30.67250464
30.69434912
30.72712758
30.78399433
30.88335746
31.06086208
31.42005782
32.07382219
33.60019657
37.11497805
47.09940354
102.5612888
221.3965813
79.50178175
48.47323043
38.03924749
33.94522035
32.06207657
31.35267631
30.94400634
30.79240462
30.71381141
30.6745833
30.57166315
30.59631365
30.63479252
30.70411336
30.82011421
31.03433645
31.46540043
32.23690152
33.94956844
37.73972428
48.41441066
114.2781616
203.2504516
81.85295165
50.12748303
38.79351038
34.27098987
32.15592855
31.35194748
30.88721252
30.71165025
30.62008444
30.57431448
30.47971801
30.50812629
30.55459839
30.63822802
30.76397955
31.01456323
31.51169786
32.39172565
34.24452415
38.24674464
49.88702076
123.0458077
1037.810105
173.0677906
81.38769638
50.60269641
39.08166259
34.44308388
32.20813829
31.34300975
30.83361814
30.63903798
30.53521101
30.48368853
30.39241464
30.42415522
30.47783688
30.57372333
30.72107967
31.01250672
31.59664478
32.56889633
34.55646542
38.80902817
51.87570234
166.0557
616.8908518
161.3165907
79.60616298
50.11592544
38.98409433
34.47772468
32.21839761
31.32141746
30.77888615
30.57086162
30.4563657
30.39918811
30.31143415
30.34655641
30.40686523
30.51363374
30.674861
30.99975858
31.64837222
32.72319978
34.84633001
39.27597521
53.39160395
356.2825426
434.8776718
149.5821279
76.02855925
48.94801192
38.6174753
34.41022179
32.18858508
31.28463543
30.7225497
30.50441811
30.38117168
30.31982671
30.23120956
30.26949025
30.33588392
30.45341405
30.6289386
30.98317801
31.69032912
32.89315616
35.26183303
40.17207924
56.77247612
590.1354261
366.7956025
135.6139767
70.9763389
47.2699508
38.10607443
34.2551647
32.12027315
31.23051422
30.65871878
30.43421022
30.30464961
30.23926439
30.15405139
30.19546648
30.26704803
30.39312259
30.58046114
30.95950122
31.71734474
33.04678218
35.84417089
41.96515941
68.51454084
941.7483958
277.2813282
117.164654
64.82093301
45.4048463
37.61580127
34.06156389
32.02202066
31.16114038
30.58841366
30.36078209
30.22635907
30.15810853
30.07337239
30.11753825
30.19375738
30.32815506
30.52740154
30.92712337
31.72814179
33.13927182
36.41815698
44.89962195
110.5698943
845.4688203
206.337778
99.24157716
59.37884237
43.94487629
37.16734241
33.84654472
31.90332492
31.07397881
30.50622968
30.27766363
30.14131511
30.07100696
29.99355707
30.04030202
30.12035811
30.26063552
30.46836377
30.88466757
31.72293197
33.20803048
36.75591634
48.15910011
191.2657481
644.8329746
168.0918411
87.77710417
56.27829844
42.97552959
36.73451229
33.61834049
31.76974536
30.97352446
30.41541232
30.18824006
30.05115849
29.98005183
29.90715178
29.95588783
30.03936478
30.18578873
30.40267704
30.83201093
31.70138887
33.25597633
37.09086068
51.51079812
234.0087638
508.8224339
151.5768071
82.811343
54.32034177
42.12340517
36.32833204
33.38707642
31.62645015
30.86200082
30.31395039
30.08890685
29.95220521
29.88109377
29.82141591
29.87179357
29.95787778
30.10788264
30.32996702
30.76957256
31.66461471
33.28424209
37.44450953
56.41525925
268.5532961
408.0440659
139.5024364
78.72803173
52.72500069
41.38773457
35.95252741
33.15878056
31.47700868
30.74159962
30.20592866
29.98463047
29.84925701
29.77867244
29.7272159
29.77855995
29.8668982
30.02128019
30.25043572
30.69815307
31.61487599
33.29579487
37.84382784
61.83948251
297.3865467
334.7991784
129.7694404
75.37704846
51.44183082
40.76084555
35.60768246
32.93700406
31.32397778
30.61439146
30.08904173
29.87108719
29.73751597
29.66797524
29.63540812
29.68736795
29.77708338
29.93291996
30.1643176
30.61867695
31.55414982
33.29560755
38.36140328
66.75928042
314.2332618
284.3390943
121.9844427
72.63791022
50.39135288
40.22975928
35.29383159
32.72393738
31.1695202
30.48223428
29.96918784
29.75588321
29.62461362
29.55633018
29.53362821
29.58565289
29.67658652
29.83541731
30.07248046
30.53230873
31.48491385
33.29133438
39.04840893
70.95425512
320.3443102
249.4108429
115.6617876
70.37009351
49.51126457
39.77843849
35.01011617
32.52094775
31.01537833
30.34681986
29.84222017
29.63216571
29.50315025
29.4363685
29.43747528
29.48935136
29.58066569
29.73914468
29.97560036
30.44037566
31.40982963
33.2935289
39.85283344
74.41674836
319.0063594
224.5069397
110.4434098
68.46935247
48.76227902
39.39086007
34.75415475
32.32859525
30.86280559
30.20949008
29.71616629
29.51087298
29.38439288
29.31913251
29.32916305
29.38051819
29.47233219
29.63306834
29.87489038
30.34413279
31.33137768
33.31152905
40.67528271
77.14734304
312.3600232
206.3296721
106.0798879
66.86024476
48.11839623
39.05383386
34.52252822
32.14663445
30.71258436
30.07138984
29.5833783
29.38050269
29.25618551
29.19253853
29.23116998
29.28193653
29.37347398
29.53247974
29.77087863
30.24466951
31.25172233
33.35000191
41.44306333
79.17040975
301.9732494
192.6191838
102.3913536
65.48639163
47.56070732
38.75737406
34.31167657
31.9743526
30.56517207
29.93328971
29.45572493
29.25749128
29.13558621
29.07345128
29.11718996
29.16712065
29.25871211
29.41982687
29.66479643
30.14291392
31.17272597
33.40713253
42.11919594
80.53592287
289.8285945
181.866832
99.24174534
64.30323284
47.07402485
38.49380486
34.11832711
31.81081444
30.42075679
29.79590231
29.31956457
29.12255876
29.00250542
28.94189112
29.02010276
29.06925186
29.16019878
29.31854126
29.55673749
30.03967614
31.09590059
33.47670952
42.6897675
81.32276755
277.1257813
173.1054434
96.52332448
63.27411754
46.64562769
38.25720837
33.93976404
31.65510109
30.27939085
29.65951935
29.19406755
29.0016482
28.88371897
28.82443983
28.90054929
28.94872007
29.03942626
29.20006912
29.4480061
29.93566376
31.02223588
33.55137406
43.15418251
81.62836012
264.4571748
165.7434014
94.14841221
62.36837988
46.26473317
38.04290043
33.77377797
31.50637184
30.1410498
29.52464406
29.05499774
28.86247797
28.74605378
28.68810948
28.80735208
28.85470955
28.94464224
29.10183797
29.33814304
29.83151209
30.95220322
33.62470352
43.51847856
81.53590989
252.1303283
159.4005713
92.04690157
61.56115176
45.92239253
37.84710593
33.61857574
31.36391077
30.00569893
29.39123683
28.93541057
28.74747629
28.63278557
28.57592281
28.6812713
28.72759738
28.81703718
28.97664139
29.22881419
29.72781346
30.88582916
33.69190272
43.79170176
81.12916841
240.3010614
153.8211579
90.16415771
60.8329071
45.61139455
37.66678022
33.47269457
31.2270992
29.87331147
29.25985782
28.79159005
28.60241725
28.48898093
28.43326366
28.59547047
28.6410511
28.72979376
28.88604149
29.11887914
29.62512012
30.82280982
33.74986718
43.984187
80.48344618
229.0556607
148.8338507
88.4578324
60.16846323
45.32600634
37.49944843
33.33491296
31.09539154
29.74393656
29.13021451
28.68306365
28.49804628
28.38583789
28.33092914
28.46064071
28.50516155
28.59315016
28.7509082
29.01096895
29.52409787
30.76274912
33.79689947
44.10673126
79.66005413
218.4292016
144.3250621
86.89592445
59.55617087
45.06168677
37.34309369
33.20422761
30.96837867
29.61786287
29.00342445
28.52918455
28.34302066
28.23199733
28.17810074
28.38633536
28.43027184
28.51776903
28.67432096
28.90337825
29.42567109
30.70547209
33.83232137
44.16954643
78.71228653
208.4343012
140.2138224
85.4549363
58.98698352
44.81468962
37.19597791
33.07975021
30.84562547
29.49599839
28.87955666
28.44042671
28.25580936
28.14540795
28.0920213
28.2140612
28.25673737
28.34323879
28.50065565
28.80136177
29.33158617
30.65156395
33.85617923
44.18187714
77.6920923
199.0895973
136.449588
84.125686
58.4578774
44.58326658
37.05712644
32.96103675
30.72698967
29.3809336
28.76256173
28.2437005
28.05816616
27.94891005
27.89656225
84.90129103
213.9861268
100.8725479
91.79852503
273.2144281
222.3655033
101.0945922
265.8880239
275.2679027
112.9769193
236.6631476
262.1749744
122.0170242
1347.237651
1084.263745
211.4302973
232.7597723
147.2837392
760.9666243
1305.416557
644.7199223
205.7048514
209.0298701
63.46176045
52.50610085
91.78392423
47.89813043
751.5445807
237.4548322
167.848719
68.00082485
53.33234617
45.22319446
77.9912276
73.34973674
2667.414511
1874.468096
220.5878057
85.05322645
72.83387431
46.8028726
83.94957282
78.62434399
95.74361818
269.220098
247.4919146
1402.368417
2010.494551
223.1327539
94.38205273
88.13036909
48.17614806
92.5935413
84.89638727
106.8586327
364.9743346
301.3633074
731.7019396
1007.58387
49.62951372
103.2797291
93.6361836
115.8633063
524.9153848
432.673958
3282.781321
458.2844638
535.0420955
51.63435312
122.8517673
104.8254817
130.8189127
1058.561057
722.6708939
155.4624581
563.1402768
748.4930562
223.5484875
256.2211577
134.361864
216.7045962
1824.64577
795.6305401
166.2508119
625.7526477
1245.232689
244.8448634
226.7872232
89.05941589
294.3037553
303.0052339
261.6315677
291.7796367
2038.478457
2667.229938
250.732452
1803.604369
1522.983314
1287.406645
1799.394861
247.540995
298.4516632
272.8219767
96.94188326
343.1424776
382.6300168
304.9462035
340.0611642
1059.259195
1368.597414
273.2106191
998.3148713
763.7601728
1503.411365
1041.7946
275.017581
428.7968571
368.0364492
108.2715843
442.4217973
534.7625643
385.2067807
438.8477893
552.0320905
701.0392651
713.0020643
533.6286493
116.1003409
4107.644797
708.1119416
1038.088394
539.3339882
693.4453262
4478.180971
419.14149
450.5369546
2994.530867
8544.546523
1065.598529
132.0666698
891.5262579
1635.796916
8255.084087
1045.671315
1612.831371
924.2799709
42.80496378
72.45627127
59.42875644
77.85778759
174.881308
116.1557343
4879.271152
838.2510811
88.50319715
224.4215684
202.1139758
7136.030799
206.0320594
97.26306353
95.57687684
6554.665993
1069.694131
1198.965241
789.983013
370.6733642
404.7757091
199.3968955
179.028386
80.15645478
1539.335319
344.8009864
748.2345164
193.6023888
550.2037186
152.8087801
1225.225587
1617.482635
247.2748324
570.9026593
484.8789385
735.6556731
587.6088146
251.3525518
2140.241492
5157.669048
1133.991032
90.35034909
71.12064896
119.5820929
201.3577711
86.94502119
92.9220573
7397.684806
515.5411882
4987.152445
609.8538494
3506.769588
461.1097836
2155.895778
2126.286834
1651.004219
1693.407055
3303.844937
6214.706136
834.9291972
3949.576923
2079.663544
6993.554872
4472.206564
875.3694032
465.4085021
194.8926994
202.1022896
893.0396885
1016.68657
5999.026114
771.9725348
242.9733927
255.0299059
228.3276136
238.3767816
769.4502028
1428.535564
1542.107945
238.7230758
1018.485141
862.437488
1462.284118
1017.675661
242.8141495
177.9446718
563.3566591
270.4630513
776.6608828
597.4640534
191.1649542
778.2162482
1076.909499
1271.323413
1202.287997
292.4875301
1538.397543
292.6855608
276.7217741
1515.263059
1478.576748
1536.056233
1519.051702
280.7165802
2187.062025
2213.533856
1639.558619
517.2810582
504.9503425
518.3062891
519.3158105
1624.800194
1516.982591
459.1473734
419.2605772
498.1362273
471.10458
1545.128273
361.266635
363.8335368
319.6879228
321.8402108
1134.407355
7233.56322
1158.192688
469.6336223
475.8889679
411.7614317
415.4190275
1954.596998
1379.394603
625.8583471
1728.820061
3057.82271
580.606169
215.6832943
224.8637036
204.7117679
212.8290374
572.7803797
2394.284758
748.0667261
759.3059885
572.2884281
576.3939273
6685.555504
1652.399764
762.9998329
856.1526323
260.1665778
269.1236986
1283.881378
2576.801111
2968.347631
3859.060624
1074.637198
7096.154588
4053.529497
6251.554673
1070.690096
1066.522328
4821.648285
3376.642045
5422.025841
3170.894311
3976.497667
52.9929942
121.8895507
124.8576396
175.4927989
4302.012705
8054.325726
455.1240109
188.2374297
201.4915404
1554.324388
4368.944545
5494.991516
661.4401818
732.7844769
1532.260924
338.667368
359.5761905
767.351898
195.9710334
140.8442011
296.2733747
660.7741167
177.9836642
209.2936922
2508.769425
6508.058815
6816.484779
2001.674137
1511.910677
4488.46579
3205.567314
7549.015044
7345.836526
1907.731929
340.1041301
166.0003566
170.5790443
160.3622513
164.5453229
334.4701095
186.4658128
192.7691122
461.2277256
982.4843621
419.0713269
435.6467333
6953.620915
3508.911812
702.6704782
1579.031284
5933.09324
6489.090282
850.5171715
332.9810276
276.6349979
402.7543961
352.424004
892.4534077
2106.274623
7515.538998
7566.037845
2519.453415
286.7845361
155.1558801
159.0410921
731.3015463
720.3997552
374.2866619
3009.168021
2733.011788
1277.304821
890.1973691
455.1697212
475.4267909
1317.113103
505.1283394
516.0587805
482.5410705
499.7256102
1287.552382
394.484737
178.9387799
184.531539
172.1694305
177.1718928
390.436297
453.1838199
1011.718559
1004.002375
1551.938212
1510.110259
515.6838412
395.3662798
764.3155157
733.0742687
1000.681531
995.826508
428.6521181
603.6973784
1321.857714
1057.415431
6720.966611
3291.948801
728.8578916
887.2387241
552.9836185
1580.869198
1558.527876
1582.248223
615.9349712
5825.747717
8580.846353
332.3393302
366.7308357
441.6978893
456.1086921
1069.217696
3202.194495
2183.58446
810.9411777
1647.361995
8309.334651
2981.891734
2841.573413
15770.29069
1053.469831
1539.045297
2892.491719
3522.633467
2626.363576
7132.338022
7239.625747
2126.285738
2850.325143
6730.691531
1573.914121
1511.547025
522.4203109
1956.530545
842.1927957
1902.772857
573.0222432
5533.787987
4313.357158
1405.38562
6120.555632
6851.824458
5378.363371
4271.146025
1710.074317
5507.735798
6555.427156
4239.004943
5280.785067
6877.94808
3253.50886
3937.107029
2559.909318
3023.112063
6189.397927
7922.412091
1975.608212
1170.749161
3361.028495
2195.798293
1046.094371
634.4759274
1932.562781
7186.484263
9269.971872
2380.311489
2031.427313
6910.608937
7199.810548
4974.525807
4640.335155
1551.71812
7460.191565
7385.489601
5621.755194
7223.182143
7363.023171
1851.258799
7461.378046
5122.084172
4587.264958
5019.895574
2943.062183
1285.107457
1398.699155
5599.054822
1659.021104
1899.178372
1444.221199
1586.350325
5329.607555
4781.13217
1547.262245
1913.584427
394.7017586
413.3934892
899.3936224
745.4863232
376.8426411
390.0853698
1522.966119
1530.487315
1016.81746
408.4323676
427.3970934
384.2850811
402.8255751
1011.743465
1056.232245
469.5103033
503.9966716
433.9542896
459.3683945
1064.265107
715.7188214
356.6330496
378.6601688
1006.453575
1035.137481
4258.884842
4401.054802
1495.5722
6196.716945
6369.743936
8168.246809
4491.993384
3774.233436
6252.671019
4427.598341
999.7007409
3061.379953
4093.762836
1565.754254
592.9603349
655.1077065
571.020481
582.844433
1536.533239
699.4426742
707.2698082
675.1014727
696.6058945
1505.149208
529.9676938
540.6056968
511.7947658
526.1966734
1499.741425
1528.431815
557.498178
567.2199544
544.0672254
554.1896261
1528.510683
7369.461698
7469.142821
2128.381663
2409.805329
7725.172034
7341.512448
984.0273836
986.1631197
963.158651
983.4068943
994.3198568
1003.869205
987.1322935
992.4784464
719.5638962
727.4122532
709.6856208
716.9320356
762.8126031
923.5028416
731.400198
741.7320258
2543.534164
3028.196276
1987.561386
2351.969263
7528.766103
4813.195952
5277.67061
3259.783152
4629.192348
1022.459013
1016.576064
457.0857761
1584.796458
1588.312569
1557.20744
1576.875338
1629.273013
505.4703207
1476.781776
1071.563046
970.810379
783.5486963
399.1783259
1046.497953
1473.643009
1004.151612
1055.971453
1527.037251
1547.133553
1491.533771
1518.477987
425.3456178
994.4744418
987.2381967
6903.040006
2099.407987
6928.27169
6167.574848
6905.893456
2270.18106
6899.878369
3010.697239
6649.878312
5864.029745
734.7449369
808.1818171
1610.231436
1585.58236
557.2641643
601.1696896
1667.869626
1612.325556
6627.102204
1104.814248
466.4601451
504.0708332
6416.50964
7214.762691
1711.235237
7878.063553
6028.472969
3437.983558
1054.603112
7149.282094
4689.694512
7720.970147
5027.610099
1486.629619
81.0735934
49.04307758
39.91850337
6731.742635
6708.397155
191.1628504
96.37005278
97.25029654
6926.573321
1581.088456
3996.103755
3284.503449
472.5881813
393.1355997
223.1982167
537.3342908
333.79077
848.1162613
3099.969425
491.3694782
590.1024594
64.13353292
78.36312885
173.0031673
651.2033792
1379.362184
2088.581624
259.1195369
145.1162191
149.0479328
139.5790257
143.7919072
256.070005
1279.114783
1458.610666
4362.288153
1007.57083
882.4516677
499.2203589
360.850623
372.8675271
741.0564443
2284.797699
2943.481362
937.7353798
150.2740615
153.9218454
283.3309402
351.1064383
693.8403623
671.2693506
650.9896759
589.0573197
331.3110427
640.8688614
344.2729459
356.8277061
5456.332865
5208.937148
3838.700707
1581.709647
1561.974974
1017.899643
4896.748205
6573.283103
6002.781103
2302.399516
1102.209438
1240.860455
1638.678697
1049.716162
1611.711108
1600.190931
1611.262429
5330.811063
6959.869953
4806.953569
5167.5417
6488.95367
2573.507118
1985.590619
1086.54991
1550.888225
256.7991205
199.6325263
385.6673331
1350.479516
3866.478429
2867.844692
6659.891993
6988.079907
7100.239537
6033.61976
6803.443694
126.2607349
167.4943766
500.201684
5928.722814
3709.083303
2774.506265
7979.017718
6194.140935
3618.529513
5618.492209
5250.170939
7362.64093
7050.684282
5624.576631
1160.89205
1255.670423
2681.074532
7140.914846
4449.008482
4862.561058
5425.592872
3959.399431
4345.221949
1474.933386
1908.508245
1540.960287
1018.221348
721.6106096
728.3093159
1429.724903
932.3104021
972.4534875
733.2746516
741.6073058
1025.631697
319.442898
349.7838771
691.2885009
861.3016848
1468.569668
1102.535251
1579.850524
1631.319776
1085.620707
1839.706584
1380.933099
1427.117349
1011.761483
1012.427427
1540.520837
1504.598861
1513.740362
1454.79088
1471.751869
1510.445579
992.0259774
993.4094581
987.0377432
989.9969717
1487.467233
1533.484754
1006.379025
1008.157203
995.0912397
996.9249422
1522.387087
705.7017614
697.101619
353.7070183
371.7212125
717.4571424
708.4723393
562.5964727
552.9923086
313.1714862
1531.674615
1532.557102
1516.005155
1518.319006
1842.619496
1536.571167
1536.781549
328.8041116
578.8289443
566.5571388
7332.91428
7269.88558
5059.581727
5312.75106
7191.318707
7375.562303
7611.280688
1249.654176
2621.326434
2160.449248
329.6129465
340.2882517
615.2552275
557.3039819
318.1371985
326.621561
1046.939331
1047.154834
745.3857936
761.3169803
1053.065072
1057.234005
6639.719893
1356.256305
905.2442357
893.9480347
9764.820694
2103.345792
3325.09002
5568.506816
4887.835917
1669.891786
1651.775838
1062.544872
6911.583646
7456.232061
7149.095385
5814.602565
1122.575061
1709.697277
1660.157727
4059.584142
1959.720073
2374.283752
6631.97049
6554.152995
5512.371253
5225.895427
3694.027983
1704.155581
2540.855527
2416.997391
4802.134447
6724.366732
5998.615303
6792.888406
6576.916175
5219.479116
301.8940043
434.8184473
1720.847674
6831.966295
6660.036878
6996.449899
6948.494943
6663.944548
4236.961059
4216.872064
4248.222281
4236.461647
6681.682648
7564.631682
4315.156032
4360.114904
4108.776279
4247.68431
7668.999455
6168.48994
3879.489323
3493.890649
4193.275543
4093.018667
6302.09973
7493.82469
4477.793302
4522.474354
4408.780313
4439.065412
7542.044227
7154.249139
7028.189643
7181.842954
6945.695903
1010.512234
727.1211018
730.0301053
1539.894424
1010.446385
1013.313971
987.4184828
1005.268155
1529.627331
6453.054952
6657.010973
5960.68367
6527.897596
1587.124801
1598.893037
1562.39603
1575.391207
1992.514129
969.3156813
1521.623516
1466.005782
1572.521172
1016.906438
1019.448841
1014.307947
1015.906429
1566.709752
1506.160422
1543.392255
1081.607719
1451.641037
1974.591662
6876.202767
6519.582938
5345.777787
6711.986136
819.2384393
1119.436733
13069.79891
1071.852034
755.2917002
757.3874124
1652.771334
8094.662611
8459.466322
10164.94505
6188.779848
6139.457113
1625.227794
1615.32964
1049.966518
1581.636414
4120.358611
6463.05797
4368.678844
5294.61258
4170.007965
1795.953099
5717.134255
4118.283898
7188.33796
7442.827275
6688.929178
5476.257725
6033.52415
1547.271176
1846.499877
1907.430043
923.9129494
1137.847119
1637.45925
1709.698385
1155.760232
1614.927894
2136.049027
6700.245376
6850.724922
6628.504469
6026.920801
6804.906059
6740.797355
6632.929865
4569.838846
5921.697484
5513.420991
6549.61471
6736.986644
4931.950042
5169.00787
5554.136157
6764.814921
5695.094494
4540.601879
4788.32769
5663.40094
3853.186583
5543.968414
2817.262291
4260.378832
5866.350989
6557.884177
6012.332485
7486.862257
4492.597046
4250.046935
6314.577744
4419.01288
6976.298101
7003.034823
4259.725575
4251.339509
4285.986382
4252.175849
7055.255519
4850.38932
2788.221625
2845.111201
7387.668296
7405.232714
6444.851112
7676.743657
7439.826492
7368.339809
7476.03574
7754.222529
6395.996702
3389.3021
3807.437994
2929.823916
3090.212115
5517.355924
7036.906032
6179.75012
4075.973462
7253.902576
7011.953157
6990.973247
5227.126169
7072.023192
6867.423076
3481.211302
3921.591043
6311.024865
1507.988535
1539.78369
786.2083176
860.9230267
1387.14083
1022.271861
744.5385247
766.7070351
1568.727047
1542.56825
958.5951034
1654.88275
1997.056671
1034.471891
1595.11795
1590.644448
4250.527856
2852.073139
2810.650114
3134.458601
3033.087892
4467.157011
6642.87951
6227.166951
4226.510943
6357.489088
6515.351132
6121.389863
6318.638046
4164.118519
6144.964305
6010.510476
7892.143292
5833.170159
1059.410326
1051.239493
1498.83469
1543.500404
1019.772535
1015.625202
1493.476873
1500.684568
1480.421372
1488.079404
991.1768645
991.8680953
1510.353181
1493.915414
990.4741284
990.6952334
1001.956867
1003.655471
1530.330764
1526.418028
998.9809086
1000.594243
7433.104954
4646.098548
4690.488481
4556.093873
4596.270633
7421.776369
7386.600199
5228.963766
6074.373469
4767.149604
4906.299543
7365.571296
984.8228817
1499.232749
1491.865555
1509.490943
1504.739842
985.3836099
978.0900869
1466.08225
1451.218137
1484.905201
1476.45605
982.049022
997.7680253
1540.689592
1533.734553
1551.00911
1544.151127
999.3139878
988.4278732
1518.714291
1514.64802
1529.624671
1523.391394
989.950019
1526.475878
1528.286008
722.0553146
996.405087
995.367771
999.3871418
998.6053405
725.0820891
1521.734936
1523.80186
1568.593011
1496.046474
781.6427151
1041.895393
1051.020442
1421.313395
1374.879226
852.3996626
732.9962793
1002.972957
1002.918975
1006.947462
1010.869748
740.8819285
1542.999014
1536.592579
7211.358532
7073.83132
7315.601299
5609.79867
6335.660231
4966.435001
7334.431742
7409.586704
7369.365008
7375.636086
5085.702857
3672.972427
6413.376205
5605.404365
7159.142991
7291.671262
4239.650133
1026.478079
746.2947164
747.5622096
735.1227679
737.0879245
1016.715141
1585.077691
1596.009122
1561.590806
1574.72227
1545.370754
1932.578838
1421.43305
865.3453059
943.3802815
770.5804606
790.6200017
1061.680091
1391.567816
1879.110352
1512.983495
1442.008616
1013.312541
1561.131806
1551.278833
1591.257994
1554.587702
1009.497966
1532.919912
1541.876218
1501.927124
1511.35479
6714.685326
5016.847821
5253.997699
4145.179383
4644.789464
6789.521951
6959.943324
6808.749362
5592.962609
6153.64787
7160.509653
6465.907129
5203.433756
5415.822788
4464.421062
4830.784215
6632.315196
1625.42233
1626.39781
1611.267589
1614.270789
1093.09344
1103.795943
786.9146989
1678.942592
1591.779644
1641.244066
1633.016419
1598.522143
1026.07262
1032.237601
1020.773095
1024.831521
1595.375441
1627.129648
1042.596039
1092.370124
1033.287991
1045.409353
1630.244286
6449.293872
779.986067
783.4288333
1105.774112
6342.6326
8414.11025
8568.656813
8699.717894
8491.112386
6888.337296
1662.653715
6993.491279
5402.300279
5746.433219
1061.067881
1644.931641
1632.03011
7084.178564
7596.06304
7409.572409
6203.392035
6707.074206
8060.773675
7718.370115
5363.868591
7316.613617
6471.866131
2013.846816
1631.486059
1112.26219
31.78109465
31.80107697
31.87447333
31.80936773
31.84423469
31.896027
31.85735984
31.90739702
31.92911798
31.92512514
31.98366507
31.96862248
31.99956559
32.03896866
32.00182638
32.04779723
32.056675
32.01216376
32.05168114
32.02420005
31.99764236
32.0111385
31.95981947
31.96104761
31.94353061
31.89061945
31.9237992
31.87654588
31.83554054
31.89392006
31.68522581
31.72759218
31.77951096
31.74577712
31.81800822
31.83181156
31.84710139
31.95386234
31.90901004
31.99301263
32.12377828
32.00048837
32.15061964
32.23019586
32.06494848
32.25757607
32.255332
32.08527106
32.23175732
32.17315549
32.04569291
32.14406718
32.03705591
31.96829512
32.00237919
31.90198108
31.88636439
31.87225503
31.79167775
31.82060685
31.61526071
31.69740788
31.71518987
31.73500059
31.88643749
31.82322064
31.95137093
32.18890737
31.98910483
32.27665993
32.56856652
32.18215737
32.64050377
32.85611737
32.33934332
32.93913277
32.91361796
32.34108151
32.81791766
32.65105447
32.24722105
32.57388946
32.31780618
32.08511041
32.23723039
32.02568714
31.92087017
31.96430232
31.81014675
31.78947989
31.57753678
31.73200124
31.69858786
31.80641638
32.12103409
31.92681218
32.26283161
32.83382462
32.29789741
33.07221084
34.02225853
32.74412875
34.28844702
35.02689605
33.24292711
35.33172737
35.17017335
33.16790186
34.75783808
34.05168446
32.87156299
33.78503682
33.06543564
32.4540001
32.85635823
32.36996301
32.09000122
32.23953976
31.93335688
31.82885093
31.58450338
31.86105295
31.75537984
31.99821947
32.61413273
32.21629097
32.91256889
34.31523735
33.09801387
35.02795382
38.85878659
34.57629748
40.53260863
48.11651004
36.49425527
48.91653273
45.37878927
36.13984078
42.52537702
38.12897898
34.67099852
37.03378493
34.768976
33.38299137
34.23172749
33.08786949
32.51587411
32.81206169
32.19987298
31.98310138
31.64133917
32.08568489
31.90786684
32.30916306
33.37848264
32.77870229
33.94330931
36.9705575
34.87289443
38.83171986
56.55501514
40.76508184
50.3476085
58.99310212
46.69840194
76.28076187
71.60579359
52.79824887
56.6243129
48.83716111
45.06132981
44.88207747
38.09880091
35.43522455
36.80621976
34.30854144
33.35621126
33.76693543
32.64683248
32.29361587
31.74273625
32.37729136
32.14978952
32.69822286
34.26697177
33.59172209
35.11730359
39.82384408
37.73865394
40.98854572
44.5977929
43.18847922
71.42540083
83.41351396
77.91353724
123.1425356
82.78461324
67.33000701
57.82525458
43.06329906
39.22224046
40.56244109
36.01981228
34.71584095
35.09235176
33.25261842
32.78489894
31.87852273
32.70129665
32.45774815
33.11154566
35.08097076
34.47952511
36.13060045
41.78541188
40.39422479
44.17682747
48.75972108
47.94537563
86.87662554
104.4906586
102.9681382
202.0528541
118.4542651
105.6997959
70.37954974
48.34084303
44.40792063
44.5931345
37.86674137
36.48751171
36.52570613
33.91896834
33.41772638
32.0345734
33.02423645
32.78261354
33.50717655
35.76520709
35.26338949
36.94051201
43.11212634
42.15119068
46.06777673
51.14158536
50.59228391
93.62313278
124.4059009
120.8773859
226.0533146
137.3936416
132.4722874
78.28310341
52.41784456
49.50501788
47.82939066
39.45661389
38.3140953
37.77064169
34.51724605
34.06755245
32.19896502
33.328231
33.10183223
33.86758064
36.33429375
35.91600554
37.59789891
44.17897834
43.37997119
47.49133809
53.10250429
52.53291732
104.0043774
141.5854438
138.4166589