/*--------------------------------*- C++ -*----------------------------------*\
| =========                 |                                                 |
| \\      /  F ield         | OpenFOAM: The Open Source CFD Toolbox           |
|  \\    /   O peration     | Version:  v1912                                 |
|   \\  /    A nd           | Website:  www.openfoam.com                      |
|    \\/     M anipulation  |                                                 |
\*---------------------------------------------------------------------------*/
FoamFile
{
    version     2.0;
    format      ascii;
    class       surfaceScalarField;
    location    "0.63";
    object      phi;
}
// * * * * * * * * * * * * * * * * * * * * * * * * * * * * * * * * * * * * * //

dimensions      [0 3 -1 0 0 0 0];
oriented        oriented;


internalField   nonuniform List<scalar> 
25162
(
0.0004469083252
0.9162030917
0.0005699016902
0.9165770066
0.0006983922752
0.9165215094
0.0003494653202
0.9165164752
0.0004824517396
0.4583350048
0.0003644605176
0.4582897476
0.0004678078896
-0.00045755547
-0.0005935367297
0.458256128
0.0006874087002
-0.000781025426
0.4581968154
0.000919210015
-0.001071102932
0.4581646673
0.001236435632
-0.00142251993
0.458137453
0.00162006697
-0.001817192181
0.4581431564
0.002009035818
-0.002190737151
0.4581909597
0.0023312775
-0.002429366881
0.4582842162
0.002478650692
-0.002475912954
0.4583898916
0.002421021341
-0.002320805717
0.4584755562
0.002175249505
-0.002009134929
0.4585132394
0.001830895558
-0.001638742368
0.4585135717
0.001460170661
-0.00128570867
0.4585095191
0.001091189536
-0.0009974360783
0.4584744683
0.0008729678225
-0.0007184531403
0.4584747658
0.0005936873483
-0.001589903576
0.9187296938
5.300276206e-05
-0.0005427929962
-0.001000144127
0.9187602406
3.410212274e-05
0.9158157538
0.9138341021
0.001228114471
0.9149749772
0.00198072116
0.9158244
0.002341096654
0.9161611339
0.0007865875758
0.916859971
0.001211013294
0.457980398
0.0009570646582
-0.458150875
-0.4581062495
-0.001196221364
0.4578059571
0.001496513805
-0.4579212892
-0.001868096
0.4574740146
0.001086663027
0.001228707651
-0.2288800882
-0.001321656447
0.2287636375
0.001438107148
-0.001931091277
-0.2287984755
0.2286439737
0.002085593118
-0.002699728722
-0.2287354848
0.2285410278
0.00289418578
-0.003577726106
-0.2287351411
0.22853065
0.003782217267
-0.00439116205
-0.2288332775
0.2287129176
0.004511444396
-0.004295908661
-0.2290452459
0.2288467784
0.004494505937
-0.005048957827
-0.2292659864
0.2292624386
0.005052505645
-0.004711316603
-0.2294116824
0.2295376992
0.004585299766
-0.004039136003
-0.2294871841
0.2296837836
0.003842536451
-0.003232067887
-0.2294874887
0.2297027603
0.003016796271
-0.002457928809
-0.2294377489
0.2296270265
0.002268651226
-0.4589519353
-0.003480484843
0.4604765556
0.001955864524
-0.0005718401675
0.4610547095
-0.001174403086
-0.4593084662
-0.001352259977
0.9184495036
0.0001889961896
0.001443454023
-0.0008446043977
0.918252585
0.0004180011102
0.9145531483
0.9142521032
0.001551013329
0.9134239639
0.004164911861
0.9132105014
0.007117749502
0.9132082963
0.003065930949
0.9143722604
0.006539529186
-0.4578443742
0.4575772582
0.003333047019
-0.4574977101
-0.003438861159
0.4579910105
0.002945560787
-0.4568641736
-0.003219305769
0.4563997601
0.001781758057
0.001901961165
-0.2281947204
-0.002216719041
0.227946763
0.002464676433
-0.2278785292
-0.003349389915
0.2275378715
0.003690047566
-0.2276858559
-0.004012583907
0.2315658404
0.000125209357
-0.2354451837
0.0131081038
0.2389688816
-0.01666443483
-0.2341619813
0.02427422588
0.2356486156
-0.02578401874
-0.2275851288
0.02735447368
0.227136462
-0.02690064863
-0.2220076692
0.02268627673
0.2197089534
-0.02035775951
-0.2235121387
0.01058898687
0.2194334048
-0.006480202276
-0.2305987173
-0.006707646752
0.2301372956
0.00717052568
-0.230622514
-0.005928230856
0.2310288497
0.005521895124
-0.0040969336
-0.2304843818
0.2312166124
0.003364702928
-0.4632279748
-0.0007640104764
0.4622228925
0.001769092783
-0.4602419242
-0.001770481198
0.4603464174
0.001665987994
0.0005751204153
0.9204901155
-0.001476000923
-0.001139731399
0.001839888975
0.9169878164
0.0008498609231
0.9155431763
0.9151019642
0.0005260599369
0.912897904
0.001193494526
0.9125430668
0.002553680938
0.9118481099
0.003431645423
0.9111168408
0.002377455079
-0.456713104
0.45616636
0.003978389371
-0.4593566417
-0.005341018966
0.4561148592
0.008582801491
-0.4576009152
-0.01008427298
0.4588553138
0.002730135129
0.006099739205
-0.2270342037
-0.002894871036
0.2267264647
0.00320261007
-0.2284544828
-0.002938155855
0.23312012
-0.001745653152
-0.2449406006
0.01460019326
0.2483830713
-0.01812288358
-0.2468552927
0.02564578623
0.2482323772
-0.02710518206
-0.2381364902
0.02885702237
0.2380490268
-0.02881069166
-0.2257926486
0.02784670635
0.2253692189
-0.0274081764
-0.2148151942
0.02579150967
0.2141004684
-0.02501023268
-0.2097569388
0.02098874893
0.2077564945
-0.01889516487
-0.2163606211
0.009981873039
0.2126552087
-0.006204930247
-0.2349077957
-0.002054345458
0.2374627071
-0.0004975029673
-0.004466747717
-0.2322856816
0.2323803737
0.004372055572
-0.4624204435
-0.006602886913
0.4638588143
0.005164516104
-0.4612114418
-0.003764343297
0.4623549486
0.002620836445
0.0034315566
0.9208281142
-0.001988086732
-0.001781468559
0.0023146771
0.9181046959
0.001059926254
0.9167979272
0.9161618904
7.526291539e-05
0.912822641
0.0002539263249
0.9123644034
0.0006915378807
0.9114104983
0.001438215372
0.9097969707
0.0005731926106
-0.4557787559
0.4548456638
0.002371307498
-0.4544785847
-0.002963189425
0.4536336009
0.003808173291
-0.4524345055
-0.004950009248
0.4513095146
0.003185918851
0.002889081324
-0.2270154517
-0.00524747236
0.2254940426
0.006767735067
-0.2452671096
-0.0002595255094
0.2501364443
-0.004707747764
-0.2544244681
0.01396565464
0.2549643489
-0.01464579219
-0.2476323509
0.01271347939
0.2457599869
-0.01094870245
-0.2343421002
0.00383774996
0.2318883224
-0.001426684824
-0.2242521487
-0.003483401953
0.2239540668
0.003799830767
-0.215473091
-0.001123020286
0.2173911201
-0.000714911777
-0.2065051237
0.006815997244
0.207902921
-0.00807802654
-0.2161359244
0.0194833915
0.2097000678
-0.01290642151
-0.2197321048
0.003090906655
0.2169893398
-0.0002700476822
-0.006259408469
-0.2340561408
0.2347160137
0.005599535626
-0.4657520946
-0.007513724201
0.4675747915
0.005691027364
-0.4634505468
-0.004347252169
0.4645821261
0.003215672827
0.004100960319
0.9230538746
-0.003513359625
-0.002813361054
0.00222685279
0.9199788035
0.0009983825126
0.9180263974
0.9171602729
-0.0003096386404
0.9131322797
-0.0004729917832
0.9125277566
-0.0002965404393
0.911234047
0.0002040630071
0.9092067192
8.964806301e-05
-0.4538680226
0.4534397637
0.0006323219734
-0.4529128429
-0.001739548027
0.4519508824
0.002701508541
-0.4501263905
-0.003515905844
0.4487641458
0.002436784632
0.002441365923
-0.2318480809
-0.001067393655
0.2336144498
-0.0007501962479
-0.2503917935
0.00415831193
0.2504998012
-0.00442423579
-0.2523989135
-0.000140063252
0.2485339984
0.003834954168
-0.2355013503
-0.01666075557
0.2343229924
0.01774325355
-0.2206327514
-0.0337342698
0.2167260496
0.03761991669
-0.2228557108
-0.04839745079
0.2223822292
0.04887446582
-0.2293176222
-0.03784892391
0.2336079618
0.03360370176
-0.2232843201
-0.0133825683
0.2252873296
0.01151511182
-0.2081591942
-0.005277336403
0.2102983992
0.003319683787
-0.2129441954
-0.00074903312
0.2129819342
0.0008564935936
-0.003986921592
-0.2343332042
0.2333513125
0.004988548931
-0.4691971767
-0.007468371972
0.4708232556
0.005842293135
-0.4653085791
-0.004649701215
0.4659689285
0.003989351776
0.003210016895
0.9255750515
-0.00272414371
-0.003007050064
0.001703462808
0.9214853576
0.0006863137895
0.9190435465
0.9178465867
-0.0008683417187
0.9140006214
-0.001566074288
0.9132254892
-0.002031731798
0.9116997045
-0.0004548572409
0.908967557
-0.001337712298
-0.4532544376
0.4528787888
-7.920844391e-05
-0.4507346773
-0.0002417596019
0.4502336889
0.0007427480288
-0.4480868181
-0.001897961015
0.4475501848
0.001258898572
0.001175166093
-0.23568506
0.0001291618667
0.2358759376
-0.0004154918741
-0.2498232088
-0.0009469924569
0.2458831645
0.004688845428
-0.2392031151
-0.0104665426
0.2361831289
0.01331610253
-0.2154586312
-0.02551589822
0.2090451886
0.03187220334
-0.2026313389
-0.05405207349
0.1024029941
0.09644527004
0.02676136009
0.03107378819
-0.03810279967
-0.108496799
0.1079358293
0.03866376941
-0.03079695692
-0.2537489065
0.05787950485
-0.03113042092
0.1285470076
0.1292497719
-0.03961364316
-0.2383503592
0.2445081738
0.03354417832
-0.2199638938
-0.01972024392
0.2247468862
0.01512769965
-0.2168175542
-0.005910178495
0.2183583062
0.004553054901
-0.003001348938
-0.2298256543
0.2296442397
0.003253110417
-0.4724185811
-0.005938658528
0.4734301898
0.004927049825
-0.467039251
-0.003663655649
0.4680561124
0.002646794254
0.001481060979
0.9272356219
-0.001390666337
-0.001750965137
0.000581778461
0.9223846401
0.0001647283529
0.9194605966
0.9180113151
-0.001476210735
0.9154768322
-0.002872154921
0.9146214334
-0.004022653105
0.9128502027
-0.002135895166
0.9099596313
-0.002878832314
-0.4528705267
0.4528860438
-0.00215141219
-0.4499898883
0.002213940211
0.4498756008
-0.002099652702
-0.4463917739
0.001900480208
0.4463645632
-0.0007257061186
-0.001157633168
-0.2342907017
-0.000546292138
0.2332315704
0.001486525844
-0.2402533237
-0.005805234378
0.2383835069
0.007466952317
-0.2275178934
-0.01339505986
0.2252671609
0.01548107835
-0.1979526156
-0.02131744363
0.1962563377
0.02299428091
-0.08623453301
-0.01459203212
0.08583766623
0.0149888989
-0.03691310758
-0.1439869484
0.1471264398
0.0337736162
-0.04086648173
-0.263216819
0.2683722866
0.03575702675
-0.2359146341
-0.02368374215
0.2394649492
0.02031496007
-0.2251280869
-0.01169513485
0.2277098619
0.009317866092
-0.002601691845
-0.231294417
0.2320157028
0.001981856867
-0.4747452071
-0.002893474474
0.4757567118
0.001881969829
-0.4688210308
-0.001201659126
0.469408489
0.0006142008815
-0.001138053342
0.927762942
0.0006607842384
-5.005098599e-05
-0.001016942062
0.9222635288
-0.0005706637135
0.9190143182
0.9174406514
-0.002094522244
0.9175713544
-0.004107839171
0.9166347503
-0.006178448901
0.9149208124
-0.003660865563
0.9118550659
-0.004413017847
-0.4532038708
0.4535129453
-0.003969940034
-0.4500098396
0.004328032422
0.4503536688
-0.004671861633
-0.4463490322
0.005015620554
0.4466620066
-0.002519100308
-0.002831870416
-0.230627181
0.00191433875
0.2296104661
-0.00102884197
-0.2323463963
-0.003066270013
0.2305014878
0.004697114378
-0.2197967721
-0.009259469415
0.2185132115
0.01038291793
-0.1956686298
-0.0114287207
0.1963826364
0.01070613516
-0.08977998443
-0.002946187567
0.09058930488
0.002136867127
-0.01623346856
-0.1602432446
0.1606250236
0.01585168957
-0.02429061955
-0.2792697643
0.2809963224
0.02258984688
-0.2490435933
-0.01654037659
0.2514276136
0.01433121145
-0.2349183743
-0.0077081105
0.2370528099
0.005786726482
-0.001293712548
-0.2351227329
0.2361322779
0.0003996397413
-0.4769135875
0.001207070341
0.4777267585
-0.002020241425
-0.4696131881
0.002309323962
0.4696280417
-0.002324177589
-0.004240206995
0.9266304887
0.003009836482
0.002362823884
-0.002929018223
0.92095234
-0.001502590518
0.9175878905
0.9159380608
-0.002675934138
0.9202472886
-0.00547084019
0.9194296564
-0.008223779085
0.9176737513
-0.005191015164
0.9147737414
-0.005951439489
-0.4541310903
0.4547484921
-0.005808416992
-0.4508592528
0.006521873445
0.4516688902
-0.007331510913
-0.4471633055
0.008157366884
0.4479668983
-0.004263004571
-0.004731681517
-0.2266837507
0.003783039931
0.2257631332
-0.003001461693
-0.2254890024
-0.000470790956
0.2239714937
0.001769951617
-0.2156707612
-0.004965226079
0.2149602767
0.005517612039
-0.1995328351
-0.004732798301
0.2007278378
0.003532944659
-0.09503882653
0.0005801262324
0.09554802216
-0.0005238775839
-0.0005654442642
0.0029973732
-0.156789821
0.1556235124
-0.001831064535
-0.004843211211
-0.280732869
0.2793490947
0.006254445558
-0.2558992769
-0.006721894015
0.2567922642
0.006004458841
-0.2426751436
-0.002556195896
0.2441801151
0.001264666346
0.001958267341
-0.2391421246
0.2399568687
-0.002657793447
-0.4774526536
0.006516466553
0.4766179063
-0.005681719335
-0.469213331
0.005246263499
0.4692622552
-0.005295187691
-0.007571063405
0.9238243795
0.005577668551
0.004799504019
-0.004952224362
0.918333501
-0.00248743429
0.9151231005
0.9134506266
-0.003325670461
0.923572959
-0.006663448578
0.9227674345
-0.0101896504
0.9211999532
-0.006650593379
0.9185817561
-0.007347071742
-0.4556483757
0.4565473239
-0.007549541606
-0.4526217138
0.008635624723
0.4537013453
-0.00971525633
-0.44909814
0.01095998812
0.4504117798
-0.006025680897
-0.00629786978
-0.223108378
0.005363276453
0.222243266
-0.004646255421
-0.219749229
0.001570909052
0.21843073
-0.0004754677202
-0.2133329539
-0.001901509787
0.2129268214
0.002152201291
-0.2044720595
-0.0005754623002
0.2057488488
-0.0007031511891
-0.09856991843
0.002377936024
0.09893248556
-0.001355500062
-0.00138500309
0.01293402809
-0.1458829141
0.1443889417
-0.01144005566
0.008778607918
-0.2729268859
0.2703653944
-0.006170144998
-0.2579376284
0.002621123428
0.2580365654
-0.002540246539
-0.2477631732
0.003914012866
0.2486110579
-0.004551275207
0.006174188091
-0.2417907401
0.242136983
-0.006418546234
-0.4753538354
0.01140710729
0.4737229013
-0.009776173275
-0.4691196495
0.008339012124
0.467824056
-0.007043418608
-0.01060721067
0.9196246526
0.007683652544
0.007123284993
-0.006873632535
0.9145999229
-0.003377708079
0.911627176
0.9100729185
-0.003903661505
0.9274766206
-0.007860065155
0.9267238381
-0.01201102565
0.9253509136
-0.007933414539
0.9228724407
-0.008368295614
-0.4576946187
0.4588116957
-0.009050491569
-0.455035164
0.01035068405
0.4564540257
-0.0117695457
-0.4515875569
0.01333340227
0.4529585101
-0.007182213252
-0.007591802929
-0.2196467167
0.006439090541
0.2187648183
-0.005715002112
-0.2146708871
0.002786878902
0.2134696453
-0.001813040098
-0.2120379904
-6.266624547e-05
0.2118441181
0.0001049180658
-0.2096982211
0.002137688857
0.2110712519
-0.003510882183
-0.1013318135
0.003832407893
0.10168245
-0.002072171654
-0.002110872739
0.01605703282
-0.1344239653
0.1330183586
-0.01465142612
0.01558676079
-0.2631997908
0.2611763037
-0.01348519831
-0.2575939683
0.00979436292
0.2579006866
-0.009907503969
-0.2502137422
0.01030505345
0.2504344628
-0.01032517871
0.009906496145
-0.2419430059
0.2415382926
-0.009423089665
-0.4717959186
0.01528988435
0.4696034105
-0.01309737619
-0.4664309213
0.01118567943
0.4647763694
-0.00953112755
-0.01324206898
0.915930406
0.008752759415
0.008183556279
-0.008515565123
0.909873419
-0.004141065136
0.907252676
0.9059318534
-0.008104842288
0.9355814628
-0.01641724986
0.9350362457
-0.02489313522
0.933826799
-0.009206517597
0.9318961183
-0.02471029522
-0.460180761
0.4615391727
-0.01056492926
-0.4579345268
0.01207048724
0.4596211544
-0.01375711485
-0.4534598028
0.01548311319
0.453104322
-0.007517406711
-0.007725543323
-0.2161568513
0.006127427317
0.2149527115
-0.005092159822
-0.209940486
0.002723405027
0.2089614037
-0.001974292817
-0.2115418983
0.0009666281575
0.2110560292
-0.0006297541528
-0.2153374855
0.003512525322
0.2167840509
-0.002473425971
-0.002485664789
-0.05233655728
0.002525542442
0.05244972186
-0.002638707023
-0.05824558132
0.006004889129
0.05778557115
-0.01167794522
0.006133066264
0.01404680622
-0.1248280899
0.245906071
-0.02390965761
0.01357374069
-0.1247888704
-0.2564249112
0.01790618796
0.2556233195
-0.01699152369
-0.2574447365
0.0149915583
0.2572633278
-0.01459960765
-0.2508497622
0.01409133114
0.25075401
-0.01380879217
0.01208852775
-0.2390576796
0.2381156015
-0.01110360316
-0.4670841472
0.01774954616
0.4645721648
-0.01523756365
-0.4630601248
0.01324618327
0.4612301452
-0.01141620359
-0.01525137153
0.9109889185
0.01033437115
0.009858487976
-0.009811686928
0.9044337345
-0.004820934092
0.9022619233
0.9011109193
-0.004604548516
0.9401860114
-0.009338675205
0.9397703724
-0.01433939953
0.9388275234
-0.009775346456
0.9373243088
-0.009992243557
-0.4649488001
0.4663835591
-0.01121010548
-0.4630977721
0.0128071434
0.4648186486
-0.01452801991
-0.4537362752
0.01640458627
0.4559874673
-0.009135796462
-0.00965432063
-0.2116883678
0.008941390738
0.2110347134
-0.008465814998
-0.2054028133
0.006083265459
0.204272939
-0.005185579518
-0.21193452
0.003101507767
0.2114884367
-0.002794450873
-0.2214404756
0.003619155207
0.2227733698
-0.002498366424
-0.002453682951
-0.05491488725
0.004787859725
0.110232015
-0.05491032552
-0.002611169193
-0.002583492759
-0.1123758022
0.007776475657
0.1121655129
-0.01510503408
0.007538847734
0.0228694295
-0.2387030711
0.2372818182
-0.02144325959
-0.2535956766
0.01647439461
0.2537211951
-0.01645268893
-0.2571345301
0.01672820004
0.2596572608
-0.01903937208
-0.2499608249
0.01826575446
0.2482218474
-0.01637463766
0.0125658354
-0.2339057774
0.2327340484
-0.01138777251
-0.4623177972
0.01862404655
0.4602718893
-0.01657813862
-0.4593878533
0.01461785621
0.4573080551
-0.01253805796
-0.01485404001
0.9052007573
0.01025895785
0.01038324332
-0.01060848459
0.9001881791
-0.005192409246
0.8968458479
0.8959185101
-0.004795189284
0.9449812007
-0.009715405717
0.9446905889
-0.01488809009
0.9440002078
-0.01015929662
0.9428902461
-0.01029473082
-0.4679101528
0.4694231476
-0.01167229141
-0.4665524274
0.01330609991
0.4682855528
-0.01503922528
-0.4599608038
0.01689618798
0.464918666
-0.01090526442
-0.01099897607
-0.210899798
0.01359892807
0.2116463765
-0.01449617286
-0.2015551805
0.01535225224
0.201056389
-0.01507495022
-0.2086294158
0.01290604101
0.2073829832
-0.01182273614
-0.2235132199
0.007663715379
0.2218272326
-0.006012558709
-0.1132203894
0.007086649757
0.2267683731
-0.007389288198
-0.1132453452
-0.226131734
0.01435685838
0.2266373581
-0.01486248253
-0.2387819352
0.01866374796
0.2405608246
-0.02038582557
-0.2558926605
0.023452784
0.2564848876
-0.02386784294
-0.2591115266
0.02355594849
0.2587338557
-0.022964113
-0.2443100996
0.01979849275
0.2444213582
-0.01979728339
0.01350653991
-0.2313618275
0.2289131578
-0.01105787027
-0.4584368685
0.02016589935
0.4549587609
-0.01668779177
-0.4552209069
0.01488155778
0.4528931
-0.01255375081
-0.01525023035
0.899563462
0.01051272065
0.01037480507
-0.01068234348
0.8956202922
-0.005409875653
0.8915733801
0.8905086344
-0.004865507279
0.949846708
-0.009842459704
0.9496675413
-0.01503964526
0.9491973933
-0.01027580472
0.948433687
-0.01030728138
-0.4709345081
0.4724468552
-0.01178815182
-0.4699961525
0.01339384277
0.4716762031
-0.01507389338
-0.4689457987
0.01684802789
0.4708832639
-0.009447764535
-0.009337869555
-0.2168957679
0.01567899953
0.219744799
-0.01861936764
-0.2018171033
0.02540909474
0.2030852216
-0.02685981463
-0.2042941453
0.02860726507
0.2038882604
-0.0283743063
-0.2167336223
0.02583084734
0.2154314102
-0.02462496348
-0.2237321749
0.02171967358
0.2215495909
-0.01956271318
-0.2323807827
0.02474523362
0.2341642719
-0.02650461425
-0.2462784995
0.0318026978
0.2477471926
-0.03317179809
-0.2576872664
0.0348057603
0.2574801244
-0.0344254701
-0.2555784711
0.03057075707
0.2536612131
-0.02848425546
-0.2379350124
0.02050784116
0.2349353442
-0.01744764622
0.01275464831
-0.2267069275
0.2260253273
-0.01207304815
-0.4539058545
0.02024946608
0.4509226838
-0.01726629543
-0.4497691547
0.01358699351
0.4479352631
-0.01175310196
-0.01436660968
0.8925440628
0.0109415342
0.0104444747
-0.008245196999
0.8894988796
-0.005446796591
0.8887749797
0.8850618379
-0.004829700664
0.9546764086
-0.009753441748
0.9545912824
-0.01485826903
0.9543022206
-0.01016176665
0.953823871
-0.01008668637
-0.4739144961
0.475371878
-0.01161914859
-0.4733080356
0.01314855111
0.4748881409
-0.01472865636
-0.4726862643
0.01637458314
0.4744031562
-0.009094538135
-0.00899693688
-0.2315554202
0.01007030951
0.2355430152
-0.01407006972
-0.2106747016
0.0277842317
0.2145053918
-0.03172483902
-0.2058938904
0.04082927138
0.2078229807
-0.0428961004
-0.2139909619
0.04654068427
0.2145151733
-0.0471662708
-0.2129284137
0.04552568565
0.2101569596
-0.04279066012
-0.2373644071
0.04895789247
0.2376878035
-0.04924734584
-0.2493343692
0.04899587826
0.2487110324
-0.04827174271
-0.2537726035
0.04349699508
0.2513726683
-0.04096302268
-0.2448786078
0.03086104229
0.2409475671
-0.02683589958
-0.2252232884
0.01423826081
0.2244424758
-0.01345690659
0.01173994896
-0.2241968049
0.2236367345
-0.01117987852
-0.4469662181
0.01900563135
0.4450079615
-0.01704737473
-0.4461503221
0.01518322851
0.4443556824
-0.01338858882
-0.01341456524
0.8847298541
0.01147935435
0.00974941959
-0.0077724471
0.8838567614
-0.00504486102
0.8860473937
0.8800169768
-0.004708380901
0.9593847896
-0.00949133793
0.9593742395
-0.01441138043
0.9592222631
-0.009852396879
0.9589603634
-0.009695475961
-0.4767675898
0.4781398361
-0.0112246432
-0.476403695
0.01264865031
0.4778559501
-0.0141009054
-0.4760269539
0.01559142862
0.477555268
-0.008624009858
-0.008495732914
-0.2376176443
0.009418072395
0.2380199259
-0.009820353949
-0.2293300755
0.01367014723
0.2350568259
-0.01941656057
-0.2174436324
0.03498034644
0.2217540986
-0.03935820949
-0.2191051119
0.04968561398
0.2214245829
-0.05206791594
-0.2071816035
0.05140648394
0.2083624716
-0.05261008728
-0.2366472916
0.05652397369
0.2357411535
-0.05558918398
-0.2435033656
0.05007604453
0.2408056424
-0.04731210818
-0.2408803548
0.03633129562
0.2365030536
-0.03189144971
-0.2267718797
0.01699484998
0.2235244272
-0.01374052608
-0.2229146628
0.01242458349
0.2224703017
-0.01198022242
0.01063315926
-0.2221444207
0.2216918467
-0.01018058521
-0.4431952237
0.01753056814
0.4415203699
-0.01585571438
-0.4426962636
0.01422641833
0.4410939702
-0.01262412495
-0.01605625162
0.8789402206
0.01078293029
0.01106295487
-0.01054626712
0.878346777
-0.00242170795
0.8779228345
0.8775952689
-0.004521202073
0.9639059916
-0.009096952026
0.9639499894
-0.01376608759
0.9638913987
-0.009398011835
0.9637780556
-0.009185767932
-0.4794424128
0.4807142263
-0.01066982538
-0.479236514
0.01197468966
0.4805500701
-0.01328824574
-0.4789890169
0.01461760175
0.4803323033
-0.008053355268
-0.007907532928
-0.2391306272
0.00873702069
0.2394712088
-0.00907760227
-0.2382669337
0.01009035308
0.2385987606
-0.01042218005
-0.2364190687
0.01138895106
0.2372179097
-0.01218872122
-0.2296277052
0.02293764735
0.2326325776
-0.0259554558
-0.2151684734
0.03031183859
0.2174988721
-0.0326480073
-0.2319808036
0.03305432799
0.2305624369
-0.03162591464
-0.230948797
0.02399281693
0.2274422158
-0.02047426976
-0.2241117403
0.01323631845
0.2238895612
-0.01301413943
-0.2224763596
0.01222092518
0.2221765549
-0.01192112045
-0.2212969454
0.01094455375
0.2209522436
-0.01059985195
0.009531757218
-0.2204898101
0.2201211913
-0.009163138347
-0.4399761072
0.01594692223
0.438554615
-0.01452543003
-0.4396259184
0.01311515677
0.4382147396
-0.01170397797
-0.01501303828
0.8736682549
0.009977707185
0.01030729679
-0.009908035345
0.873241774
-0.004919121877
0.8729339211
0.872676147
-0.004287401467
0.9681933931
-0.008610780654
0.9682733686
-0.01298810268
0.9682687207
-0.008848719516
0.9682432121
-0.008604539653
-0.4819126015
0.4830781541
-0.01001427211
-0.4817912811
0.01119676611
0.4829669058
-0.01237239079
-0.4815851112
0.01354539081
0.4827521138
-0.007422296541
-0.007290096839
-0.2404094037
0.008017945123
0.2406970928
-0.008305634207
-0.2394951731
0.009143454015
0.2397642387
-0.009412519643
-0.2380586503
0.01018581441
0.2383063429
-0.01043350693
-0.2345455428
0.01100050181
0.234481788
-0.01093674707
-0.2214997181
0.01098279904
0.2222175547
-0.01170063562
-0.2288260382
0.01203378719
0.2288335816
-0.01204133057
-0.2258676855
0.0118942687
0.2257724825
-0.0117990657
-0.2233066654
0.01139513355
0.2231357644
-0.0112242326
-0.221388285
0.01061552312
0.2211570216
-0.01038425969
-0.2200334044
0.009622173176
0.2197606432
-0.009349411924
0.008490111875
-0.2191441556
0.2188402116
-0.008186167853
-0.4372454708
0.01437436553
0.4360398111
-0.01316870578
-0.4369284017
0.01195290044
0.4356930068
-0.01071750563
-0.01385782126
0.8689192644
0.009131502539
0.009475309197
-0.009185693923
0.8685696467
-0.004571905304
0.8683201324
0.8681042417
-0.004024839706
0.9722182328
-0.008069621586
0.9723181505
-0.01213512519
0.9723342243
-0.008246396685
0.9723442181
-0.007989734489
-0.4841690352
0.485230697
-0.009308058438
-0.4840737855
0.01037243067
0.4851198286
-0.01141847374
-0.4838383128
0.01244942602
0.4848489474
-0.00678579355
-0.006674267089
-0.2414892976
0.007305533163
0.2417325231
-0.007548758647
-0.2404940538
0.008245025147
0.2407142334
-0.008465204682
-0.2389660947
0.009090514774
0.2391618372
-0.009286257337
-0.2342135933
0.009668249302
0.2341034113
-0.009558067317
-0.2240506919
0.00977498273
0.224567278
-0.01029156884
-0.2288266153
0.01043910691
0.228815752
-0.01042824358
-0.2255098868
0.01028398582
0.2254286245
-0.01020272356
-0.2226786181
0.009873057514
0.222541963
-0.009736402393
-0.2205397138
0.009252810928
0.2203559236
-0.009069020752
-0.2190264632
0.008459541201
0.2188063911
-0.008239469071
0.007538146312
-0.2180378124
0.2177859359
-0.007286269807
-0.4349274422
0.01288608592
0.4338994896
-0.01185813336
-0.4345704336
0.0108093194
0.4334911931
-0.009730078892
-0.01267014319
0.8646690844
0.008290076441
0.008630246749
-0.008429792009
0.8643292955
-0.004204744683
0.8640950851
0.863899497
-0.003747769633
0.9759660025
-0.007502258931
0.9760726398
-0.01125141695
0.9760833823
-0.007625121914
0.976087684
-0.00736976099
-0.4862166807
0.4871781636
-0.008586604887
-0.4861027203
0.009540379682
0.4870305611
-0.01046822055
-0.4857889511
0.01137285871
0.4866627166
-0.006169657186
-0.006076967043
-0.2424031903
0.00662377961
0.2426095837
-0.006830173006
-0.2413151109
0.007413153432
0.2414975553
-0.007595597828
-0.2396879317
0.008109804254
0.239845124
-0.00826699647
-0.2337306347
0.008517200294
0.2335962972
-0.008382862797
-0.2258692421
0.008707913179
0.2262290855
-0.009067756604
-0.2287641331
0.009114931196
0.2287417358
-0.009092533869
-0.2251998962
0.008949224255
0.2251280275
-0.008877355575
-0.2221702088
0.00859872919
0.222057336
-0.008485856394
-0.2198589254
0.008090410848
0.2197091367
-0.007940622189
-0.2182086838
0.007442666028
0.2180279575
-0.00726193969
0.00668152759
-0.2171211168
0.2169105943
-0.006471005004
-0.432948571
0.01150815406
0.4320684905
-0.01062807353
-0.432511853
0.00972111202
0.4315687289
-0.008777987947
-0.01150184281
0.8608808148
0.007483727442
0.007806384943
-0.007676743535
0.8605041962
-0.003836311246
0.8602546528
0.8600631858
-0.003468727827
0.9794347303
-0.006933694825
0.9795376068
-0.01037385959
0.9795235471
-0.007012004099
0.9794912453
-0.006765416748
-0.4880658952
0.4889339726
-0.007880081495
-0.4879020062
0.008733333494
0.4887246776
-0.009556004932
-0.4874773799
0.01035136663
0.4882376185
-0.005598824325
-0.005512780915
-0.2431797961
0.005990712956
0.2433557061
-0.006166622933
-0.2419990315
0.006659312344
0.2421524137
-0.006812694508
-0.2402698895
0.007242320128
0.2403973257
-0.00736975629
-0.2331779296
0.007522446009
0.2330365594
-0.007381075789
-0.2271211759
0.007769872125
0.2273639453
-0.008012641577
-0.2286628318
0.008003441915
0.2286333426
-0.007973952706
-0.224923432
0.007832429105
0.2248585528
-0.007767549932
-0.2217460688
0.007525905379
0.2216503816
-0.007430218272
-0.2192995135
0.007098937411
0.2191747494
-0.00697417328
-0.2175329434
0.00655949807
0.2173820599
-0.006408614642
0.005921534348
-0.2163527355
0.2161747546
-0.00574355346
-0.4312523685
0.0102583063
0.4304949957
-0.009500933477
-0.430713161
0.008713681871
0.4298875009
-0.007888021837
-0.01039068208
0.8575108438
0.006730731119
0.007029921965
-0.006953516383
0.8570670305
-0.003480542797
0.8567816793
0.856582643
-0.003196323978
0.9826310543
-0.006380879157
0.982722162
-0.009526767488
0.9826694354
-0.006423161911
0.9825785243
-0.006190884602
-0.4897317208
0.490514172
-0.007205613065
-0.4894974281
0.007968671357
0.4902273056
-0.008698548838
-0.4889475995
0.009398499441
0.4896112167
-0.005071791976
-0.004990324692
-0.2438433151
0.005411602395
0.243994381
-0.005562668369
-0.2425770455
0.005983645243
0.2427078914
-0.006114491187
-0.2407426127
0.006477891093
0.2408464364
-0.006581714805
-0.2326177984
0.006662362456
0.2324821864
-0.006526750418
-0.2279594728
0.006943841848
0.2281201913
-0.007104560327
-0.2285376282
0.007062025136
0.2285037526
-0.007028149538
-0.2246725639
0.006889334154
0.2246132145
-0.006829984726
-0.2213837503
0.006616425846
0.2213009749
-0.006533650442
-0.2188304037
0.00625063082
0.2187245733
-0.006144800421
-0.2169658043
0.005793796452
0.2168380107
-0.005666002868
0.005252116867
-0.2157013466
0.2155492924
-0.005100062668
-0.4297906025
0.009138202456
0.4291349682
-0.008482568156
-0.4291382955
0.007796292851
0.4284135959
-0.007071593272
-0.009357597161
0.8545143623
0.006040973914
0.006313104651
-0.006275882579
0.8539853159
-0.003145733214
0.8536515299
0.8534369098
-0.002937062002
0.9855681163
-0.005856471176
0.9856415712
-0.00872788436
0.9855408486
-0.005869808697
0.9853765441
-0.005656095464
-0.4912307228
0.4919357727
-0.006574858645
-0.4909133526
0.007257746072
0.4915620326
-0.007906426096
-0.4902321942
0.008524013673
0.4908138205
-0.00458973111
-0.004515908847
-0.2444146001
0.004885977633
0.2445453584
-0.005016735935
-0.2430723571
0.005380369601
0.2431853552
-0.005493367689
-0.2411279551
0.005803426331
0.2412126466
-0.005888117849
-0.2320946054
0.005916771084
0.2319730977
-0.005795263298
-0.228512377
0.006214860556
0.2286178754
-0.006320358943
-0.2283977474
0.00625713798
0.2283612351
-0.006220625645
-0.2244423016
0.006085219414
0.2243875218
-0.006030439644
-0.2210685113
0.005839085701
0.2209957907
-0.005766365115
-0.2184303288
0.005520812949
0.2183392272
-0.005429711364
-0.2164833649
0.005128584323
0.2163738193
-0.005019038696
0.004663614414
-0.2151435183
0.2150124598
-0.004532555909
-0.4285233353
0.008143993406
0.4279523203
-0.007572978388
-0.4277554969
0.006971972218
0.4271173584
-0.006333833759
-0.008414735208
0.8518477552
0.005419138703
0.005662203572
-0.005653624929
0.8512242056
-0.002837187734
0.8508350927
0.8505997221
-0.002694766927
0.9882628832
-0.005367735456
0.9883145397
-0.007986887274
0.9881600004
-0.00535884846
0.9879130763
-0.005164570973
-0.492579908