/*--------------------------------*- C++ -*----------------------------------*\
| =========                 |                                                 |
| \\      /  F ield         | OpenFOAM: The Open Source CFD Toolbox           |
|  \\    /   O peration     | Version:  v1912                                 |
|   \\  /    A nd           | Website:  www.openfoam.com                      |
|    \\/     M anipulation  |                                                 |
\*---------------------------------------------------------------------------*/
FoamFile
{
    version     2.0;
    format      ascii;
    class       surfaceScalarField;
    location    "2.81";
    object      meshPhi;
}
// * * * * * * * * * * * * * * * * * * * * * * * * * * * * * * * * * * * * * //

dimensions      [0 3 -1 0 0 0 0];
oriented        oriented;


internalField   nonuniform List<scalar> 
25162
(
0
0
0
0
0
0
0
0
0
0
0
0
0
0
0
0
0
0
0
0
0
0
0
0
0
0
0
0
0
0
0
0
0
0
0
0
0
0
0
0
0
0
0
0
0
0
0
0
0
0
0
0
0
0
0
0
0
0
0
0
0
0
0
0
0
0
0
0
0
0
0
0
0
0
0
0
0
0
0
0
0
0
0
0
0
0
0
0
0
0
0
0
0
0
0
0
0
0
0
0
0
0
0
0
-2.704992757e-09
8.525909642e-09
-9.549157177e-08
0
5.537377636e-09
8.119397851e-08
0
0
0
0
0
0
0
0
0
0
0
0
0
0
0
0
0
0
0
0
0
0
0
0
0
0
0
0
0
0
0
0
0
0
0
0
0
0
0
0
0
0
0
0
0
0
0
0
0
0
0
0
0
0
0
0
0
0
0
0
0
0
0
0
0
0
1.270735821e-08
-8.918721186e-08
-1.13130338e-06
5.608508463e-07
4.309503607e-06
-5.060046474e-06
-9.750371581e-06
7.174993638e-06
5.601417908e-06
-1.346964157e-05
-9.537885772e-06
1.517558676e-05
-8.751357531e-07
-1.790202677e-05
1.66810647e-06
1.782472961e-05
-6.111231387e-06
-1.451016723e-05
1.119144669e-05
1.253452943e-05
-2.892894459e-06
-5.563585553e-06
8.022155278e-06
3.437688893e-06
0
-9.676793784e-08
1.775719541e-07
0
0
0
0
0
0
0
0
0
0
0
0
0
0
0
0
0
0
0
0
0
0
0
0
0
0
0
0
0
0
0
0
0
0
0
0
0
0
0
0
0
0
0
0
0
0
0
0
0
0
0
6.077892869e-07
-8.453083393e-08
-3.00160823e-06
6.122268688e-07
1.978280718e-05
-5.117779408e-06
-2.99234603e-05
7.224034778e-06
3.528290795e-05
-1.453656007e-05
-4.551192308e-05
1.717698982e-05
2.421663789e-05
-2.495669905e-05
-2.920906387e-05
2.725782446e-05
-6.550795862e-06
-3.214469988e-05
9.091138733e-06
3.28620123e-05
-3.445966263e-05
-3.15177446e-05
4.425690411e-05
2.982831829e-05
-3.744132352e-05
-2.144403651e-05
5.104828458e-05
1.788209322e-05
-1.455170759e-05
-7.248970916e-06
2.470604538e-05
4.390746898e-06
0
-7.903453677e-08
4.807377249e-07
0
0
0
0
0
0
0
0
0
0
0
0
0
0
0
0
0
0
0
0
0
0
0
0
0
0
0
0
0
0
0
0
0
0
0
0
0
0
0
0
0
0
0
0
0
-2.02817786e-07
-1.014429468e-08
2.230412749e-05
1.421904701e-06
-3.135627226e-05
-2.278158283e-06
6.557194394e-05
5.543492362e-06
-7.781286134e-05
-6.75638963e-06
7.611451956e-05
8.558658781e-06
-8.535606499e-05
-8.336370363e-06
4.184094089e-05
5.694852591e-06
-4.498500902e-05
-4.436249064e-06
-1.836507245e-05
4.576646748e-07
2.142138016e-05
8.537787471e-07
-7.526714989e-05
-4.499752707e-06
8.482410943e-05
5.422283118e-06
-9.752436132e-05
-6.137171745e-06
0.0001132619388
5.794343057e-06
-6.873133321e-05
-1.292038808e-06
8.610374809e-05
1.446556153e-06
-1.51446086e-05
-3.146863569e-07
2.41412702e-05
2.700221897e-08
0
0
0
0
0
0
0
0
0
0
0
0
0
0
0
0
0
0
0
0
0
0
0
0
0
0
0
0
0
0
0
0
0
0
0
0
0
0
0
0
0
0
5.881227651e-06
6.146890957e-07
-9.393939986e-06
-2.696844838e-06
6.309871009e-05
1.753561763e-05
-7.287344278e-05
-2.469842416e-05
0.0001144370669
4.950701214e-05
-0.0001236928418
-5.765293971e-05
0.0001100838221
7.111793028e-05
-0.0001173399645
-7.237731769e-05
5.144354608e-05
7.28520981e-05
-5.334396195e-05
-7.210598741e-05
-2.757335936e-05
7.130598069e-05
2.81071407e-05
-7.102055988e-05
-0.0001070345016
6.904644662e-05
0.0001103337017
-6.652205133e-05
-0.0001612264688
6.053140658e-05
0.0001699073837
-5.275281544e-05
-0.0001368500624
3.366022239e-05
0.0001526223625
-2.835055004e-05
-5.779070474e-05
1.363294477e-05
6.971531185e-05
-9.424966753e-06
7.65254655e-07
-1.464003617e-06
2.592083295e-06
-1.301176936e-08
0
0
0
0
0
0
0
0
0
0
0
0
0
0
0
0
0
0
0
0
0
0
0
0
0
0
0
0
0
0
0
0
0
0
0
-1.787742086e-07
-8.460110039e-10
-3.566793974e-08
2.055722572e-05
5.618726774e-06
-2.452502579e-05
-1.279664728e-05
9.5757446e-05
4.845701491e-05
-0.0001027064187
-6.291649962e-05
0.0001461084666
0.0001073972714
-0.0001514135774
-0.0001196397116
0.0001299203128
0.0001443896168
-0.0001313035593
-0.0001485005008
5.84641766e-05
0.0001520264983
-3.162650604e-05
-3.199798521e-05
-6.981346371e-05
-7.705271997e-05
6.902486413e-05
-1.164713781e-05
1.171505041e-05
-6.909277673e-05
7.287262392e-05
-0.0001174630035
-0.00015111582
7.912165118e-05
5.970839294e-05
5.68761554e-05
0.0001380402434
-0.0001869349742
0.0001904991418
-0.0001312633662
-0.000190767935
0.0001019451894
0.0001984704007
-8.82215047e-05
-0.0001021460633
4.613280558e-05
0.0001130122379
-3.421295344e-05
7.184313016e-06
-1.211912661e-05
1.585808903e-05
-2.333866918e-06
0
0
0
0
0
0
0
0
0
0
0
0
0
0
0
0
0
0
0
0
0
0
0
0
0
0
0
0
0
0
0
0
0
7.488320172e-07
0
-1.602835204e-06
-4.065912364e-07
-6.752025846e-07
3.252620408e-05
1.330716475e-05
-3.347742971e-05
-2.607703103e-05
0.0001159484254
8.280972975e-05
-0.0001175727274
-0.0001050856192
0.0001619048962
0.000169255591
-0.0001629912709
-0.0001868807438
0.0001348701555
0.0002184566616
-0.0001351343299
-0.0002203719551
3.100914343e-05
0.0001094239118
-3.123638524e-05
-0.00010919667
0.0001083089355
-5.424632361e-05
5.407843895e-05
-0.0001081410508
0.0002177149697
-0.0001943902071
0.0001947166442
-0.0002123692626
-0.0002197190066
0.0001730676545
0.0002228169085
-0.0001540807043
-0.0001358315305
8.966665586e-05
0.0001395024102
-6.865102085e-05
1.855869632e-05
-2.472890268e-05
2.866962141e-05
-8.20704157e-06
0
0
0
0
0
0
0
0
0
0
0
0
0
0
0
0
0
0
0
0
0
0
0
0
0
0
0
0
0
0
0
0
0
2.081365841e-06
0
-2.624292461e-06
-1.447233717e-06
-1.722054084e-06
3.834430189e-05
2.160683965e-05
-3.93659475e-05
-3.985330344e-05
0.0001236213407
0.0001174562836
-0.0001248268558
-0.0001472439206
0.0001667115896
0.0002309169237
-0.0001674175607
-0.0002530070527
0.0001356878315
0.0002895083469
-0.0001357831803
-0.000290629114
3.057948188e-05
0.0001432121463
-3.057436526e-05
-0.0001432172629
0.0001440376627
-5.373936619e-05
5.366152916e-05
-0.0001439598257
0.0002917039601
-0.0001939830631
0.0001937072333
-0.0002877134455
-0.0002307480765
0.0002423173248
0.0002321376456
-0.0002180985921
-0.0001521331466
0.0001322208912
0.0001546885482
-0.00010307962
3.07798947e-05
-3.369008533e-05
3.533468203e-05
-1.500320835e-05
0
0
0
0
0
0
0
0
0
0
0
0
0
0
0
0
0
0
0
0
0
0
0
0
0
0
0
0
0
0
0
0
0
3.149274049e-06
0
-3.867166283e-06
-2.685581939e-06
-3.122526196e-06
4.189209919e-05
3.000366395e-05
-4.290631285e-05
-5.363026633e-05
0.0001277652547
0.0001517618697
-0.0001289310578
-0.0001888844882
0.0001691009038
0.0002918351067
-0.000169779447
-0.0003185381937
0.0001359665444
0.0003607859149
-0.0001360503962
-0.0003615463638
3.050200603e-05
0.0001784928492
-3.055123096e-05
-8.862538796e-05
-8.981823633e-05
0.000179668888
-5.333864332e-05
5.325558066e-05
-0.0001795858254
0.0003625701674
-0.000193295288
0.0001931999397
-0.0003579753186
-0.0002305553601
0.0003024232543
0.0002294806504
-0.0002724396455
-0.0001527446596
0.0001650248626
0.0001516042261
-0.0001285528632
3.800698578e-05
-3.4199678e-05
3.367952877e-05
-1.837059126e-05
0
0
0
0
0
0
0
0
0
0
0
0
0
0
0
0
0
0
0
0
0
0
0
0
0
0
0
0
0
0
0
0
0
4.6460208e-06
0
-5.534692833e-06
-4.716190969e-06
-5.359099296e-06
4.605442365e-05
4.048842251e-05
-4.715436813e-05
-7.005848728e-05
0.0001324749409
0.0001898020248
-0.000133692806
-0.000234370263
0.0001718371149
0.0003560731018
-0.0001725438404
-0.000386949643
0.0001362032079
0.0004331306511
-0.0001362437691
-0.0004334690029
3.04507549e-05
0.0002145132752
-3.045682654e-05
-0.0001066838809
-0.0001078233227
0.0002154102237
-5.288120152e-05
5.277301293e-05
-0.0002153020351
0.0004329843857
-0.0001925942905
0.000192246956
-0.0004239828928
-0.0002213854746
0.0003492648585
0.0002162868173
-0.0003117420669
-0.0001390933182
0.000181543347
0.0001351383711
-0.0001385865229
3.605707297e-05
-2.644542691e-05
2.478105905e-05
-1.545265535e-05
0
0
0
0
0
0
0
0
0
0
0
0
0
0
0
0
0
0
0
0
0
0
0
0
0
0
0
0
0
0
0
0
0
6.600277582e-06
0
-6.994158286e-06
-7.819748756e-06
-8.299518557e-06
5.071743836e-05
5.332821683e-05
-5.209879651e-05
-8.936022813e-05
0.0001375630514
0.0002315042371
-0.0001390406869
-0.0002834682916
0.0001747969086
0.0004228441773
-0.0001756561823
-0.0004572727993
0.0001363218776
0.0005050897136
-0.0001363762689
-0.0005050779573
3.040966204e-05
0.0002503281527
-3.039414678e-05
-0.0001245655376
-0.0001257781303
0.0002504828629
-5.227005603e-05
5.219876644e-05
-0.0002504115733
0.0004964292941
-0.0001903171411
0.0001892049688
-0.0004788883809
-0.0002025887634
0.000375421731
0.0001992418396
-0.0003316660387
-0.0001172529021
0.0001803150045
0.0001086839782
-0.0001325362761
2.72026984e-05
-1.634478465e-05
1.387929961e-05
-8.820958827e-06
0
0
0
0
0
0
0
0
0
0
0
0
0
0
0
0
0
0
0
0
0
0
0
0
0
0
0
0
0
0
0
0
0
9.691836835e-06
0
-1.251362141e-05
-1.360875681e-05
-1.590715654e-05
5.635881822e-05
7.124285252e-05
-5.980157958e-05
-0.000114463286
0.0001440115568
0.0002800577076
-0.0001462799489
-0.0003387604989
0.0001785146809
0.0004921345048
-0.0001784806796
-0.0005308155391
0.0001363734004
0.000576898856
-0.0001365715579
-0.0002861154685
-0.0002905852301
1.579424366e-05
0.0001423439503
-1.583290258e-05
-0.0001423052914
-4.156388e-06
7.095203243e-05
4.004936916e-06
-0.0001420606905
7.12601092e-05
0.0002847554953
-5.182014026e-05
0.0001085899577
-0.0005739065969
0.000289104775
-5.672349075e-05
-0.0001846527752
0.0005472831918
0.0001814583211
-0.0005180531531
-0.0001804427587
0.0003845008332
0.0001732271781
-0.0003287317352
-8.753068812e-05
0.0001591555184
8.1565737e-05
-0.0001099053599
1.23591512e-05
-5.478732204e-06
4.266709062e-06
-1.2107092e-06
0
0
0
0
0
0
0
0
0
0
0
0
0
0
0
0
0
0
0
0
0
0
0
0
0
0
0
0
0
0
0
0
0
1.41391989e-05
0
-1.174297472e-05
-2.001451942e-05
-1.872057597e-05
6.496647465e-05
8.989039061e-05
-6.322274749e-05
-0.0001403089562
0.0001513858162
0.0003273241963
-0.0001492142715
-0.0003929092287
0.0001814444995
0.0005622573009
-0.0001797505983
-0.0006018621753
0.0001343181583
0.0006490587253
-0.0001343181583
-0.0003223626637
-0.0003266960616
1.515364093e-05
0.0003223626637
-2.903666952e-05
1.38830286e-05
-0.0001605456871
-0.0001618169766
-1.162447998e-05
0.0001605456947
1.162446859e-05
-0.0003223626637
0.0001618169804
0.0006490587253
-0.0001096572016
0.0001096519127
-0.0006477952953
-0.000172018098
0.0005754660862
0.0001681534089
-0.0005332551838
-0.000148901968
0.0003618454835
0.0001426428259
-0.0003016848337
-5.886858616e-05
0.0001227326741
5.094630697e-05
-7.768419652e-05
1.851174286e-06
-8.031182671e-07
3.622615852e-07
0
0
0
0
0
0
0
0
0
0
0
0
0
0
0
0
0
0
0
0
0
0
0
0
0
0
0
0
0
0
0
0
0
0
7.431351539e-06
0
-2.771232058e-06
-9.978985985e-06
-6.376339488e-06
5.072038103e-05
6.931435247e-05
-4.456705436e-05
-0.0001161856642
0.0001332173789
0.0003008587331
-0.0001249054583
-0.0003689181688
0.0001670939035
0.0005577207358
-0.0001603157451
-0.0006083407786
0.0001316366205
0.0007039412133
-0.0001286057669
-0.0007162301916
2.903666953e-05
0.0007209832462
-5.29918241e-05
-0.0007209832462
2.395515458e-05
-2.833160977e-05
0.0007209832462
2.833160977e-05
-0.0007209832462
-0.000108352241
0.0007097735713
0.0001062479154
-0.0006916591485
-0.0001526987646
0.000576083953
0.0001451891079
-0.0005190730795
-0.0001139359552
0.0003172999631
0.0001047134167
-0.0002483781239
-3.038759784e-05
7.553113693e-05
2.468767338e-05
-3.955438006e-05
0
0
0
0
0
0
0
0
0
0
0
0
0
0
0
0
0
0
0
0
0
0
0
0
0
0
0
0
0
0
0
0
0
0
0
0
0
6.827211595e-08
0
0
-5.944997557e-08
0
2.32990728e-05
2.544730854e-05
-1.635749955e-05
-5.676453177e-05
9.254947281e-05
0.0002058627348
-7.991918776e-05
-0.0002670271235
0.0001323735055
0.0004545255915
-0.0001206644248
-0.0005118713897
0.0001138255118
0.0006489750768
-0.0001068519053
-0.0006808775987
5.095676592e-05
0.000736970731
-4.924952561e-05
-0.0007446205909
-2.573668138e-05
0.0007416701553
2.35030876e-05
-0.0007317270585
-9.18905946e-05
0.0006658295594
8.446293062e-05
-0.0006295830415
-0.000113912087
0.0004776235935
0.0001011280561
-0.0004155826271
-7.088262322e-05
0.000220469519
5.865769482e-05
-0.0001604042863
-9.798933326e-06
2.894900078e-05
5.739518703e-06
-7.86788856e-06
0
0
0
0
0
0
0
0
0
0
0
0
0
0
0
0
0
0
0
0
0
0
0
0
0
0
0
0
0
0
0
0
0
0
0
0
0
0
0
0
0
0
1.836530934e-06
6.260820593e-08
-3.081332008e-07
-4.682369817e-06
4.081252442e-05
7.911687704e-05
-2.883795946e-05
-0.000119788672
8.018316298e-05
0.0002643821033
-6.578697832e-05
-0.0003142426406
7.993374826e-05
0.0004481624488
-6.930348685e-05
-0.0004840298308
4.07401606e-05
0.0005565009809
-3.669106461e-05
-0.0005680209072
-1.462721857e-05
0.0005632122018
1.157660033e-05
-0.0005483500302
-5.710286669e-05
0.0004647006457
4.736352381e-05
-0.0004248053598
-6.018097116e-05
0.0002800664967
4.705532552e-05
-0.0002279978989
-2.476519254e-05
8.584425683e-05
1.578056153e-05
-4.986050582e-05
-7.828380065e-08
2.079287741e-07
0
0
0
0
0
0
0
0
0
0
0
0
0
0
0
0
0
0
0
0
0
0
0
0
0
0
0
0
0
0
0
0
0
0
0
0
0
0
0
0
0
0
0
0
0
0
0
0
3.5914432e-06
2.232364627e-06
-5.735309334e-07
-1.029730613e-05
2.579624523e-05
7.044314645e-05
-1.534477213e-05
-9.772759194e-05
3.589570381e-05
0.0001821339516
-2.557854578e-05
-0.0002072055819
2.180385553e-05
0.0002607655631
-1.654537172e-05
-0.0002694572051
-4.297108067e-06
0.0002641177242
2.73001649e-06
-0.0002519324968
-2.09868528e-05
0.0001889981562
1.407320981e-05
-0.0001615797431
-1.504047194e-05
7.506014912e-05
7.95014643e-06
-4.939915617e-05
-7.329019112e-07
2.788350615e-06
2.022378495e-09
-2.991357027e-08
0
0
0
0
0
0
0
0
0
0
0
0
0
0
0
0
0
0
0
0
0
0
0
0
0
0
0
0
0
0
0
0
0
0
0
0
0
0
0
0
0
0
0
0
0
0
0
0
0
0
0
0
0
0
8.895667629e-08
0
0
-3.92408052e-07
3.562273628e-06
1.067010284e-05
-5.694831257e-07
-1.652062633e-05
3.654758849e-06
3.2242171e-05
-1.231085125e-06
-3.506118468e-05
-3.468279309e-07
3.274737417e-05
9.321666515e-08
-2.860225099e-05
-1.402810789e-06
1.137389317e-05
1.155089606e-07
-6.258217236e-06
0
0
0
0
0
0
0
0
0
0
0
0
0
0
0
0
0
0
0
0
0
0
0
0
0
0
0
0
0
0
0
0
0
0
0
0
0
0
0
0
0
0
0
0
0
0
0
0
0
0
0
0
0
0
0
0
0
0
0
0
0
0
0
0
0
0
0
0
0
0
0
0
0
0
0
0
0
0
0
0
0
0
0
0
0
0
0
0
0
0
0
0
0
0
0
0
0
0
0
0
0
0
0
0
0
0
0
0
0
0
0
0
0
0
0
0
0
0
0
0
0
0
0
0
0
0
0
0
0
0
0
0
0
0
0
0
0
0
0
0
0
0
0
0
0
0
0
0
0
0
0
0
0
0
0
0
0
0
0
0
0
0
0
0
0
0
0
0
0
0
0
0
0
0
0
0
0
0
0
0
0
0
0
0
0
0
0
0
0
0
0
0
0
0
0
0
0
0
0
0
0
0
0
0
0
0
0
0
0
0
0
0
0
0
0
0
0
0
0
0
0
0
0
0
0
0
0
0
0
0
0
0
0
0
0
0
0
0
0
0
0
0
0
0
0
0
0
0
0
0
0
0
0
0
0
0
0
0
0
0
0
0
0
0
0
0
0
0
0
0
0
0
0
0
0
0
0
0
0
0
0
0
0
0
0
0
0
0
0
0
0
0
0
0
0
0
0
0
0
0
0
0
0
0
0
0
0
0
0
0
0
0
0
0
0
0
0
0
0
0
0
0
0
0
0
0
0
0
0
0
0
0
0
0
0
0
0
0
0
0
0
0
0
0
0
0
0
0
0
0
0
0
0
0
0
0
0
0
0
0
0
0
0
0
0
0
0
0
0
0
0
0
0
0
0
0
0
0
0
0
0
0
0
0
0
0
0
0
0
0
0
0
0
0
0
0
0
0
0
0
0
0
0
0
0
0
0
0
0
0
0
0
0
0
0
0
0
0
0
0
0
0
0
0
0
0
0
0
0
0
0
0
0
0
0
0
0
0
0
0
0
0
0
0
0
0
0
0
0
0
0
0
0
0
0
0
0
0
0
0
0
0
0
0
0
0
0
0
0
0
0
0
0
0
0
0
0
0
0
0
0
0
0
0
0
0
0
0
0
0
0
0
0
0
0
0
0
0
0
0
0
0
0
0
0
0
0
0
0
0
0
0
0
0
0
0
0
0
0
0
0
0
0
0
0
0
0
0
0
0
0
0
0
0
0
0
0
0
0
0
0
0
0
0
0
0
0
0
0
0
0
0
0
0
0
0
0
0
0
0
0
0
0
0
0
0
0
0
0
0
0
0
0
0
0
0
0
0
0
0
0
0
0
0
0
0
0
0
0
0
0
0
0
0
0
0
0
0
0
0
0
0
0
0
0
0
0
0
0
0
0
0
0
0
0
0
0
0
0
0
0
0
0
0
0
0
0
0
0
0
0
0
0
0
0
0
0
0
0
0
0
0
0
0
0
0
0
0
0
0
0
0
0
0
0
0
0
0
0
0
0
0
0
0
0
0
0
0
0
0
0
0
0
0
0
0
0
0
0
0
0
0
0
0
0
0
0
0
0
0
0
0
0
0
0
0
0
0
0
0
0
0
0
0
0
0
0
0
0
0
0
0
0
0
0
0
0
0
0
0
0
0
0
0
0
0
0
0
0
0
0
0
0
0
0
0
0
0
0
0
0
0
0
0
0
0
0
0
0
0
0
0
0
0
0
0
0
0
0
0
0
0
0
0
0
0
0
0
0
0
0
0
0
0
0
0
0
0
0
0
0
0
0
0
0
0
0
0
0
0
0
0
0
0
0
0
0
0
0
0
0
0
0
0
0
0
0
0
0
0
0
0
0
0
0
0
0
0
0
0
0
0
0
0
0
0
0
0
0
0
0
0
0
0
0
0
0
0
0
0
0
0
0
0
0
0
0
0
0
0
0
0
0
0
0
0
0
0
0
0
0
0
0
0
0
0
0
0
0
0
0
0
0
0
0
0
0
0
0
0
0
0
0
0
0
0
0
0
0
0
0
0
0
0
0
0
0
0
0
0
0
0
0
0
0
0
0
0
0
0
0
0
0
0
0
0
0
0
0
0
0
0
0
0
0
0
0
0
0
0
0
0
0
0
0
0
0
0
0
0
0
0
0
0
0
0
0
0
0
0
0
0
0
0
0
0
0
0
0
0
0
0
0
0
0
0
0
0
0
0
0
0
0
0
0
0
0
0
0
0
0
0
0
0
0
0
0
0
0
0
0
0
0
0
0
0
0
0
0
0
0
0
0
0
0
0
0
0
0
0
0
0
0
0
0
0
0
0
0
0
0
0
0
0
0
0
0
0
0
0
0
0
0
0
0
0
0
0
0
0
0
0
0
0
0
0
0
0
0
0
0
0
0
0
0
0
0
0
0
0
0
0
0
0
0
0
0
0
0
0
0
0
0
0
0
0
0
0
0
0
0
0
0
0
0
0
0
0
0
0
0
0
0
0
0
0
0
0
0
0
0
0
0
0
0
0
0
0
0
0
0
0
0
0
0
0
0
0
0
0
0
0
0
0
0
0
0
0
0
0
0
0
0
0
0
0
0
0
0
0
0
0
0
0
0
0
0
0
0
0
0
0
0
0
0
0
0
0
0
0
0
0
0
0
0
0
0
0
0
0
0
0
0
0
0
0
0
0
0
0
0
0
0
0
0
0
0
0
0
0
0
0
0
0
0
0
0
0
0
0
0
0
0
0
0
0
0
0
0
0
0
0
0
0
0
0
0
0
0
0
0
0
0
0
0
0
0
0
0
0
0
0
0
0
0
0
0
0
0
0
0
0
0
0
0
0
0
0
0
0
0
0
0
0
0
0
0
0
0
0
0
0
0
0
0
0
0
0
0
0
0
0
0
0
0
0
0
0
0
0
0
0
0
0
0
0
0
0
0
0
0
0
0
0
0
0
0
0
0
0
0
0
0
0
0
0
0
0
0
0
0
0
0
0
0
0
0
0
0
0
0
0
0
0
0
0
0
0
0
0
0
0
0
0
0
0
0
0
0
0
0
0
0
0
0
0
0
0
0
0
0
0
0
0
0
0
0
0
0
0
0
0
0
0
0
0
0
0
0
0
0
0
0
0
0
0
0
0
0
0
0
0
0
0
0
0
0
0
0
0
0
0
0
0
0
0
0
0
0
0
0
0
0
0
0
0
0
0
0
0
0
0
0
0
0
0
0
0
0
0.0001389175545
-0.0001389278893
3.058981673e-05
4.890281681e-05
-0.0001392681728
-4.897586064e-05
7.036479701e-05
6.897641962e-05
-4.992536123e-05
0.0001087935181
4.944077859e-05
0.0001740254104
3.04716766e-05
-8.648688538e-05
-8.750819556e-05
4.823093639e-05
-0.0001753564874
-4.833698345e-05
8.828412557e-05
8.717840886e-05
4.865406537e-05
7.272348238e-05
7.156293178e-05
0.000210013092
3.043419693e-05
-0.0001044624588
-0.0001055340753
4.786465267e-05
-0.0002107559138
-4.775572214e-05
0.0001058421161
0.0001048048672
4.81491285e-05
9.032652247e-05
8.942417346e-05
0.0002457801527
3.03794547e-05
-0.0001223271647
-0.0001234227806
4.705120113e-05
-0.0002458933867
-4.72421859e-05
0.0002460843715
0.0002155426507
4.773222567e-05
0.0001413556191
-0.000141356972
1.579559656e-05
-7.080640786e-05
1.663602356e-06
-1.689401769e-06
7.083220727e-05
7.052540861e-05
-0.0001411468807
-4.341323778e-06
4.651071544e-05
-0.0002807034944
-4.654923736e-05
0.0002807420163
0.000250617136
4.69169281e-05
0.0001595728096
-0.0001595728096
1.515364093e-05
-0.0001595728307
3.906228321e-06
-3.906264297e-06
0.0001595728667
7.103785757e-05
1.57777722e-06
-0.0003178764135
0.0001452100757
2.509327688e-06
-1.040300667e-06
8.292526739e-05
-0.0006222890509
0.0003167275803
0.0003103312078
-4.158747794e-05
-4.610752663e-05
0.0002848029034
4.646330734e-05
0.0001047899852
-0.000104696909
3.091606724e-05
-6.34983772e-06
6.904758288e-05
6.327118971e-06
-0.0001043180156
-4.967298528e-05
0.0001040656397
-5.021238262e-05
7.193284317e-05
5.115216337e-05
7.684327013e-06
-3.106923943e-05
-7.683133368e-06
3.106804578e-05
-5.436025859e-05
-1.567908295e-05
5.449250494e-05
1.55468366e-05
-0.0001392049165
-5.380262253e-05
0.0001728731194
-0.0002730938543
-0.0001733167295
0.0002736315073
-0.0001745472723
0.0002197890221
0.0001735387615
0.0003427843589
-0.0003436640795
0.0001359026605
-3.553017027e-05
3.553168622e-05
0.0001740238944
3.560097328e-05
0.0001431939006
-3.558272762e-05
8.523731933e-06
-3.977045303e-05
-8.49868979e-06
3.974541089e-05
-7.793976211e-06
-3.571265692e-05
3.575928672e-05
7.747346409e-06
-0.000175295688
-5.339944271e-05
0.0001721596545
-0.0003452897114
-0.0001723539125
0.0003454955331
0.0002919530501
0.0001726618445
0.0004151236989
-0.0004155686031
0.0001361601671
-3.545789584e-05
3.545972832e-05
0.0002100112596
0.0001784900812
-3.552740228e-05
-3.050514453e-05
0.0001921654999
3.050800893e-05
-9.550493128e-05
-9.666343305e-05
-7.182437836e-06
-4.84701986e-05
7.162542447e-06
9.666075978e-05
-4.81706658e-05
7.150707907e-06
-4.411292054e-05
8.860240468e-05
-7.179532199e-06
-4.446065985e-05
7.490673531e-06
-4.883468214e-05
-7.531864823e-06
4.887587343e-05
-7.86965767e-06
-4.447162812e-05
4.432379536e-05
8.017490425e-06
-0.0002107353773
-5.290173796e-05
0.0001713203388
-0.0004152006713
-0.0001716097819
0.0004161807418
0.0003628105774
0.0001719667768
0.0004870420245
-0.0004870742227
0.0001362333957
-3.538942462e-05
3.539290591e-05
0.0002457766714
0.0002144996822
-3.544430288e-05
-3.035151512e-05
0.000227967235
3.040867666e-05
-0.0001134679713
-0.0001145564253
-3.421515607e-06
-5.743904901e-05
3.419792941e-06
5.744077167e-05
7.165347315e-06
-5.320572264e-05
0.0001066970302
-7.150723527e-06
-5.350593135e-05
1.422160691e-05
-0.0001148121607
-1.428094172e-05
0.0001148714955
-1.451580054e-05
-0.0001072501201
1.427761038e-05
5.394418867e-05
5.354412161e-05
0.0005589678667
0.000136417674
-0.0002772692933
-0.0002817428469
-3.538602116e-05
-0.000140349735
3.533834483e-05
0.0002817530304
0.0002503263161
-3.538758807e-05
-1.580211465e-05
0.0001325159415
-0.0001325323192
1.581849237e-05
-3.325255398e-06
-6.645763105e-05
3.362301503e-06
6.642058495e-05
3.393588886e-06
-6.209574332e-05
6.20982558e-05
-3.39610137e-06
6.699814223e-05
2.464376376e-06
-6.680103246e-05
-2.661486147e-06
1.377972744e-05
-0.0001325344058
-1.376165935e-05
0.0001325163377
-1.404630686e-05
-0.000124812448
0.0001248211314
1.403762342e-05
0.000612532417
0.00013477907
-0.0002951169151
-0.0003178764135
-3.412071866e-05
-0.0001583036038
3.412071865e-05
0.0003178764135
-0.0001437490449
0.0002860901817
-3.538320764e-05
-1.579040036e-05
0.0001503581681
-0.0001503448445
1.577707672e-05
-3.3810895e-06
-7.504155488e-05
3.255301727e-06
7.516734265e-05
3.238847883e-06
-7.080822078e-05
7.084314018e-05
-3.273767278e-06
0.0003537622478
-0.0003537622478
2.903666953e-05
-0.0003537622478
6.541707082e-06
-6.5417071e-06
0.0003537622478
0.0001605457156
3.906207361e-06
5.909602676e-06
6.229440971e-05
-5.964747788e-06
-3.093874378e-05
-3.130052082e-05
-5.893795683e-06
6.996752255e-05
5.888526965e-06
-3.488160153e-05
-3.50806523e-05
5.439326501e-05
6.898329253e-06
-7.046852923e-06
-5.424474133e-05
6.133349645e-05
-6.137786261e-05
5.953968834e-06
-3.541582627e-05
-7.816403277e-06
3.543825334e-05
-3.125844046e-05
3.129025154e-05
7.652515936e-06
-4.918581188e-05
-0.0001262186245
4.905313918e-05
6.386926006e-05
6.248203717e-05
-1.649580506e-05
3.147814083e-05
1.638123821e-05
-6.262201444e-05
8.052521092e-06
-3.540477544e-05
-8.063571928e-06
-4.382102018e-05
7.113477578e-06
8.748604529e-05
-4.362779479e-05
-7.979044688e-05
7.134964401e-06
7.979628659e-05
-7.140804116e-06
3.05297014e-05
0.0001607868448
-3.052977241e-05
-0.0001607867738
5.867592645e-06
-5.914297103e-06
-3.974679907e-05
-3.999694335e-05
-3.110797932e-06
-4.38222932e-05
3.112070948e-06
7.100964251e-05
-5.925923043e-06
-3.533001027e-05
-3.564750488e-05
7.875307038e-05
5.88806687e-06
-3.927398111e-05
-3.94995635e-05
-4.41088199e-05
-7.71273689e-06
4.395189912e-05
-4.022555112e-05
4.017491449e-05
8.574368557e-06
-2.489135946e-05
-8.052806771e-05
8.054882867e-05
2.48705985e-05
-8.720546142e-06
8.724333993e-06
-4.022933897e-05
8.066843063e-06
-4.420427577e-05
-7.971387196e-06
8.02100063e-06
-3.568113646e-05
-3.98030928e-05
-8.687906382e-06
-7.928504799e-05
-2.489470966e-05
7.928839819e-05
-5.28945435e-05
7.136025256e-06
0.0001055220328
-5.259816725e-05
-4.878954588e-05
9.787108687e-05
-7.153295208e-06
-4.911068362e-05
0.0001967246455
-3.044950177e-05
-9.784690332e-05
-9.89333849e-05
3.116646516e-06
-3.110811221e-06
-4.879538118e-05
-3.110089792e-06
-5.289252698e-05
3.10807328e-06
-3.114864277e-06
-4.41088542e-05
-4.846724563e-05
3.113693548e-06
-0.0001059899855
-1.450460031e-05
5.312963631e-05
5.284914894e-05
-4.907249926e-05
4.906776303e-05
7.495409771e-06
-4.784970884e-05
-0.0001973372588
4.784582953e-05
9.915454175e-05
9.818659639e-05
-1.5900993e-05
4.920470179e-05
1.581487587e-05
-9.819108392e-05
1.572999718e-05
-0.0001059677852
-1.575219747e-05
8.160169824e-06
-4.456495488e-05
4.847249584e-05
-9.716508718e-05
-7.848732591e-06
-8.194351219e-06
-0.0001929429807
-4.802732091e-05
9.710082597e-05
9.601976679e-05
-6.181010478e-05
3.399335743e-06
6.180435792e-05
-5.770848291e-05
5.769836035e-05
-3.411393047e-06
0.0002322725842
-3.04120023e-05
-0.0001156019599
-0.0001166101371
3.103576709e-06
-3.11967784e-06
-5.769238178e-05
-3.045225528e-06
-6.180147849e-05
3.036599244e-06
-3.106594631e-06
-5.320921781e-05
-5.744441514e-05
3.108942838e-06
-0.0001237688596
-1.407281328e-05
0.0001237953661
-0.0001160254688
0.0001160313908
1.421568494e-05
-7.075427913e-05
3.216134026e-06
7.077699299e-05
-6.669891466e-05
6.671447553e-05
-3.34081627e-06
0.0001336005267
-1.579932893e-05
-0.0001336033124
-1.754917916e-06
-6.680325194e-05
6.658216691e-05
1.976002947e-06
2.947914443e-06
-2.961804709e-06
-6.668502439e-05
-2.919832928e-06
-7.070141624e-05
2.866970032e-06
-3.062806223e-06
-6.207816263e-05
-6.647652602e-05
2.966809412e-06
-2.125087125e-06
6.736831144e-05
2.614046875e-05
-0.000280754621
-2.614258416e-05
0.000140844021
0.0001399127155
-0.0001335262791
0.0001334983614
1.380764516e-05
2.461190614e-06
-6.680006618e-05
-0.0001608848886
-6.6931961e-06
0.0001601740712
4.016764475e-06
3.387249047e-06
-7.533088575e-05
7.538830704e-05
-3.438510794e-06
0.0001514274837
-1.581983184e-05
-0.0001513980523
-1.637950672e-06
-0.0001496938052
0.0001498330451
1.498710761e-06
2.924700723e-06
-2.978953598e-06
-7.527663288e-05
-4.980149904e-06
-0.0001608601385
3.062584476e-06
1.892815278e-06
-2.981568057e-06
-7.074648566e-05
2.826017688e-06
-7.494287184e-05
-0.0001487059328
-1.865970797e-06
0.0001489339529
0.0002717408424
-0.0002729907298
0.0001355792252
3.561895153e-05
0.0001388995762
3.600464847e-05
0.0001092967587
-3.587749529e-05
-3.074600786e-05
0.0001216501683
-0.0001216311587
3.072699824e-05
-7.182253926e-06
7.187381036e-06
6.132836934e-05
7.429964441e-06
5.457828691e-05
-7.614986346e-06
7.47797096e-06
-2.862437773e-05
-3.403519197e-06
2.454992597e-05
-2.768391428e-05
-5.860239994e-06
2.804204676e-05
5.502107517e-06
0.0001563875035
-0.0001564103308
3.055252872e-05
7.138772502e-06
7.874926228e-05
7.165371516e-06
7.101005443e-05
-7.165783441e-06
1.983419865e-05
-5.598942613e-05
-9.457345345e-06
4.561257283e-05
-0.0002457932102
-5.237023254e-05
0.0001716249615
-0.0004816567584
-0.0001716378102
0.0004871774151
0.0004341316028
0.0001715160634
1.911703789e-05
-6.450699139e-05
-7.503540147e-06
5.289349365e-05
8.875441773e-06
-0.0001281865763
-8.974621464e-06
6.427677505e-05
6.400898096e-05
-4.685152314e-06
-6.230325531e-05
6.229515383e-05
4.693253792e-06
3.380767379e-06
-0.0001485760395
-3.51066067e-06
2.732716657e-05
-0.0002973811517
-2.67361285e-05
0.0002967901137
-0.0002848967302
2.615760955e-05
0.0001429325328
0.0001419470566
7.160603988e-06
6.997229008e-05
6.229882861e-05
-7.186672826e-06
0.0001254036833
-3.066195298e-05
-0.0001254877382
6.637021842e-07
3.327117398e-05
-6.049638812e-07
-3.332991228e-05
2.788785658e-05
1.64712816e-06
-1.280731773e-06
-2.825425297e-05
2.893885876e-05
-9.629354465e-07
-2.899309924e-05
1.017175923e-06
-1.730066758e-05
1.683250038e-05
-5.389209139e-05
3.066292973e-05
-6.161438919e-05
-1.661358503e-05
-0.0001215951778
-4.892282919e-05
6.126458989e-05
6.006760525e-05
-6.213544351e-05
-4.738331103e-06
6.21886223e-05
-5.436165717e-06
-6.023705498e-05
6.042872742e-05
5.244493283e-06
-4.753245607e-05
-0.0002326533568
0.0002327713014
4.741451153e-05
-1.555494647e-05
1.549879218e-05
-0.0001159693145
1.533900777e-05
-0.0001237235384
-1.538432906e-05
1.56524603e-05
-0.0001071725833
-0.0001148087612
-1.555834604e-05
-0.0002285121756
-4.759429723e-05
0.0002285740168
-2.42048307e-06
-6.910837002e-05
6.935061259e-05
2.178240501e-06
7.251745055e-05
5.62409489e-07
-7.249477868e-05
-5.850813566e-07
2.242563088e-06
-0.0001450315836
-2.323936346e-06
7.261410475e-05
7.249885205e-05
-4.28306911e-05
-3.737289895e-06
4.284199788e-05
3.725983112e-06
9.476368918e-05
1.225054188e-05
-7.223286862e-06
-7.110280158e-06
-4.535561589e-05
-4.732504814e-05
5.273390113e-05
-5.383470422e-05
7.999132348e-06
-5.307026164e-05
-1.573932318e-05
5.313050187e-05
-9.279756187e-05
-3.183943443e-05
4.709036311e-05
4.367009751e-05
1.656086139e-05
1.731567428e-05
-6.210580919e-06
6.303979299e-06
-4.292408948e-05
-3.560798997e-05
4.308596093e-05
-1.52963431e-05
-5.856676082e-05
1.521204602e-05
2.944859512e-05
2.920246278e-05
-5.975603695e-06
-2.562802799e-07
-2.937610599e-05
-5.83377122e-06
5.673804388e-06
-2.752394745e-05
-2.916447836e-05
-5.435503072e-06
-5.720726179e-05
-1.509610046e-05
2.86897332e-05
2.831728594e-05
-7.356796827e-06
-3.780807671e-05
3.781146829e-05
7.353405249e-06
-3.764318317e-05
-7.394259429e-06
3.768064577e-05
-7.41030417e-06
-4.69239826e-05
4.688632789e-05
7.447958878e-06
-4.681730597e-05
-7.493898719e-06
4.690090052e-05
-5.746900143e-05
5.44268699e-06
-4.988864122e-06
5.701517856e-05
-5.723314157e-05
7.315715849e-05
3.910181731e-06
-1.437447446e-05
-0.0001114346582
0.0001114367386
1.437239413e-05
-6.292996934e-06
5.421784225e-06
-5.636192886e-05
5.72881024e-06
-5.759842392e-05
-5.599387753e-06
-5.62538921e-06
9.529012283e-06
-5.281534893e-05
4.891172585e-05
-5.564182376e-05
-6.64059931e-06
-0.00011040187
-1.439374311e-05
5.533471579e-05
5.508642288e-05
-6.443511805e-05
3.447504539e-06
6.444083922e-05
-3.45322571e-06
1.0846612e-05
0.0001290398292
-1.085338649e-05
-0.0001290330547
-1.084482599e-05
0.0001325190861
-0.0001325349393
1.086067922e-05
8.585425788e-06
-0.0001325282942
-8.644004785e-06
0.0001325868732
-0.0001292550583
8.768992078e-06
6.484075571e-05
6.452075228e-05
8.33987626e-05
1.598252607e-06
-6.587997731e-05
3.629760005e-06
-7.324021452e-05
7.32844037e-05
-3.673949187e-06
1.085692248e-05
0.0001469168649
-1.087404525e-05
-0.0001468997421
-1.087589933e-05
0.0001503332468
1.081005736e-05
-7.49815322e-05
-7.528587267e-05
1.085585554e-05
0.0001422897704
-1.088612245e-05
-0.0001422595035
0.0001457852856
-0.0001457789743
1.085061113e-05
-7.28102791e-05
3.559294327e-06
7.288074478e-05
3.163434447e-05
9.211309985e-07
7.007069924e-06
-3.956254539e-05
3.285714546e-05
6.280875526e-07
-3.282153083e-05
-5.938657774e-06
6.563662321e-05
5.917195004e-06
-3.261669108e-05
-3.299846937e-05
-9.626189252e-07
9.105782141e-07
3.290918617e-05
9.294856033e-07
3.138661642e-05
-6.817575509e-07
-3.966725293e-07
-1.561503089e-06
3.511512296e-05
-3.315694734e-05
3.330346015e-05
-9.949051046e-07
6.682584877e-05
-5.86244584e-06
-3.335009961e-05
-3.355196109e-05
-6.077952266e-06
5.788214378e-05
-5.790756724e-05
6.103375732e-06
-1.07688891e-06
1.041909129e-06
2.897383855e-05
2.567815207e-06
2.703449239e-05
-1.714451015e-06
-3.109365091e-05