/*--------------------------------*- C++ -*----------------------------------*\
| =========                 |                                                 |
| \\      /  F ield         | OpenFOAM: The Open Source CFD Toolbox           |
|  \\    /   O peration     | Version:  v1912                                 |
|   \\  /    A nd           | Website:  www.openfoam.com                      |
|    \\/     M anipulation  |                                                 |
\*---------------------------------------------------------------------------*/
FoamFile
{
    version     2.0;
    format      ascii;
    class       volScalarField;
    location    "2.81";
    object      nut;
}
// * * * * * * * * * * * * * * * * * * * * * * * * * * * * * * * * * * * * * //

dimensions      [0 2 -1 0 0 0 0];


internalField   nonuniform List<scalar> 
12556
(
1.155874886
1.155843561
1.15581425
1.155793044
1.156030614
1.156036568
1.15606917
1.156135899
1.156254915
1.156426016
1.156667622
1.028997438
0.9969406475
1.063001929
1.156574826
1.156381165
1.156225159
1.156131852
1.156066845
1.156045764
1.155828133
1.155847061
1.155872823
1.155898684
1.155097204
1.155011272
1.154938133
1.154907476
1.155139174
1.155214757
1.155402459
1.155770485
1.156339736
1.157227687
1.090403656
0.9539029059
0.9153034545
0.9546028738
1.086966121
1.157181741
1.156352877
1.155801691
1.155388275
1.155228879
1.15496815
1.155020614
1.155097988
1.155177173
1.154292155
1.154148263
1.154037882
1.153999591
1.154299446
1.154519434
1.155004089
1.15577409
1.157147963
1.01331757
0.8377335295
0.7439164774
0.7211559686
0.7515601792
0.8592701401
1.048423064
1.157085508
1.15581521
1.154907549
1.154511078
1.154145249
1.154187113
1.154303816
1.154437605
1.153467265
1.153285864
1.153167311
1.15319652
1.153559379
1.154041434
1.155081736
1.156605587
0.9671753822
0.7362932519
0.5980924706
0.517360981
0.4898043961
0.5181712833
0.6066535306
0.7653927897
1.014872889
1.156525859
1.154808939
1.153986347
1.153371603
1.153378558
1.153512686
1.153691157
1.152623659
1.152405158
1.152298924
1.152395901
1.15298049
1.153891032
1.155845515
1.036539468
0.7279032903
0.5386286366
0.4115083743
0.3269001919
0.2919317064
0.3169652555
0.3984274066
0.5401412227
0.757174953
1.082368623
1.155276854
1.15373166
1.152706009
1.1525847
1.152707577
1.152920746
1.151776762
1.151545999
1.151487221
1.151776543
1.152647932
1.154192043
1.151957136
0.8325029697
0.5812866117
0.4115656054
0.2814852301
0.1859367705
0.1466986004
0.1727723787
0.2509625449
0.3781742524
0.5755887358
0.8649654219
1.156421817
1.153817962
1.152196502
1.151838164
1.151907697
1.152135001
1.150915795
1.1506916
1.150726415
1.151297097
1.152453603
1.154987556
1.004788749
0.7119830602
0.493524395
0.3359791435
0.2029353149
0.09440918808
0.05385896025
0.08557944429
0.1611876819
0.2768437883
0.4533593747
0.7073293214
1.095734394
1.154313677
1.151805323
1.15113588
1.151102399
1.151325383
1.150116483
1.149916554
1.15008266
1.150996768
1.152569728
1.156257777
0.9076865881
0.6512608395
0.458495652
0.3128493305
0.1856964568
0.07679388658
0.04952189246
0.1220226671
0.2234226622
0.3823304672
0.6164836522
0.9757251466
1.155187229
1.151600085
1.15052292
1.150330967
1.150526363
1.149390813
1.14923824
1.149591405
1.150939645
1.153059534
1.157911911
0.8564732212
0.6256919312
0.4636577857
0.339618494
0.2370222949
0.1666862141
0.06166568718
0.120103698
0.2075719295
0.3507583477
0.562910483
0.8976988078
1.156358747
1.151595163
1.150026207
1.149633414
1.149781106
1.148829154
1.148741459
1.149305698
1.151136825
1.153904053
1.153438874
0.8374936406
0.6372713763
0.4928454497
0.3888894322
0.316891562
0.3096591318
0.08746743012
0.1375803084
0.2173434555
0.3512508403
0.5492005029
0.8549285036
1.157736223
1.151828896
1.149720217
1.149086262
1.149169694
1.14844207
1.148443705
1.149278731
1.15169355
1.155077534
1.113691284
0.8382887453
0.6588875768
0.5318452582
0.4417491502
0.38793506
0.4297532215
0.1191553032
0.1673927373
0.246044451
0.3739877964
0.5602191898
0.8427787915
1.158090296
1.152284104
1.149618431
1.148741695
1.148745475
1.148295579
1.148387711
1.1494744
1.152437895
1.156503981
1.094391766
0.8516395325
0.6903962675
0.5736402097
0.4868665266
0.4251252005
0.4411436317
0.1560740721
0.2097967032
0.2922864372
0.4212191796
0.5961719774
0.8569742581
1.143202903
1.152991527
1.149767157
1.148628869
1.148559636
1.148330493
1.148536881
1.149970088
1.153568117
1.158117296
1.089559536
0.8786449131
0.7364901428
0.6214945587
0.5322934504
0.4512859176
0.3869269207
0.04726739204
0.2048415648
0.2737235329
0.3644242498
0.4902289743
0.6602415114
0.8933355979
1.142940479
1.153804882
1.150133276
1.148770995
1.148619132
1.148588417
1.14890346
1.150638596
1.154748819
1.1598938
1.113001043
0.9432147833
0.7917032555
0.6886921241
0.5964113373
0.5041277405
0.2827924334
0.0966816418
0.3042790619
0.3847787743
0.4719949834
0.5907082403
0.7422525751
0.9480831086
1.163171885
1.154716141
1.150677106
1.149111042
1.148909311
1.148934014
1.149348074
1.151365741
1.155973109
1.161595113
1.165601746
1.016399897
0.8795992227
0.7804350717
0.6977887706
0.6127965216
0.1090339794
0.1396264916
0.3948826339
0.5810717081
0.6301003586
0.7216220829
0.8561139267
1.037154819
1.164359817
1.155637207
1.151324998
1.1496041
1.149343762
1.149411407
1.149917844
1.152183807
1.157220159
1.163244401
1.171393846
1.123676097
1.009565194
0.924185149
0.8633742623
0.7623936479
0.04838344328
0.169071314
0.44424777
0.7532044378
0.8457004601
0.8951659093
1.000588614
1.165511857
1.165322735
1.156504717
1.152009758
1.150190269
1.149918921
1.149854934
1.150431983
1.152910187
1.158343369
1.164714927
1.173028298
1.172979631
1.153219807
1.09096529
0.9454341704
0.4536227373
0.0286198017
0.2500303505
0.5296271316
0.8166287003
1.012424358
1.108369089
1.150762034
1.167630451
1.166068119
1.157257912
1.152665706
1.150786227
1.150488558
1.150345268
1.150981183
1.15363054
1.159370682
1.165981229
1.17439427
1.174070234
1.153154994
1.070069991
0.7858253128
0.1150941115
0.0668226425
0.3402216863
0.6212480113
0.8666260621
1.024845345
1.110218831
1.151927735
1.16819261
1.166526607
1.157866372
1.153258376
1.151371108
1.15105829
1.150719692
1.151391327
1.154172348
1.160183518
1.167021047
1.175409499
1.174800562
1.152463964
1.060254684
0.6343085414
0.05161811957
0.1611487684
0.4092090764
0.6716418596
0.8821597297
1.02652433
1.110944663
1.152307062
1.168328364
1.166725861
1.158291489
1.153715238
1.151845331
1.151525913
1.151109437
1.151812058
1.154689436
1.160877169
1.167822151
1.176128269
1.17510605
1.151290116
1.049143459
0.5733192349
0.05041724092
0.1808516626
0.4216526719
0.6729156078
0.8837445977
1.027082671
1.110884757
1.152108962
1.168121402
1.166700393
1.158604588
1.154113815
1.152273882
1.15194832
1.151348404
1.152069527
1.155014786
1.161350385
1.168404858
1.176587804
1.175099038
1.149698324
1.035925101
0.5298858727
0.05061793599
0.1870546265
0.425214416
0.671994818
0.8835999684
1.026768605
1.110252881
1.151491285
1.167649051
1.166493145
1.158751459
1.154358259
1.152552957
1.152222997
1.151610077
1.152357927
1.155355947
1.161759799
1.168801222
1.176836935
1.174869488
1.147766194
1.019868162
0.500045804
0.05126004291
0.1919537833
0.4275628504
0.670328798
0.881789853
1.025624229
1.109166014
1.150566147
1.166974651
1.166145758
1.15883226
1.154566975
1.152794722
1.152454116
1.151708837
1.152480862
1.155522302
1.161993065
1.169056129
1.176925197
1.174470328
1.145452285
0.9997484786
0.4789527563
0.05224188074
0.1957506205
0.4289505076
0.6681352301
0.8787628085
1.023641497
1.107667907
1.149400468
1.166146518
1.165693229
1.158773242
1.154622941
1.152878381
1.152526276
1.151854072
1.152663719
1.155749793
1.162232778
1.169203519
1.17689075
1.173915887
1.142573141
0.976917806
0.4637432989
0.05353173722
0.1986457213
0.429517688
0.6654895914
0.8749616554
1.020907753
1.105783388
1.148031396
1.165200929
1.165161421
1.15869649
1.154683097
1.152960513
1.15259029
1.151830594
1.152676277
1.155805109
1.162320019
1.169273514
1.176758408
1.173189768
1.138852841
0.9544237952
0.4530966475
0.05511133492
0.2006225689
0.4293940672
0.662453439
0.8706809829
1.017590137
1.103554236
1.146485362
1.164164953
1.164569639
1.158493982
1.154592377
1.152885123
1.152497208
1.151882748
1.152776433
1.155953676
1.162458321
1.169279006
1.176544021
1.172263664
1.134102283
0.9340096727
0.4458011983
0.05692602696
0.2018694534
0.428723965
0.659120241
0.8660948431
1.013847918
1.101035617
1.144788172
1.163059379
1.163931857
1.158317755
1.154550805
1.15285397
1.152442666
1.151763089
1.152699955
1.155921413
1.162441064
1.169236613
1.176258156
1.171110187
1.128373602
0.9161159225
0.4410070084
0.05899187215
0.2026248167
0.4276739587
0.6555642993
0.861299493
1.009799993
1.098283191
1.142965611
1.161900626
1.163259029
1.158015913
1.154353291
1.152662476
1.152229662
1.151745946
1.152735985
1.156008722
1.162509304
1.169148501
1.175907931
1.169708194
1.121898817
0.9006622002
0.4381045103
0.06133768989
0.2030646591
0.426315451
0.6518336499
0.8563536848
1.005531728
1.095345675
1.141040689
1.160701234
1.162559204
1.157781614
1.154247969
1.152559023
1.152099127
1.151559636
1.152594238
1.15590876
1.162410535
1.169027816
1.175497024
1.168047615
1.114990415
0.887420644
0.4368473152
0.06397922275
0.2032419779
0.4246910111
0.6479739631
0.8513086855
1.001108378
1.092263165
1.139032517
1.159470641
1.161838669
1.157411995
1.153977773
1.152289918
1.151806398
1.151488843
1.152578114
1.15594462
1.162426895
1.168871429
1.175026654
1.166134196
1.107921399
0.8761061321
0.436936733
0.06696933158
0.2032322556
0.4228556027
0.6440417693
0.846214877
0.9965801946
1.089066932
1.136956124
1.158215745
1.161102716
1.157144772
1.153831309
1.152139642
1.151626667
1.15126919
1.152400387
1.15580349
1.162271037
1.168691706
1.174495805
1.163988024
1.100895214
0.8664564127
0.4381461909
0.07032577519
0.2030646798
0.4208886524
0.6400936122
0.8411176275
0.9919872466
1.085782508
1.134823647
1.156941704
1.160354076
1.156736311
1.153523927
1.151831883
1.151295388
1.151144558
1.15233061
1.155785234
1.162239997
1.168482202
1.173903682
1.161636902
1.094017971
0.8581097374
0.4400028776
0.07398160858
0.202818202
0.4188547389
0.6361773652
0.8360559387
0.9873632225
1.082431793
1.132645083
1.155652517
1.159597637
1.15643864
1.153335525
1.151637387
1.151070054
1.150934703
1.15215707
1.155642341
1.162065743
1.16825508
1.173249393
1.159113303
1.087337659
0.8507689842
0.4421991337
0.07795968743
0.2025921325
0.4168209702
0.632332182
0.8310618566
0.9827355687
1.079033212
1.130429252
1.154351875
1.158831335
1.156037555
1.153042016
1.151344082
1.150755846
1.150734217
1.152012131
1.155547709
1.161962134
1.16800422
1.172536933
1.156455357
1.080892648
0.8442690928
0.4447191107
0.08231897897
0.2023965508
0.4148353702
0.6285889218
0.8261597908
0.9781270679
1.075603724
1.128185228
1.15304582
1.158065957
1.155664635
1.152774083
1.15107163
1.150451366
1.150586179
1.151892633
1.155452746
1.161839265
1.167743963
1.171777241
1.153723358
1.074716895
0.8385596694
0.4475882115
0.08707689064
0.2022290412
0.4129213052
0.624962775
0.8213671663
0.9735571929
1.072159126
1.125920746
1.151752359
1.157302851
1.155374389
1.152572413
1.150870685
1.150234255
1.150302267
1.15167432
1.15529175
1.161652967
1.167498596
1.171009795
1.151057514
1.068845425
0.8335721116
0.4506908892
0.09212280628
0.2020977797
0.411113993
0.6215023598
0.8167244042
0.9690578415
1.068719458
1.123643273
1.150541736
1.156610515
1.154856027
1.15220118
1.150500534
1.149827167
0.1490559783
0.05516242784
0.04259929633
0.2940379007
0.08041714462
0.0582234179
0.4169291297
0.1129239045
0.08426594562
0.4456927679
0.1431521023
0.1176858984
0.3964546327
0.03584090473
0.04447311388
0.1804271285
0.1470926081
0.3248896209
0.06953785936
0.03678990056
0.09155431862
0.2466543619
0.1836364409
0.07470766729
0.05425748018
0.04393455599
0.0813748782
0.02783463868
0.0184687295
0.05906792864
0.1015888665
0.1027821213
0.2967226919
0.2874302468
0.1718136727
0.02574725973
0.03849314934
0.08403434773
0.117863756
0.1042087321
0.3726392498
0.3994517294
0.3020345017
0.3546858224
0.1990018238
0.2230850722
0.04580367466
0.03219024465
0.1150865614
0.146016914
0.1239304074
0.4198361403
0.4390565008
0.4109650612
0.4517742282
0.1312504405
0.1691257562
0.08782906169
0.06344903673
0.4419848516
0.3972238942
0.4364825969
0.4250889124
0.07859047624
0.1029818842
0.01555248824
0.1343550252
0.120303415
0.4881208035
0.395345467
0.3916378117
0.3720630448
0.03120341565
0.05107686127
0.287726523
0.09701362123
0.07119058111
0.06189538694
0.1404056568
0.0295716983
0.05620188439
0.03952857453
0.02915509477
0.04667373392
0.03087324895
0.04910321028
0.2263152796
0.2493657956
0.2434474057
0.1952234812
0.1824295203
0.1575940836
0.1977950754
0.0318549656
0.02560618629
0.06978735481
0.03832711621
0.04369109218
0.05018623857
0.03852796166
0.06822553815
0.1717418231
0.1953867505
0.3704266002
0.153018304
0.129870407
0.1807949522
0.1549362569
0.0602525638
0.04697271326
0.1006310172
0.06564073684
0.08512963302
0.0441547361
0.06305116733
0.09635721744
0.1043477887
0.1296639983
0.4530626588
0.1045047
0.0798986747
0.128527623
0.1058086332
0.1165423596
0.09166830867
0.05204803359
0.07685684299
0.4132739571
0.01283041635
0.05419389658
0.03276393188
0.0788676706
0.05574593892
0.01225041501
0.1415143674
0.1364035562
0.01721891963
0.004768246927
0.03091203118
0.3669382606
0.05619917486
0.01935801058
0.01150646752
0.03241411172
0.01968240201
0.05388077268
0.219624951
0.1559603585
0.08946482312
0.09522415396
0.06081290414
0.03473373656
0.01411371709
0.008153509117
0.224774415
0.252372534
0.1534924286
0.01015886945
0.1491706173
0.1831627391
0.1543632451
0.01231401696
0.04950249125
0.04276465112
0.0676424317
0.1586138302
0.1455650838
0.1394912114
0.06771540116
0.1061568127
0.04130049498
0.01247344108
0.02188139182
0.02115429889
0.02915133706
0.04501196161
0.04143823747
0.03012967935
0.131940999
0.1134616784
0.1308507353
0.08830080378
0.1102496213
0.1288349538
0.02456845237
0.01398371296
0.04274037386
0.02143795531
0.03639254725
0.02883993641
0.01861359289
0.02839270164
0.02052405009
0.01373324058
0.02206858028
0.0177099819
0.009675196288
0.01543659917
0.02095310121
0.03301653079
0.03358865641
0.0389928573
0.03803982076
0.01576262665
0.01043973354
0.07685092699
0.01332386141
0.0238319204
0.009963971149
0.01190204473
0.07326026501
0.09249517282
0.2532661578
0.2414623088
0.06364498951
0.05310583476
0.0119560892
0.04621628367
0.189329648
0.1775147795
0.2056134302
0.1941187178
0.0465498229
0.04931865918
0.04165864833
0.08957325179
0.06461517827
0.05477117094
0.03998370533
0.0641734515
0.1008485632
0.03583318551
0.0226498824
0.01426151261
0.05053892097
0.02521721669
0.03955699925
0.02436491666
0.05577300489
0.04023393715
0.03934174742
0.1931106575
0.03146148798
0.1925448979
0.2113079028
0.03501874625
0.03899665157
0.03185918684
0.03454155543
0.2078530231
0.03046230727
0.03021755913
0.0413965938
0.06796336171
0.06335152848
0.07437887643
0.06965130439
0.04165675062
0.04623521033
0.0554006394
0.05019606673
0.06168664835
0.05686193082
0.04537643632
0.1417429394
0.1402447817
0.1690715225
0.1674625633
0.05671861069
0.009833628133
0.05553270008
0.0954673924
0.09370444458
0.1166755952
0.1151428533
0.02529336519
0.03646327398
0.102711492
0.02825926385
0.01691374384
0.06805189742
0.2216924782
0.2097896288
0.237450792
0.2256222309
0.06933950614
0.02213532198
0.04977094133
0.04876754131
0.07199439723
0.07116192533
0.008146273077
0.02995286877
0.07865606079
0.0674332572
0.1729025477
0.1644928997
0.02490063789
0.01243055293
0.01738910188
0.01412844247
0.0310029149
0.01305312088
0.01411329199
0.01365659163
0.03104144914
0.04568672242
0.01428032853
0.01499768424
0.00371188042
0.01633279443
0.01308130164
0.5768639027
0.3834787437
0.3864976232
0.2602633234
0.009044374143
0.005372850523
0.1343154796
0.3226896525
0.2770438998
0.00582243197
0.0120912404
0.01124838889
0.0938018506
0.0827829072
0.03202877349
0.1921250216
0.165028941
0.07054857396
0.008972954541
0.01516435958
0.0121092854
0.008253599786
0.01198559009
0.008527724745
0.02788623156
0.01177445332
0.01112175105
0.03601944936
0.04247697306
0.01205520697
0.01665603725
0.008584600478
0.00874852122
0.03371834839
0.1447387204
0.3126136145
0.3017280896
0.3268838914
0.3162091464
0.147848097
0.2684649913
0.256973846
0.09374476929
0.03429791651
0.09789313885
0.092832534
0.01253976035
0.01818426108
0.07670521679
0.04523524701
0.01333151073
0.01187499474
0.03803909528
0.0417161434
0.03720683737
0.04851602851
0.04332860615
0.03999023924
0.03114294278
0.008587822677
0.008570272029
0.02677406074
0.1819095295
0.3407337654
0.3303549759
0.06019899118
0.06207629079
0.134312511
0.01768647835
0.01927490782
0.05031790369
0.07337728237
0.1009453215
0.09346980357
0.04991582863
0.08181839523
0.07624900271
0.09075391568
0.08399525774
0.05098431993
0.1172092514
0.2834050879
0.2721856576
0.2980893737
0.2871150557
0.1189369572
0.1007217667
0.03751406637
0.03823421329
0.02174635662
0.02257825206
0.08414407996
0.1236731469
0.05612225308
0.05980187901
0.03853207443
0.03920443293
0.1097140611
0.1064635129
0.03842737942
0.05298131548
0.008857759384
0.01549869558
0.05189745221
0.03993895377
0.07589459272
0.02113851222
0.02160562985
0.02074541296
0.06491304214
0.01232392777
0.004400932233
0.1274453707
0.1115011784
0.09111906056
0.08704867781
0.03059921124
0.01562209617
0.0247672743
0.0636030371
0.01913180656
0.01216891427
0.01751426631
0.01978068926
0.002821297672
0.03196284466
0.0207480716
0.01190443765
0.006333731782
0.01149897325
0.01015047064
0.00994501492
0.02392048874
0.01825677882
0.007966284523
0.03848171007
0.04004440997
0.01456343749
0.01085099671
0.006981719571
0.0114226023
0.01579946664
0.01100911344
0.01229925685
0.0349498613
0.0111485999
0.01106901406
0.01285977616
0.01306820901
0.02949525697
0.01309917249
0.01289496202
0.0133974015
0.01300029224
0.01317615242
0.01599639571
0.01386226052
0.02068375943
0.0172851545
0.01334105426
0.01317401506
0.0213830672
0.01777159118
0.0242865309
0.02214820342
0.01725050448
0.01534290593
0.01228513314
0.01018934441
0.007977878827
0.02954361848
0.03541969389
0.01090098253
0.01028223583
0.0113345831
0.0118047574
0.04137896011
0.008988686055
0.008861289735
0.01024897229
0.009085378504
0.008799654703
0.03473786265
0.008616380659
0.01119342686
0.01176028096
0.01096405783
0.01738121273
0.04400728269
0.03950103881
0.01041639535
0.03190090694
0.02733010687
0.03789875989
0.0336788983
0.01055456074
0.01189757714
0.03112263432
0.02610817979
0.1060325429
0.09967526193
0.03821345797
0.04869596552
0.1129815189
0.107755337
0.04465829188
0.04384902993
0.06645759668
0.07459243702
0.0897569384
0.05589805955
0.070018234
0.06726468668
0.05942492742
0.1333209491
0.123155841
0.09694403479
0.1256447591
0.05934664884
0.03751902936
0.04121567859
0.05120166847
0.03257533383
0.03637860193
0.01876418386
0.01778366099
0.04493241221
0.01295073704
0.01290173047
0.01003768973
0.01869599162
0.0221997122
0.01329707737
0.01887185728
0.03452873181
0.02589741869
0.01965522475
0.0296798929
0.09352007591
0.08234182565
0.09946346049
0.09582407459
0.0307861045
0.07439671816
0.0723156162
0.07914862892
0.07514369628
0.03646225374
0.1143354182
0.1103462462
0.1207311387
0.1157403407
0.03703204017
0.03293953756
0.1041588404
0.1007035727
0.1090604515
0.1053531304
0.03326912121
0.008756354534
0.008634865125
0.03094158432
0.02794586197
0.008516617186
0.008792141187
0.04377444617
0.0430254725
0.04590376962
0.04403201592
0.0416360282
0.0406069506
0.04277560197
0.04190468633
0.0691388043
0.0672784008
0.07166809892
0.0697827389
0.06202349153
0.04856821084
0.0665042365
0.06449751619
0.02030327993
0.01730552243
0.02600558196
0.02190292361
0.006620101252
0.01124852195
0.01062312921
0.01616772665
0.01151124585
0.03656739664
0.03716373294
0.09942780055
0.02178818467
0.021568916
0.02244844591
0.02197255737
0.02089447695
0.08642241856
0.0232653498
0.03440502093
0.04132981189
0.05428479492
0.1219762586
0.03784386856
0.02460670329
0.04046976145
0.03752982675
0.02322496481
0.02268294587
0.02416185973
0.0234468738
0.111034524
0.03943030891
0.04030775645
0.007377041599
0.0236049532
0.01105264153
0.01094053154
0.0107353879
0.02200264996
0.009223971103
0.01695599685
0.01259379475
0.01302088461
0.05125831821
0.04484744087
0.02054634713
0.02102940542
0.07497668657
0.06706085837
0.01966703271
0.02048546989
0.01240303699
0.02950693389
0.08453557618
0.07636074726
0.01394072884
0.01318903673
0.01836231857
0.01259012532
0.01439417295
0.01494550029
0.03185510264
0.009555942845
0.01424142712
0.01245650966
0.01448395787
0.02158968195
0.05073190321
0.107571886
0.1391253445
0.01188529188
0.01137799889
0.1869881226
0.2373247044
0.1944558544
0.007835745845
0.03125412226
0.01353558275
0.01574420605
0.1352480322
0.1411099724
0.1586935712
0.004647815633
0.007025408554
0.005210358137
0.00484263485
0.005552151004
0.00434837378
0.053943917
0.03366749279
0.02142812845
0.02454573197
0.02287677475
0.0262954558
0.2096513398
0.3480514553
0.3573761256
0.327323878
0.3403995361
0.2130555154
0.03740078087
0.03277811448
0.01224008343
0.05653227973
0.06727895427
0.129182158
0.1199133628
0.1146413527
0.04917730232
0.02672211468
0.0268336925
0.03272975169
0.3540631098
0.344114105
0.1851568203
0.1479528153
0.0674972319
0.07113683366
0.07408207476
0.08438275603
0.1606760904
0.05969136586
0.127806398
0.1217489122
0.01227761289
0.01221975094
0.01348708732
0.02044172569
0.02074057505
0.03361991057
0.01203487858
0.01262910424
0.0124199325
0.02278163962
0.04477407504
0.03871085122
0.01930302642
0.03221120504
0.01999009033
0.02017228917
0.01971706386
0.01382651612
0.01032097788
0.01163965624
0.01152381393
0.01222993868
0.02008630729
0.02495765478
0.04938573879
0.0402585312
0.03579708259
0.0326273638
0.02405620091
0.03659275474
0.01358977686
0.0182042091
0.01313168851
0.009518855356
0.009577151808
0.01339201637
0.01312210894
0.02195608994
0.01396157654
0.009730839373
0.01594452637
0.01841874613
0.01722117202
0.01229096332
0.01546426587
0.01449305976
0.01058329298
0.01090325372
0.006903084934
0.01038018047
0.01044698518
0.05022074435
0.04544879092
0.01891339736
0.009907328242
0.01194807663
0.01110471171
0.01189553165
0.01305584241
0.01213746273
0.04735840278
0.03687264471
0.04235100883
0.06526806397
0.09095831669
0.08975925648
0.04150707138
0.0662467045
0.06280124886
0.08876977359
0.0872439063
0.06295467619
0.03099230756
0.03744931173
0.034016464
0.02622696725
0.02703256147
0.02229548442
0.04611783119
0.04486380873
0.04780861902
0.02395644699
0.03427299963
0.0326555758
0.05222020278
0.0518580508
0.03120774775
0.02903546264
0.02863399709
0.03161776169
0.03092129979
0.03552601188
0.05792860243
0.05735558032
0.06128279572
0.06057383713
0.03826513457
0.03218163485
0.05337958465
0.05288702645
0.05676493466
0.05618100004
0.03410210267
0.06500248511
0.06682610553
0.1463581752
0.1357320523
0.06264134901
0.06442188554
0.09086180219
0.09381547524
0.1741155452
0.0270626163
0.026916113
0.02840018396
0.02818427324
0.02070248383
0.02665360764
0.02654544796
0.1624010358
0.08649560798
0.08975893965
0.00955324592
0.009514946065
0.01088883689
0.01054190175
0.009795028452
0.009349972758
0.006535846968
0.05146117522
0.02005501642
0.02448799071
0.1356131856
0.129826119
0.06289549238
0.07222146519
0.1424955395
0.1373332909
0.03291729958
0.03297228708
0.05012004012
0.04845511348
0.03252279294
0.032459443
0.01193745668
0.02355086191
0.037611568
0.03688040367
0.0090945002
0.01498896754
0.01585636721
0.01457187717
0.01429132793
0.01905997977
0.01930200477
0.0314539732
0.01327667187
0.009632075745
0.01306855168
0.01373954175
0.02944537091
0.01855075636
0.01914695037
0.01385882981
0.02762447585
0.02279788365
0.01204176924
0.01200221004
0.01134748567
0.01141332676
0.0140010834
0.006286546278
0.004082588086
0.007284432125
0.01148992644
0.0116201565
0.0115176053
0.01122112871
0.01164916793
0.01112720193
0.009789606749
0.006423505328
0.005193700536
0.01011962435
0.01042751225
0.009748098914
0.009870555447
0.0115012798
0.01756275218
0.01778114329
0.01721963192
0.01739343478
0.01138167831
0.00860277842
0.01314422297
0.01313358991
0.01358833565
0.01324802055
0.0085569397
0.01263998013
0.01977750471
0.02197724672
0.01804786004
0.01861213007
0.01224274084
0.008589551503
0.01315430734
0.01316797789
0.01310350987
0.01314457978
0.008578551351
0.009444335731
0.009605991465
0.009158154742
0.009557594876
0.03767663483
0.05675762168
0.05630064719
0.02197980122
0.03658564571
0.03632989585
0.03791431533
0.0369549447
0.02219117489
0.01279541864
0.0123166625
0.01267087064
0.0128790858
0.02064542932
0.02045046739
0.02108776249
0.02085871675
0.01612564118
0.03574202552
0.02134719313
0.02227727109
0.02131033884
0.03582617237
0.0356043968
0.03616682426
0.03598106072
0.02143813421
0.02202747514
0.02140577121
0.03215439182
0.02303500392
0.01653802429
0.008615044346
0.01228386002
0.01208689378
0.008542967373
0.04396963351
0.03069276714
0.002971057208
0.03060057936
0.04675305442
0.04642267633
0.01909507875
0.01208168085
0.008899999042
0.003365483998
0.01397918441
0.01443210719
0.01974635127
0.01991572088
0.03214657093
0.02013747518
0.01057198257
0.01126271052
0.01435235902
0.004820525783
0.009105288783
0.006887090869
0.007335702585
0.007648616136
0.01020786106
0.006728587349
0.01170623571
0.01158058027
0.01170749593
0.04000350568
0.03118691943
0.008054560032
0.01012318374
0.01120210549
0.01833529437
0.02052888791
0.01203510754
0.01491628404
0.01435312636
0.01147198983
0.007535557241
0.01139671902
0.01302773737
0.009159534154
0.01287376519
0.01304946994
0.01313448646
0.01337624132
0.01324974126
0.01317752715
0.01306351669
0.01311611109
0.01368831846
0.01357473337
0.01317563401
0.01362359675
0.01404557618
0.01396284724
0.01643045048
0.01831467798
0.01596722721
0.02472438024
0.02027722564
0.01564593432
0.01466645392
0.01592408204
0.009727961497
0.01550384218
0.01640793302
0.01114241797
0.01544811703
0.01033381039
0.01071608047
0.01687890937
0.01703225164
0.01648915156
0.01672125637
0.01055588296
0.01152761493
0.01979400853
0.01943525329
0.008977332954
0.008917600246
0.009465559077
0.006627118977
0.009046736484
0.008961595023
0.008671564916
0.007147270039
0.009526058959
0.01634419782
0.01457707571
0.01890763568
0.01792389728
0.01056164237
0.01044630004
0.01064859608
0.01295169957
0.007071997724
0.01074931599
0.01053145656
0.01087360453
0.01043604299
0.01057550723
0.01505962822
0.01344508087
0.01004157499
0.04575426922
0.04292091449
0.08074431108
0.0727276946
0.04339748196
0.06270278961
0.08647921715
0.08329203864
0.03435971932
0.03169545492
0.02950753647
0.02247762933
0.02905490679
0.04168263802
0.04212041833
0.03730323427
0.01868974095
0.02697422565
0.02738412991
0.02450834817
0.02534651296
0.0176446777
0.01215612815
0.01302985854
0.01997205977
0.01401146787
0.01337833456
0.0149911395
0.01426127723
0.02024799516
0.01370982481
0.01429225715
0.01122967469
0.01460203267
0.04796895124
0.04814903088
0.03106737443
0.03076917025
0.05093741547
0.05092754241
0.02970952084
0.02932773684
0.0304681033
0.03005284027
0.05897388389
0.05842877272
0.03591301003
0.03763221041
0.06003403555
0.0595103764
0.05451227012
0.05399133724
0.03259978234
0.03364506016
0.05558699363
0.05504417323
0.008681562192
0.01324603725
0.01328211204
0.01320341442
0.01324042984
0.008664314046
0.008804667452
0.01237175751
0.01079677455
0.01322893892
0.01302086512
0.008823687962
0.0435133558
0.02579126986
0.02605814768
0.0253688369
0.02557377348
0.04327474792
0.04480646363
0.02699485494
0.02748204461
0.02632245162
0.02663059067
0.04434163063
0.04126443608
0.02415705309
0.024392851
0.02379126745
0.02401912449
0.04103420602
0.04250403404
0.02497615203
0.02516560773
0.02455811927
0.02478827598
0.04223553507
0.02749375594
0.02730976117
0.06852761462
0.04642601784
0.04673518188
0.04575502072
0.0460265003
0.06785026075
0.02793126955
0.02772722444
0.02540899699
0.02665677721
0.06001423861
0.04211657449
0.04182292286
0.02838387237
0.02978862761
0.05376343783
0.06604001087
0.04508126669
0.04527548633
0.04439002
0.04434293721
0.06486876827
0.02622483959
0.02626706559
0.009591505566
0.009676545536
0.009601260741
0.01031069003
0.009834461267
0.01097408911
0.009339456378
0.009379528273
0.009164402123
0.009249752021
0.01089837226
0.01447880085
0.009631586562
0.01027769148
0.009454099166
0.009344170808
0.01256148459
0.03648720132
0.05426531032
0.05397046852
0.05563221663
0.05528098458
0.03706717923
0.02174175589
0.0215006825
0.02232251458
0.02204980094
0.02197223767
0.01716370353
0.02450571307
0.04475473066
0.04021825474
0.05182316016
0.0500675903
0.03469933229
0.02670095671
0.01858383229
0.02387943523
0.02539256029
0.03980628407
0.02343682093
0.02372479419
0.02274311829
0.0234889967
0.03987162652
0.02305725702
0.02283323585
0.02388987701
0.02364302519
0.01116339895
0.0111161225
0.01098149416
0.01277305295
0.01163281239
0.01119633432
0.01077953774
0.01087481401
0.01076933025
0.01084419488
0.007263417382
0.01296729577
0.01248113042
0.01263143165
0.01256430488
0.01254568577
0.0129376403
0.01999359656
0.01995079471
0.02024682066
0.02018069678
0.03080763343
0.03076884259
0.04645328055
0.01917995425
0.0202360883
0.01971454691
0.01978486682
0.02075886313
0.03501481723
0.03465263078
0.03544195197
0.03516217727
0.02083955298
0.0202176697
0.03396544337
0.03208244952
0.0345324338
0.03393877494
0.0202007201
0.01243869291
0.0448332865
0.04429169832
0.02928415094
0.01417925927
0.01147389194
0.01117768876
0.008506228188
0.01165728313
0.01340930215
0.01892155583
0.0133560838
0.01471810938
0.0144214356
0.03157042359
0.01941779106
0.01962066732
0.01305202128
0.01276184329
0.0128482308
0.01382826837
0.01351784409
0.009100059635
0.009396660536
0.0142410366
0.01296365206
0.01362148895
0.01576488847
0.01943834326
0.02945043339
1.15570774
1.156511013
1.156175616
1.156842918
1.144940032
1.156982338
1.092059125
0.9340152771
1.113615563
0.9032837996
0.8155135615
0.9655904219
0.8018356502
0.7739904009
0.9160175058
0.7756399793
0.7950001543
0.9438813708
0.8082616386
0.8911804524
1.065077309
0.9214851503
1.068827695
1.157430475
1.118461421
1.15714917
1.156525308
1.156811195
1.155958609
1.155913774
1.156297637
1.119443082
1.156746222
1.043197208
0.8476648823
1.070615716
0.7980946754