/*--------------------------------*- C++ -*----------------------------------*\
| =========                 |                                                 |
| \\      /  F ield         | OpenFOAM: The Open Source CFD Toolbox           |
|  \\    /   O peration     | Version:  v1912                                 |
|   \\  /    A nd           | Website:  www.openfoam.com                      |
|    \\/     M anipulation  |                                                 |
\*---------------------------------------------------------------------------*/
FoamFile
{
    version     2.0;
    format      ascii;
    class       surfaceScalarField;
    location    "2.81";
    object      phi;
}
// * * * * * * * * * * * * * * * * * * * * * * * * * * * * * * * * * * * * * //

dimensions      [0 3 -1 0 0 0 0];
oriented        oriented;


internalField   nonuniform List<scalar> 
25162
(
0.0004960694022
0.9161539306
0.0006723788719
0.9165236905
0.000868218725
0.9164541601
0.0004305217296
0.9164309511
0.000656745911
0.4583357721
0.0004447496167
0.458274408
0.0005743667633
-0.0005487747984
-0.0007176744349
0.4582370184
0.0008306560239
-0.0009425431198
0.4581786813
0.001098861786
-0.001266562405
0.4581533812
0.001443181178
-0.001633154147
0.4581441363
0.001824017813
-0.002002282277
0.4581746584
0.00216262385
-0.002297377498
0.4582509563
0.002377921196
-0.002412729351
0.4583524143
0.002393815002
-0.002322724608
0.4584496877
0.002208036872
-0.002060788973
0.4585022277
0.001888561295
-0.001713661789
0.4585117243
0.001536937479
-0.001355664194
0.4584950689
0.001195595295
-0.00104418789
0.4584846713
0.0008745166138
-0.000807262477
0.4584491331
0.0007081293618
-0.0005762502046
0.4584584757
0.0004677745309
-0.001854769792
0.9185904867
0.0003255980401
-0.0004113149932
-0.001162088907
0.9186573191
-4.360363851e-05
0.9157315147
0.9137563964
0.001370300786
0.9147836298
0.002279921763
0.9156140696
0.002832916036
0.9159011659
0.00110921758
0.9165042995
0.00165035008
0.4578753179
0.001333183382
-0.4580992837
-0.4580432474
-0.0016407426
0.4576638505
0.00202013953
-0.4578442695
-0.002480383058
0.4573013199
0.001414216625
0.001609115976
-0.2288419241
-0.001686657827
0.2287049336
0.001823648244
-0.002374446893
-0.228774413
0.2286015635
0.002547296424
-0.00318218143
-0.2287533487
0.2285519113
0.003383618788
-0.003996880467
-0.2288196295
0.2286289532
0.004187556779
-0.004628743673
-0.2289790191
0.2288310468
0.004776710142
-0.004975888529
-0.2291948793
0.2291690257
0.005001750865
-0.004706048207
-0.2293614406
0.2294555869
0.00461190196
-0.004131435904
-0.2294563104
0.229635845
0.003951901322
-0.003370195587
-0.2294802938
0.2296933551
0.003157134285
-0.002587680548
-0.2294495681
0.2296489959
0.002388252796
-0.001909630671
-0.2293917281
0.2295541833
0.001747175496
-0.4588490037
-0.002534715193
0.4602423264
0.001141392545
0.0001233524784
0.4608683406
-0.001767274015
-0.4592244191
-0.00212792025
0.9179152585
0.0008367158415
0.001966432679
-0.001316844337
0.9178462432
0.0001956857853
0.9142189846
0.9139520821
0.001771170558
0.9130124593
0.004628961939
0.9127562782
0.007870888429
0.9126592394
0.003591956162
0.913656973
0.007126258692
-0.4576635702
0.4572901248
0.003965401501
-0.4572452487
-0.004198373564
0.4575954954
0.003848126829
-0.4565543068
-0.004283670941
0.4559114675
0.002376772829
0.002549737409
-0.2280362297
-0.002897688774
0.227741592
0.003192326498
-0.2277553501
-0.004215002103
0.227375243
0.004595109199
-0.2276167988
-0.006006620802
0.2262140396
0.007410026894
-0.2261868833
-0.0124032096
0.2246441543
0.0139492646
-0.2269928712
-0.01779574986
0.226081465
0.01870938653
-0.2293238254
-0.02011400015
0.2293614463
0.0200756636
-0.2315797146
-0.01845434698
0.2326204901
0.01741046689
-0.2319588545
-0.0131510933
0.2336505292
0.01145641516
-0.2305988059
-0.006436917894
0.2312254762
0.005810166798
-0.2304725198
-0.004671887414
0.2308355185
0.004308888681
-0.003053139222
-0.2302709496
0.230938052
0.002386036804
-0.4628121269
0.000912834728
0.4615615673
0.0003377249012
-0.4599003595
-0.0005625938409
0.4598063885
0.000656564895
-0.0006300746531
0.9193500228
-0.0005151791931
-0.0002895104955
0.001110695288
0.9161054733
0.0005061659643
0.9148235139
0.9144582481
0.0008003594417
0.9122120998
0.00177301204
0.9117836256
0.003508507229
0.9109237442
0.00410736366
0.9099452111
0.003112905548
-0.4562740476
0.45557063
0.004810781296
-0.4587890577
-0.006350494977
0.4553464225
0.009793130152
-0.4568745603
-0.01152088535
0.4578733113
0.003567465593
0.006954668785
-0.226642925
-0.003871389676
0.2262576209
0.004256693752
-0.225261741
-0.006283521042
0.2227690115
0.008778116676
-0.2193486075
-0.01710952691
0.2165252914
0.01994087739
-0.2186671
-0.0278756393
0.2163405696
0.0302097583
-0.2225234279
-0.03591171003
0.221123694
0.03731413516
-0.2292323898
-0.03978695436
0.2290541955
0.03996189099
-0.2363254461
-0.0383107024
0.2376392249
0.03698881573
-0.2403604205
-0.03085506207
0.243011587
0.02819385063
-0.2384673452
-0.01909744201
0.2416445476
0.01591294357
-0.2344832704
-0.00224673028
0.2390740539
-0.002344454958
-0.002950187953
-0.2317679333
0.2317621608
0.002955960478
-0.4614417488
-0.004276049774
0.462508263
0.003209535529
-0.4604283752
-0.002135671545
0.4612875805
0.001276466207
0.001927078446
0.9188989186
-0.0008049284236
-0.0006710458125
0.001408799786
0.9166237519
0.0006350408287
0.9155972729
0.9150932889
0.0003749782744
0.9118371215
0.0008872512655
0.9112713526
0.001739044673
0.9100719508
0.002261512851
0.908056818
0.001365924898
-0.4550102376
0.4539416984
0.003330052074
-0.4534839723
-0.004117776139
0.4523989964
0.005202751986
-0.4511409106
-0.006632380908
0.4496871883
0.004176659274
0.003909443905
-0.2262898192
-0.006431429862
0.2239426747
0.008778787272
-0.2143900316
-0.01932046474
0.2131440605
0.02057634425
-0.2071785741
-0.02740470047
0.2040348564
0.03056187192
-0.2090817519
-0.03897308037
0.2067619027
0.04130194881
-0.2166388039
-0.04693226167
0.215149246
0.04842370504
-0.2278857313
-0.05177550719
0.2272216492
0.05243522162
-0.2411636418
-0.05231696149
0.242223667
0.05124645676
-0.2515297877
-0.04418557847
0.254558073
0.04114189853
-0.2585125176
-0.02476743646
0.259321348
0.02394107914
-0.2428112836
-0.01584221313
0.246512681
0.0121321068
-0.004330143649
-0.2330471753
0.2335364801
0.003840838856
-0.4639914768
-0.004763603664
0.4653708966
0.003384183912
-0.4620633932
-0.00244876737
0.4628402907
0.001671869878
0.002460524632
0.9202360483
-0.002228522679
-0.001569131626
0.001252991975
0.9178312846
0.0005447271141
0.9163055378
0.9156380161
-2.074907048e-05
0.9118578706
0.0001413155106
0.911109288
0.000709287226
0.9095039791
0.0009609281268
0.9069642043
0.0008409727777
-0.4527884196
0.4521728607
0.001576487004
-0.4514300524
-0.002893600333
0.45022103
0.004102622768
-0.4481741134
-0.005208022849
0.4464777716
0.0034662695
0.00343809517
-0.2161508818
-0.006173590333
0.2133299957
0.009000071236
-0.1993538645
-0.01896269202
0.1958474499
0.02248604418
-0.1974389313
-0.03446763658
0.1930724104
0.03885155925
-0.2035253422
-0.04495481864
0.20287758
0.04561109632
-0.2114938738
-0.04709117925
0.2118339175
0.04675228985
-0.2240874034
-0.05068764142
0.2227416816
0.05203254406
-0.2454112978
-0.0518034339
0.2448778595
0.05233104857
-0.2683269022
-0.04359822017
0.2658466581
0.0460620048
-0.2678201122
-0.03902774004
0.2718115759
0.03501519441
-0.2587904912
-0.02205623946
0.2630963896
0.0177342085
-0.005404283536
-0.2376347006
0.2398178969
0.003219206941
-0.4665060471
-0.004615445109
0.4676141998
0.003507292377
-0.4632070383
-0.00272591098
0.4635065025
0.002426446815
0.001661761002
0.9218458315
-0.001524526362
-0.001747017859
0.0007935633921
0.9186994822
0.00026450349
0.9168345977
0.9159025195
-0.0006204667432
0.9124783374
-0.001043767503
0.9115325888
-0.001182308553
0.9096425201
0.0002109650494
0.9062966405
-0.0007257097942
-0.4518314603
0.4512963294
0.0007460960232
-0.4487749248
-0.001246773616
0.4480702134
0.00195148506
-0.4455096
-0.00331754625
0.4444571153
0.002123616935
0.002246629285
-0.2054887647
-0.006325678009
0.2028780267
0.008947561724
-0.1847521255
-0.01786028844
0.1842121036
0.01842171876
-0.1853811558
-0.026372605
0.1835382529
0.02823305546
-0.197127938
-0.03274372239
0.1957365806
0.03414057395
-0.2044975612
-0.04944059843
0.1034608347
0.09756043413
0.02428924025
0.02862765051
-0.03513676866
-0.1086859519
0.1081240348
0.03569868579
-0.02834210636
-0.2525540469
0.05337792063
-0.02871192787
0.1277344614
0.1284956991
-0.04768434891
-0.2694674055
0.2720184748
0.04512293849
-0.2837251466
-0.03371184435
0.2857609152
0.03165464957
-0.274368484
-0.023577778
0.2783942153
0.0195292607
-0.008549322125
-0.2490127793
0.2519887414
0.005564770562
-0.4686761661
-0.00342478516
0.4691725343
0.002928417011
-0.4642372314
-0.002040136122
0.4649408844
0.00133648311
0.0002703035686
0.9227943403
-0.000478890739
-0.0007399216322
-0.0001253416185
0.9190951274
-0.0001579483062
0.9168672043
0.9157445712
-0.001295758604
0.913774096
-0.002494337014
0.9127311672
-0.00341787023
0.9105660534
-0.001655208218
0.90700698
-0.002473001469
-0.4511751103
0.4510761876
-0.001556285585
-0.4476670781
0.001502973297
0.4474412969
-0.001277192104
-0.4422854038
0.0009615957499
0.4409336792
8.364528877e-05
0.0003084193365
-0.1966538254
-0.002418445375
0.1952777386
0.003808253281
-0.1768343794
-0.008964350572
0.1751109568
0.01071167333
-0.1794631696
-0.01579056947
0.1780724958
0.01719995483
-0.1941916033
-0.01973480734
0.1940412597
0.01988733041
-0.08809366583
-0.0127206528
0.0877724937
0.01304182493
-0.03487203172
-0.1424730767
0.1455153402
0.03182976824
-0.03955297594
-0.2792305034
0.2820141525
0.03676365469
-0.2958088607
-0.02783057068
0.2989012198
0.02471612669
-0.2892245916
-0.01550388547
0.2921029351
0.01260085546
-0.008049315317
-0.2594152209
0.2618981986
0.005552045295
-0.4700305028
-0.00126278267
0.4706803567
0.0006129287629
-0.4654637768
-0.0001928445347
0.4658623593
-0.0002057379183
-0.001791694995
0.9228979639
0.001106365643
0.0005817057373
-0.001391294016
0.9186947264
-0.0007386599677
0.9162145703
0.9150059113
-0.001996171925
0.9157702679
-0.003906536102
0.9146415314
-0.005869656898
0.9125291742
-0.003405334552
0.9087883093
-0.004245651645
-0.4513359401
0.4515908375
-0.003660232013
-0.4475156784
0.003981068805
0.4478462623
-0.004311652647
-0.4402066341
0.004642763457
0.439812648
-0.001902619351
-0.002342445847
-0.1911719867
0.0003581454068
0.1900045526
0.0008285567998
-0.1703921939
-0.005023708415
0.1690256112
0.006421284264
-0.1758445633
-0.00966231763
0.1753163826
0.01021329447
-0.1957082345
-0.009601859014
0.1967022231
0.008609086632
-0.09159744205
-0.002083401346
0.09234060706
0.001340236338
-0.01539772091
-0.1587145551
0.159170242
0.01494203402
-0.02213343093
-0.2873450733
0.2880389364
0.02143585315
-0.3052917975
-0.01795163142
0.3068223987
0.01639542185
-0.2992169416
-0.01080050081
0.3010788507
0.008906894975
-0.003426287809
-0.2670106381
0.2685250458
0.001894458902
-0.4715778302
0.001569141404
0.4722833658
-0.002274677024
-0.4659628875
0.00249041303
0.4659417966
-0.002469322165
-0.004214400206
0.9217607525
0.002897982424
0.002453629213
-0.002898936766
0.917379263
-0.001481615577
0.9147972491
0.9135242957
-0.00266312461
0.9184333925
-0.005451941497
0.9174303483
-0.00821919
0.9152964227
-0.005168960493
0.9117516546
-0.006013574812
-0.4522107197
0.4528352574
-0.005793498175
-0.4483810605
0.006544783026
0.4492539618
-0.007417684329
-0.4397150218
0.008322021241
0.4397408252
-0.003930001756
-0.004411296896
-0.1869490829
0.002639749724
0.1859365139
-0.001602539897
-0.1653897586
-0.00198770239
0.1643000559
0.003115693482
-0.1742859973
-0.005328583391
0.1741787066
0.005463255714
-0.2002633287
-0.003420969965
0.201575282
0.002109861038
-0.09633729149
0.001040467155
0.09678571496
-0.0007228300439
-0.0007660605802
0.003455270381
-0.1558446581
0.1547433979
-0.002354010215
-0.003060607935
-0.2885452746
0.2879823213
0.003619061761
-0.3105405269
-0.00340421444
0.3111008194
0.002815013044
-0.3051620608
-0.000339506251
0.3059998674
-0.0005336318798
0.002488539902
-0.2702472866
0.2705472569
-0.002807626413
-0.4720526939
0.005500390595
0.4714037797
-0.004851476477
-0.4655860592
0.004560344019
0.4657594052
-0.004733690047
-0.006832905221
0.9193599879
0.004905311699
0.004328358091
-0.004496838088
0.9150431958
-0.00226770085
0.9125681119
0.9112565949
-0.003390857416
0.9218242499
-0.00680974732
0.9208492382
-0.01045522743
0.9189419028
-0.006835094971
0.9157658181
-0.007634296023
-0.4537916131
0.4547531279
-0.007796609785
-0.4502997492
0.008975696265
0.4514967643
-0.01017271138
-0.4400842142
0.01155733799
0.4405320194
-0.00584300376
-0.006151175428
-0.1830272856
0.004400084754
0.1820769664
-0.003419095491
-0.161296078
0.0001308470316
0.1603659303
0.0008450867808
-0.1742641531
-0.00242202514
0.1744129562
0.002304805241
-0.2055271981
0.0004842779516
0.2068299405
-0.001786641424
-0.09945490322
0.002689999978
0.09977324907
-0.001489057732
-0.0015192881
0.0133561371
-0.1453784533
0.1439275779
-0.01190526169
0.01156077193
-0.286136315
0.2858953758
-0.01132848689
-0.3129451264
0.01339072999
0.3098845149
-0.0103625426
-0.3070558689
0.009673769149
0.3066440509
-0.009300953023
0.007674859957
-0.2681845828
0.2673856593
-0.006894876515
-0.4704531701
0.00920506373
0.4692390241
-0.007990917811
-0.4658228446
0.006883554281
0.4648017193
-0.005862429017
-0.009231169796
0.9159018603
0.006540263379
0.00614903404
-0.006032640933
0.911844667
-0.002976434138
0.9095119051
0.9082801607
-0.004031043
0.925855293
-0.00813608238
0.9249542776
-0.01247750197
0.9232833224
-0.008285735463
0.9203248316
-0.008750779923
-0.4559721516
0.4571827284
-0.009496312282
-0.4529660829
0.01092540898
0.4545354562
-0.01249478221
-0.4406761916
0.01423385436
0.4419017037
-0.006961785743
-0.008481067566
-0.1791901595
0.005281841431
0.1781669824
-0.004221250977
-0.1577409527
0.0009288346687
0.1569161625
-5.060283631e-05
-0.1752135997
-0.0009732206805
0.175633908
0.0005882002809
-0.2107213953
0.003155642313
0.2120274666
-0.00446167103
-0.1018836467
0.004092403032
0.1021936535
-0.002180641385
-0.002221768475
0.01658273446
-0.1341930129
0.1328091113
-0.01519883286
0.0204746007
-0.2847113875
0.284972795
-0.02075243692
-0.3093012466
0.01669159016
0.3139257684
-0.02135652074
-0.3043934415
0.02238669243
0.3033631879
-0.02139564868
0.01222620223
-0.2616487971
0.2592823772
-0.009875698598
-0.4678033729
0.01230597557
0.4661470091
-0.01064961182
-0.4637348245
0.009173259941
0.4624427294
-0.007881164822
-0.01137917815
0.9131944925
0.007251330151
0.006835215867
-0.007373021096
0.90783851
-0.003595622648
0.9057345067
0.9046845381
-0.008268096977
0.93412339
-0.01676582933
0.9334520099
-0.02547234918
0.9319898423
-0.009669143085
0.929666488
-0.02514486249
-0.4586817501
0.4601502089
-0.01113760188
-0.4561784598
0.01278810163
0.4580359361
-0.01464557794
-0.4394800071
0.01656349134
0.4362578177
-0.006224799776
-0.00708416442
-0.1757608425
0.002295016443
0.1735729646
-6.047542788e-05
-0.1545549255
-0.0005367964871
0.1546081192
0.0005445739587
-0.1773603433
0.001375537259
0.1759354187
8.803440133e-05
-0.2159858904
0.004620061263
0.2173456555
-0.002986433477
-0.002993392923
-0.05244114165
0.002675934282
0.05254202385
-0.002776816478
-0.05830833091
0.006219551055
0.05781510145
-0.01207748943
0.006351167832
0.01468076697
-0.1246724452
0.2455942243
-0.0252026868
0.01422133866
-0.1246211979
-0.2850929454
0.0268519107
0.2882846817
-0.0300696826
-0.3131203501
0.02804394525
0.3118129428
-0.02678509149
-0.2986378872
0.02171025703
0.2964600503
-0.0195757054
0.01229820833
-0.2489197255
0.2462938536
-0.009682272846
-0.4641791777
0.01443350876
0.4622135806
-0.01246791166
-0.4611031999
0.01093762494
0.4596686602
-0.009503085132
-0.0131018827
0.9092830684
0.00873565521
0.008277651633
-0.008475074947
0.9032117022
-0.004180212696
0.9014396445
0.9005043254
-0.004795664117
0.9389190541
-0.009744970968
0.9384013168
-0.0150108639
0.9372557352
-0.01028283747
0.9354482337
-0.01050977211
-0.463678312
0.4652320926
-0.01183661807
-0.4616713564
0.0135761114
0.4635612312
-0.01546598612
-0.4351364179
0.01753479126
0.4406936284
-0.01091261767
-0.01214304522
-0.1695684044
0.01222850748
0.1698707238
-0.0124821521
-0.1518629965
0.01178102282
0.1513057102
-0.01116032304
-0.1811459713
0.008607693197
0.1801810242
-0.007604835149
-0.2218516167
0.004918365191
0.2231658607
-0.003124873078
-0.003107736127
-0.05490267302
0.00549077919
0.1102349171
-0.05488269613
-0.002970699653
-0.002969627514
-0.1121608394
0.008048437761
0.11199469
-0.01568314796
0.00780085963
0.02411997723
-0.2388366772
0.2390638229
-0.02434838115
-0.2900317495
0.02769196827
0.2908484734
-0.02854703836
-0.3070302059
0.02793318045
0.3132898622
-0.03424673824
-0.2891128715
0.03008644439
0.2814644836
-0.02247518261
0.01146505847
-0.2347700806
0.2325800064
-0.009276394646
-0.4604915176
0.01532398226
0.4589444929
-0.01377695749
-0.4582194102
0.01224919253
0.456523212
-0.01055299421
-0.01258889785
0.904538043
0.008604798191
0.008729125083
-0.009186752637
0.899809557
-0.004507348335
0.8967602402
0.8959969771
-0.004987422604
0.9439064767
-0.01012062134
0.9435345156
-0.01554860421
0.9426837181
-0.01065780303
0.9413457552
-0.01078832275
-0.4668715056
0.4684987215
-0.01228501901
-0.465453101
0.01404489062
0.4673277086
-0.01591949826
-0.450071893
0.0179487277
0.460610236
-0.01431646224
-0.0141589132
-0.1753271802
0.02215755442
0.1788028488
-0.02559250503
-0.1516431688
0.03276376471
0.1527670746
-0.03382792301
-0.1741316698
0.03216015307
0.1718494354
-0.02983407681
-0.2188131731
0.01728027718
0.2129238258
-0.01138167175
-0.1133879
0.008670913471
0.2269680464
-0.008882223333
-0.1133688366
-0.2261688196
0.01539919422
0.2267155243
-0.01594589887
-0.2503022178
0.02765772086
0.2556635655
-0.0330350787
-0.2970834135
0.04190670826
0.2977166008
-0.04258939676
-0.30905395
0.0391177258
0.3063674009
-0.03649087595
-0.2692934352
0.0258053985
0.2696000749
-0.02614231505
0.0114718648
-0.2306918149
0.2283878842
-0.009167934093
-0.4575637595
0.01712672038
0.45450314
-0.0140661008
-0.4547948771
0.01263207228
0.4528069375
-0.01064413268
-0.01301661226
0.8998580048
0.008930497618
0.008766152879
-0.009266486911
0.8960594317
-0.004723601345
0.8922173546
0.8912733757
-0.005041343367
0.9489478201
-0.01021051759
0.9487036898
-0.0156328221
0.9481060226
-0.01072636573
0.9471724962
-0.01073319733
-0.4701059664
0.4717156979
-0.01233609724
-0.4691616303
0.01404456211
0.4709487812
-0.015831713
-0.4678385409
0.01773044069
0.4700055582
-0.01005579139
-0.009841675338
-0.1945184637
0.02362940651
0.2014855988
-0.03057216594
-0.1608204033
0.04855361312
0.1653751048
-0.05305978044
-0.1679435326
0.06055490229
0.1683401225
-0.06090585548
-0.1988727782
0.05625197795
0.1960555271
-0.05340979789
-0.2184290901
0.0445911841
0.2136109573
-0.03976710871
-0.2384497544
0.04753370836
0.2417030494
-0.05079471286
-0.2688502154
0.06122640862
0.2713889024
-0.06379391447
-0.2968822133
0.06537100022
0.2950312148
-0.06356925865
-0.2940710181
0.05177053628
0.2883721825
-0.04611954103
-0.2527367454
0.026330929
0.2457711817
-0.01938238699
0.01105598256
-0.2265072868
0.2259162241
-0.01046491994
-0.4538042704
0.01760819075
0.4511462046
-0.01495012488
-0.4499858781
0.01158036683
0.4484199691
-0.0100144578
-0.01226969714
0.893680939
0.009497809311
0.008948953661
-0.006900730821
0.8906904654
-0.004792419468
0.8901090433
0.8864809563
-0.004976269358
0.9539240895
-0.0100585945
0.953786015
-0.01534598428
0.9533934124
-0.01053771283
0.9527872876
-0.01042306285
-0.4732622829
0.4747928587
-0.01206828866
-0.4726721536
0.01367377099
0.4743282161
-0.01532983349
-0.4719311523
0.01705569491
0.4737412653
-0.009496765587
-0.009369042228
-0.2266886731
0.01060015562
0.2343561407
-0.01826453194
-0.1850935505
0.04607190093
0.1935228304
-0.05447248367
-0.1762268193
0.07481456473
0.1811429565
-0.07969523757
-0.1944341884
0.08894841684
0.1958761792
-0.09036517053
-0.2029319644
0.08459155626
0.2031640627
-0.08481618377
-0.2462739257
0.09196194687
0.2462874533
-0.09198728601
-0.2719261243
0.08968592591
0.2697773994
-0.08756735688
-0.2833372724
0.07570276897
0.2774241686
-0.06982860806
-0.26648586
0.04733037432
0.2578159725
-0.03868748599
-0.2255036046
0.01288564488
0.2245399833
-0.01192215319
0.01036898704
-0.2243049523
0.2238058638
-0.00986989855
-0.4474809996
0.01681858584
0.4457538852
-0.01509147141
-0.4468565413
0.01344250943
0.4452612599
-0.01184722804
-0.01151735913
0.8865883388
0.01020583865
0.00840412062
-0.006542800105
0.8857159064
-0.004444344329
0.8880105875
0.882036612
-0.004817762451
0.9587418519
-0.009717849954
0.9586861025
-0.01476999329
0.9584455557
-0.01013423311
0.9580822561
-0.00993072868
-0.4762458435
0.4776670177
-0.0115554073
-0.4759039592
0.01302812072
0.4774013385
-0.01452550007
-0.4754334896
0.01606012522
0.4770106899
-0.008897823634
-0.008739501865
-0.2372399043
0.009715525844
0.237653586
-0.01012920748
-0.2226168518
0.01621033106
0.2329254258
-0.02651385796
-0.2017415608
0.0551294424
0.2100323653
-0.06340341389
-0.2023956448
0.08188972237
0.2049187086
-0.08439803165
-0.2133852283
0.09119662461
0.217320142
-0.09512810517
-0.2428868209
0.0949754307
0.2408710177
-0.09297024559
-0.2575959453
0.08180957646
0.2521093944
-0.07634353031
-0.2549188035
0.05498105897
0.2463836383
-0.0464644645
-0.2294898267
0.01841952165
0.2236095729
-0.01254129547
-0.2231080439
0.01122817077
0.222686006
-0.01080613287
0.009552381161
-0.2224595155
0.2220451105
-0.009137976205
-0.4441326521
0.01573917529
0.4426175985
-0.01422412171
-0.4437720617
0.01274935796
0.4423224581
-0.01129975442
-0.01439869369
0.8813985592
0.009692570538
0.009895902822
-0.00946349166
0.8807807044
-0.001882009971
0.8804291058
0.880154602
-0.004589609569
0.9633314615
-0.009237861767
0.9633343547
-0.01398673172
0.9631944257
-0.009578258179
0.9629931304
-0.009319347796
-0.4790048403
0.4803036226
-0.01087704052
-0.4788126707
0.01220591819
0.4801443312
-0.01353757867
-0.4784740265
0.01487941575
0.4798268602
-0.008193132339
-0.008039117055
-0.2387805427
0.008891382865
0.2391221644
-0.009233004523
-0.2378288684
0.01024023183
0.2381570121
-0.01056837559
-0.2358954274
0.01152969385
0.2370099436
-0.01264390653
-0.2154646662
0.0292311638
0.2200661279
-0.03382976775
-0.225817218
0.04628916448
0.2278130853
-0.04828463644
-0.2334998293
0.04664382112
0.2309373144
-0.04408519781
-0.2338095023
0.03078543258
0.2277326738
-0.02471243247
-0.2239160036
0.01239852027
0.2236666803
-0.01214919692
-0.222538825
0.01130739998
0.2222331636
-0.01100173855
-0.2215609459
0.0100351474
0.22122774
-0.009701941547
0.008688570599
-0.2209308
0.2205875277
-0.008345298317
-0.4412048282
0.01450756523
0.4398910883
-0.01319382534
-0.4409824695
0.01189320058
0.4396851867
-0.01059591782
-0.01360130953
0.8766117439
0.00906601239
0.00932211244
-0.008977547996
0.8761569428
-0.004457909778
0.8759094677
0.8756966922
-0.004314507742
0.9676459693
-0.008666431969
0.9676862789
-0.01307378921
0.9676017829
-0.008927602055
0.9674904322
-0.008643488937
-0.4815170007
0.4826933008
-0.01010390217
-0.4813924516
0.01129090169
0.4825657153
-0.01246416539
-0.4810762729
0.01362868563
0.4822291527
-0.007456503805
-0.007325061588
-0.2400531975
0.008056505724
0.2403360787
-0.008339386895
-0.2390384551
0.009158232576
0.239301249
-0.009421026471
-0.2377200147
0.01016068866
0.2379143974
-0.01035507127
-0.2231849967
0.0104569687
0.2232211026
-0.01049307462
-0.2303035628
0.01151703661
0.2303774787
-0.01159095245
-0.2277994733
0.01160702193
0.2277672962
-0.01157484475
-0.2251662017
0.01133791879
0.2250461212
-0.01121783826
-0.223019257
0.01075090442
0.2228318826
-0.01056353002
-0.2214281363
0.009922440412
0.2211920486
-0.009686352753
-0.2203344758
0.008927168012
0.2200681162
-0.008660808423
0.007835002761
-0.2196649925
0.219378277
-0.0075482873
-0.4386708743
0.01323127324
0.4375385733
-0.01209897224
-0.4384931064
0.01096053728
0.4373420275
-0.009809458479
-0.01268168231
0.8722462413
0.008383131372
0.008664053501
-0.008404256046
0.8718795166
-0.004182926316
0.8716881379
0.8715137659
-0.004012935685
0.9716589049
-0.008045553475
0.9717188967
-0.01209736206
0.9716535915
-0.008236477058
0.9715740429
-0.007944495733
-0.4837825512
0.4848401487
-0.009294074567
-0.4836621711
0.0103478706
0.484691301
-0.01137700046
-0.4832923361
0.01238540928
0.4842725482
-0.006737576007
-0.00662804541
-0.2411085419
0.007254145069
0.2413440685
-0.007489671654
-0.2400097662
0.008161665066
0.2402222995
-0.008374198332
-0.238407631
0.008950846979
0.2385470121
-0.009090228098
-0.2233902224
0.009149875583
0.2234609968
-0.009220650011
-0.2305311633
0.01000511582
0.2305664071
-0.01004035967
-0.2276768017
0.01003490083
0.2276479785
-0.01000607765
-0.2247301265
0.009817750425
0.2246370138
-0.009724637766
-0.2223381191
0.009364035287
0.2221929968
-0.009218912921
-0.2205636046
0.008718218117
0.2203773051
-0.008531918672
-0.2193492402
0.007925068519
0.2191333717
-0.007709200041
0.007029458131
-0.2186110482
0.2183700172
-0.006788427049
-0.4364872142
0.01198429522
0.4355111041
-0.01100818511
-0.4362882342
0.01001423525
0.4352708463
-0.008996847337
-0.01170792364
0.8682971257
0.007686180228
0.007970859057
-0.007786639831
0.8679582328
-0.003883500307
0.8677849984
0.8676302656
-0.0037007734
0.9753596784
-0.007407077387
0.9754252007
-0.01110508394
0.9753515981
-0.007538255474
0.9752597379
-0.007252523488
-0.4858122288
0.4867582755
-0.008484302275
-0.485651953
0.009416852566
0.4865532486
-0.01031814812
-0.48517998
0.01119271067
0.4860202089
-0.006067419357
-0.005965520275
-0.2419888216
0.006505279039
0.242186049
-0.006702506497
-0.2407992655
0.007259945058
0.2409735165
-0.007434196075
-0.2389054201
0.007892542506
0.2390078773
-0.007994999655
-0.2237043384
0.008039841495
0.223793897
-0.008129400066
-0.2306391178
0.008742831459
0.230654847
-0.008758560596
-0.2275645036
0.008735597387
0.2275375017
-0.008708595555
-0.2243866771
0.008551749401
0.224311516
-0.008476588286
-0.2218051148
0.008188685933
0.2216895522
-0.008073123297
-0.219876414
0.007672862946
0.2197264949
-0.007522943927
-0.2185468369
0.007029915607
0.2183695853
-0.006852664024
0.006287722216
-0.2177275206
0.2175240662
-0.006084267754
-0.4346039526
0.01080437134
0.4337599826
-0.009960401356
-0.4343418276
0.009092471136
0.4334441728
-0.008194816434
-0.01072853515
0.8647421187
0.007004268073
0.00727927404
-0.007157324621
0.8643870222
-0.003576156635
0.8642038304
0.864054109
-0.003391239918
0.9787509183
-0.006777169274
0.9788111301
-0.01013496463
0.9787093934
-0.006860464167
0.9785735058
-0.006588268311
-0.4876230811
0.488467111
-0.007704494099
-0.487394505
0.008528922504
0.4881840599
-0.009318477403
-0.4867990651
0.01007758309
0.4875218103
-0.005447069561
-0.005353258637
-0.2427285184
0.005821327692
0.2428952842
-0.005988093467
-0.2414499807
0.006456125249
0.2415949039
-0.006601048378
-0.2392742396
0.006971370497
0.239351283
-0.007048413859
-0.2240820482
0.007095865504
0.2241833317
-0.007197148964
-0.2306834468
0.007679467263
0.230687928
-0.007683948485
-0.2274586499
0.00764952178
0.2274330581
-0.007623929959
-0.224106309
0.007489518479
0.2240438504
-0.00742705981
-0.2213768183
0.007190949008
0.2212825507
-0.007096681365
-0.2193196887
0.006769931098
0.2191968483
-0.00664709073
-0.2178848717
0.006240350541
0.2177374644
-0.006092943294
0.005618750357
-0.2169828216
0.2168102834
-0.005446212108
-0.4329737511
0.009716019461
0.4322412879
-0.008983556297
-0.4326252267
0.00822397194
0.4318326898
-0.007431435059
-0.009780513766
0.8615504275
0.006356612934
0.006615592048
-0.006542080966
0.8611485894
-0.003274036617
0.8609357861
0.8607800724
-0.003093064057
0.9818439823
-0.00617286717
0.9818909332
-0.00921104639
0.9817475726
-0.006218573492
0.9815462475
-0.005965214681
-0.4892353859
0.4899874942
-0.006970681783
-0.4889214067
0.007699633095
0.4896141133
-0.008392339686
-0.4881933407
0.009053074767
0.4888179704
-0.004882493327
-0.004795211133
-0.2433560117
0.00520460172
0.2434983688
-0.005346958781
-0.2419937697
0.005744546555
0.2421158909
-0.005866667823
-0.2395540764
0.006170287173
0.2396135709
-0.006229781683
-0.2244985405
0.006288924673
0.224606485
-0.006396869234
-0.2306897073
0.006777185069
0.2306870229
-0.006774500625
-0.2273582514
0.006732618686
0.2273339589
-0.006708326168
-0.223871438
0.006590947028
0.2238184212
-0.006537930137
-0.2210248668
0.006340178391
0.2209464296
-0.006261741093
-0.2188608582
0.005990170831
0.2187585865
-0.005887899134
-0.2173319629
0.005547627891
0.2172078849
-0.005423549964
0.005021405186
-0.2163500745
0.21620246
-0.004873790719
-0.4315578309
0.008725936651
0.4309198172
-0.008087922912
-0.4311098639
0.007421217453
0.4304090613
-0.006720414864
-0.008886029974
0.8586881386
0.00575486201
0.00599345687
-0.005957048393
0.8582196079
-0.002985487282
0.857964225
0.8577945851
-0.0028125499
0.9846565322
-0.005606290416
0.9846846737
-0.008349930659
0.9844912129
-0.005622817226
0.9842110703
-0.005391936216
-0.4906699621
0.4913401601
-0.006293015236
-0.4902616662
0.006938309773
0.4908708443
-0.007547487897
-0.489399809
0.008124758098
0.4899424538
-0.004372764692
-0.004294638197
-0.2438932756
0.004651748896
0.2440158798
-0.004774353084
-0.2424537893
0.005115663061
0.2425578122
-0.005219686022
-0.2397724359
0.00547202045
0.2398198026
-0.005519387174
-0.2249357035
0.005593968048
0.2250466568
-0.005704921359
-0.2306711062
0.006005237538
0.2306635418
-0.00599767308
-0.2272629647
0.00595094858
0.2272399049
-0.005927888754
-0.2236709001
0.005824009564
0.2236251848
-0.00577829427
-0.2207303075
0.005609948667
0.2206639967
-0.005543637884
-0.2184769863
0.005314562357
0.2183906798
-0.005228255825
-0.2168648017
0.004940136965
0.2167592469
-0.004834582255
0.00449037567
-0.2158077772
0.2156804982
-0.004363096705
-0.4303231012
0.007836721844
0.4297646894
-0.007278309996
-0.4297696972
0.006690970943
0.4291484916
-0.006069765302
-0.008059507666
0.8561204078
0.005205977184
0.005421261265
-0.005413111156
0.8555732113
-0.002716246839
0.8552673607
0.8550783383
-0.002553146983
0.9872096792
-0.005083818409
0.9872153452
-0.007559640496
0.986967035
-0.005078627187
0.9866006088
-0.004870551791
-0.4919470615
0.4925449439
-0.00567650956
-0.4914411697
0.006248947639