/*--------------------------------*- C++ -*----------------------------------*\
| =========                 |                                                 |
| \\      /  F ield         | OpenFOAM: The Open Source CFD Toolbox           |
|  \\    /   O peration     | Version:  v1912                                 |
|   \\  /    A nd           | Website:  www.openfoam.com                      |
|    \\/     M anipulation  |                                                 |
\*---------------------------------------------------------------------------*/
FoamFile
{
    version     2.0;
    format      ascii;
    class       surfaceScalarField;
    location    "0.73";
    object      meshPhi;
}
// * * * * * * * * * * * * * * * * * * * * * * * * * * * * * * * * * * * * * //

dimensions      [0 3 -1 0 0 0 0];
oriented        oriented;


internalField   nonuniform List<scalar> 
25162
(
0
0
0
0
0
0
0
0
0
0
0
0
0
0
0
0
0
0
0
0
0
0
0
0
0
0
0
0
0
0
0
0
0
0
0
0
0
0
0
0
0
0
0
0
0
0
0
0
0
0
0
0
0
0
0
0
0
0
0
0
0
0
0
0
0
0
0
0
0
0
0
0
0
0
0
0
0
0
0
0
0
0
0
0
0
0
0
0
0
0
0
0
0
0
0
0
0
0
0
0
0
0
0
0
8.728849026e-09
-5.2697609e-08
5.901595855e-07
0
-1.820348264e-08
-5.016709488e-07
0
0
0
0
0
0
0
0
0
0
0
0
0
0
0
0
0
0
0
0
0
0
0
0
0
0
0
0
0
0
0
0
0
0
0
0
0
0
0
0
0
0
0
0
0
0
0
0
0
0
0
0
0
0
0
0
0
0
0
0
0
0
0
0
0
0
-4.107363844e-08
6.976675515e-07
3.749740386e-06
-4.49151037e-06
-1.458886094e-05
4.187115309e-05
3.392602179e-05
-5.951101107e-05
-1.904343005e-05
0.000109274403
3.320973615e-05
-0.0001212594486
2.358730229e-06
0.0001351406387
-4.079586514e-06
-0.0001319274882
1.870294714e-05
0.0001022958823
-3.337656707e-05
-8.751148438e-05
8.983860531e-06
3.894544935e-05
-2.416069006e-05
-2.441873196e-05
0
7.479041619e-07
-5.709758503e-07
0
0
0
0
0
0
0
0
0
0
0
0
0
0
0
0
0
0
0
0
0
0
0
0
0
0
0
0
0
0
0
0
0
0
0
0
0
0
0
0
0
0
0
0
0
0
0
0
0
0
0
-1.991431863e-06
1.144003683e-06
1.018195267e-05
-8.601437556e-06
-7.252641329e-05
8.202914032e-05
0.0001133746095
-0.0001188996721
-0.0001335002482
0.0002390309818
0.0001767061323
-0.0002756911441
-9.156637024e-05
0.0003560747148
0.0001136485851
-0.0003707327754
1.234150301e-05
0.0003767487356
-1.60236252e-05
-0.0003669962105
9.452129182e-05
0.0003091127608
-0.0001182924149
-0.0002823831666
0.0001021537308
0.0001900915627
-0.000134911579
-0.0001578586812
4.204600772e-05
6.779911012e-05
-6.871079241e-05
-4.301246556e-05
0
1.107223761e-06
-1.526151477e-06
0
0
0
0
0
0
0
0
0
0
0
0
0
0
0
0
0
0
0
0
0
0
0
0
0
0
0
0
0
0
0
0
0
0
0
0
0
0
0
0
0
0
0
0
0
6.57092077e-07
-2.866086207e-07
-8.375236765e-05
4.090462918e-05
0.0001209711383
-7.395942393e-05
-0.0002710192356
0.0002121395204
0.000329224623
-0.0002619587474
-0.0003141427558
0.0003919853412
0.000356820602
-0.0004238928194
-0.0001755705263
0.000479658844
0.0001921622167
-0.0004862307958
2.824217513e-05
0.0004772376389
-3.206548346e-05
-0.0004656285927
0.0001904286739
0.0004059336539
-0.00021303296
-0.0003782488512
0.0002386868613
0.0002791372531
-0.0002727250319
-0.0002441444499
0.0001744618218
0.0001346321107
-0.0002078803576
-0.0001122581463
4.333285755e-05
3.793639075e-05
-6.665420838e-05
-1.967704575e-05
0
0
0
0
0
0
0
0
0
0
0
0
0
0
0
0
0
0
0
0
0
0
0
0
0
0
0
0
0
0
0
0
0
0
0
0
0
0
0
0
0
0
-2.04960875e-05
2.680273706e-06
3.351912925e-05
-1.247990685e-05
-0.0002648555013
8.645008528e-05
0.0003125959768
-0.0001229631613
-0.0004985376524
0.000240960833
0.0005481759082
-0.0002747021446
-0.0004563851372
0.0003387646275
0.0004847743779
-0.000355616859
-0.0002221763178
0.000362310722
0.0002259966423
-0.0003620015711
3.981092066e-05
0.0003573911821
-4.068412285e-05
-0.0003551759054
0.0002737235902
0.0003297206633
-0.0002876865238
-0.0003138136869
0.00037733984
0.0002366279283
-0.0004061771081
-0.0002101744488
0.000311935297
0.0001360581013
-0.0003427729064
-0.0001137006774
0.0001447073752
5.527299861e-05
-0.0001697857439
-3.861280689e-05
3.17386772e-06
4.60782148e-06
-8.017950792e-06
-4.754190361e-08
0
0
0
0
0
0
0
0
0
0
0
0
0
0
0
0
0
0
0
0
0
0
0
0
0
0
0
0
0
0
0
0
0
0
0
5.772915778e-07
-4.894794031e-10
-6.893727504e-09
-7.740274731e-05
5.321746336e-06
9.381823787e-05
-1.318334511e-05
-0.0004375120809
5.750164182e-05
0.0004639198859
-6.979870161e-05
-0.0006603760089
0.0001208458253
0.0006843332269
-0.0001315276713
-0.0005117529593
0.0001380015317
0.0005105306506
-0.0001316144124
-0.0002288695807
0.0001226673808
0.0001094023341
0.0001231739921
-7.168449422e-05
-5.468963207e-05
7.278698299e-05
1.249545764e-05
-1.260459926e-05
-7.267784138e-05
6.911177918e-05
0.0003138913205
-0.0001229145695
5.379185941e-05
-0.0001646350261
-0.0001492453635
9.822618271e-05
0.0004760510355
-0.0004932706189
-8.432180309e-05
0.0004183556346
4.966234828e-05
-0.0004413961292
-3.591588959e-05
0.0002359841301
1.394026102e-05
-0.0002565938692
-1.186005519e-05
4.033429006e-06
3.49653553e-05
-4.489680461e-05
-1.486755505e-06
0
0
0
0
0
0
0
0
0
0
0
0
0
0
0
0
0
0
0
0
0
0
0
0
0
0
0
0
0
0
0
0
0
-2.424671624e-06
0
5.212021955e-06
2.06757569e-07
4.822859448e-07
-0.0001280937154
-6.382872414e-06
0.00013227075
1.216008951e-05
-0.0005358143069
-3.608868128e-05
0.0005448670718
4.492627979e-05
-0.0007269547118
-7.333935166e-05
0.0007324214554
8.281078488e-05
-0.0005024424111
-0.0001059569691
0.0005000288256
0.0001102477117
-0.0001237983102
-4.858762146e-05
0.0001240542882
4.83316434e-05
-4.76631262e-05
0.0001488802614
-0.0001488112225
4.759408728e-05
-0.0001117320274
0.0005326068108
-0.0005394303783
0.0001143104861
0.0004916306683
-0.0001033834432
-0.0004995947146
9.393186536e-05
0.0002984431483
-5.536797521e-05
-0.0003050066881
4.194175107e-05
-1.247321985e-05
6.741986351e-05
-7.724347113e-05
5.187724794e-06
0
0
0
0
0
0
0
0
0
0
0
0
0
0
0
0
0
0
0
0
0
0
0
0
0
0
0
0
0
0
0
0
0
-6.785460581e-06
0
8.575371097e-06
1.697958595e-06
2.226627792e-06
-0.0001535572964
-2.472276644e-05
0.0001580713754
4.527600914e-05
-0.0005757003394
-0.0001324325355
0.0005819308412
0.0001663276829
-0.0007448890938
-0.0002646271333
0.0007473280774
0.0002917800762
-0.0004960602894
-0.0003398471791
0.0004953838155
0.0003421500859
-0.000123577688
-0.0001640814362
0.0001235578682
0.0001641012561
-0.0001650027707
0.0001486859592
-0.0001485909724
0.0001649077839
-0.0003435213003
0.0005526610009
-0.0005548182129
0.0003410691463
0.000525889195
-0.0002944253406
-0.0005311923294
0.0002671473469
0.0003304906212
-0.0001646355504
-0.0003357639601
0.0001284555978
-3.780855069e-05
8.923717421e-05
-9.316408551e-05
1.823439095e-05
0
0
0
0
0
0
0
0
0
0
0
0
0
0
0
0
0
0
0
0
0
0
0
0
0
0
0
0
0
0
0
0
0
-1.031133054e-05
0
1.269679887e-05
4.238419379e-06
5.164065794e-06
-0.0001693072489
-4.670010388e-05
0.0001738442677
8.313893796e-05
-0.0005972084805
-0.0002343412863
0.0006032259724
0.000292022456
-0.0007532512224
-0.0004552526013
0.0007554797451
0.0004988337861
-0.000493806033
-0.0005710957831
0.0004932919769
0.0005730764662
-0.0001233221048
-0.0002793416124
0.0001233799698
0.0001377751702
0.0001415085773
-0.0002814550848
0.0001479735148
-0.0001478051161
0.0002812866861
-0.0005745864741
0.0005525722192
-0.0005504162494
0.0005652082738
0.0005280731246
-0.0004731501881
-0.0005258660843
0.0004253589636
0.0003323407102
-0.0002570319597
-0.000330461838
0.0002003321889
-5.952395766e-05
9.047775512e-05
-8.92601502e-05
2.884341723e-05
0
0
0
0
0
0
0
0
0
0
0
0
0
0
0
0
0
0
0
0
0
0
0
0
0
0
0
0
0
0
0
0
0
-1.530083872e-05
0
1.829091729e-05
8.713295691e-06
1.0193363e-05
-0.000188022208
-7.41346017e-05
0.0001930094005
0.0001279010907
-0.0006215231801
-0.0003456191304
0.0006277959146
0.0004272386084
-0.0007620053895
-0.0006537125393
0.0007641597601
0.000712543055
-0.0004919085452
-0.0008041892198
0.0004915417119
0.000805333153
-0.0001230605798
-0.0003955533987
0.000123045966
0.0001959557233
0.0001996122891
-0.0003975387136
0.0001468483088
-0.0001465869693
0.0003972773741
-0.0008014749088
0.0005374025395
-0.0005303250273
0.0007780600643
0.0005022545367
-0.0006188226519
-0.0004986830842
0.000556802036
0.0003059213562
-0.0003230301161
-0.0002988985476
0.0002471378194
-6.531452897e-05
7.169123321e-05
-6.760823356e-05
2.819970371e-05
0
0
0
0
0
0
0
0
0
0
0
0
0
0
0
0
0
0
0
0
0
0
0
0
0
0
0
0
0
0
0
0
0
-2.190085914e-05
0
2.324091879e-05
1.595439581e-05
1.740218678e-05
-0.0002092789884
-0.0001079152676
0.0002156309019
0.0001803504525
-0.0006476741371
-0.0004663291039
0.0006551993573
0.0005716629993
-0.0007706864246
-0.0008587918757
0.0007729985052
0.0009314270101
-0.0004907759025
-0.001036931105
0.0004907454402
0.001037071098
-0.0001227827133
-0.0005113986355
0.0001227270799
0.0002538221183
0.0002576321505
-0.0005120286828
0.0001452107056
-0.0001449877613
0.0005118057385
-0.001010470054
0.0005086065275
-0.0004992358964
0.0009666043239
0.0004641473493
-0.0007497641215
-0.0004431516237
0.0006471866714
0.0002639555589
-0.0003438885279
-0.0002460826317
0.0002524997004
-5.413155572e-05
4.610046549e-05
-3.962990144e-05
1.775588721e-05
0
0
0
0
0
0
0
0
0
0
0
0
0
0
0
0
0
0
0
0
0
0
0
0
0
0
0
0
0
0
0
0
0
-3.252166304e-05
0
4.227556705e-05
2.954893139e-05
3.519162715e-05
-0.0002345609305
-0.0001521725165
0.0002510502577
0.0002428815862
-0.0006803153622
-0.0006018234817
0.0006889712603
0.000731340285
-0.0007800410146
-0.001078599863
0.0007864478065
0.001159183494
-0.0004907731268
-0.001269485557
0.0004912491883
0.0006272592106
0.0006417502847
-6.328332974e-05
-0.0003114559311
6.336789188e-05
0.0003113713689
2.978945477e-06
-0.0001553576032
-2.618581833e-06
0.0003112981256
-0.000156300886
-0.0006243066846
0.0001437213983
-0.0003031814154
0.001262578911
-0.0006384667677
0.0001596545586
0.0004729076855
-0.001184022009
-0.0004538893518
0.001105954525
0.0003981019876
-0.0008077916988
-0.0003837387382
0.0006885252969
0.0002038166079
-0.0003343754283
-0.0001922543146
0.0002320716989
-2.673000133e-05
1.645409738e-05
-1.295881141e-05
2.640550105e-06
0
0
0
0
0
0
0
0
0
0
0
0
0
0
0
0
0
0
0
0
0
0
0
0
0
0
0
0
0
0
0
0
0
-4.830909483e-05
0
3.974685784e-05
4.659413293e-05
4.421537179e-05
-0.0002760313882
-0.0002106539806
0.0002675312762
0.0003296758416
-0.0007169804508
-0.0007723199734
0.0007055790917
0.0009270167673
-0.0007822780554
-0.001320216905
0.0007785827093
0.001408890874
-0.0004844052466
-0.00150283197
0.0004844052466
0.0007443388235
0.0007584931468
-6.150475897e-05
-0.0007443388235
0.000118899899
-5.739513999e-05
0.0003701827822
0.0003741560413
1.261213724e-05
-0.0003701827859
-1.261213173e-05
0.0007443388235
-0.0003741560431
-0.00150283197
0.0003041023782
-0.0003018412362
0.001497344447
0.0004187593741
-0.001304833876
-0.0004071125091
0.001202183501
0.0003375781279
-0.000806328697
-0.0003142665146
0.0006604645233
0.0001444536995
-0.0002674543796
-0.0001301568826
0.0001728875209
-4.241485618e-06
2.562088094e-06
-1.164387866e-06
0
0
0
0
0
0
0
0
0
0
0
0
0
0
0
0
0
0
0
0
0
0
0
0
0
0
0
0
0
0
0
0
0
0
-2.473490221e-05
0
9.059257118e-06
2.433834571e-05
1.565288111e-05
-0.0002080070383
-0.0001730219275
0.000179738246
0.0002927942004
-0.0006193910296
-0.0007713271187
0.0005745499932
0.0009470824486
-0.000740136118
-0.001418031255
0.0007143326216
0.001535477356
-0.0004954548341
-0.001725381665
0.0005009418842
0.00173746172
-0.000118899899
-0.001735323284
0.0002213654346
0.001735323284
-0.0001024655356
4.166357938e-05
-0.001735323284
-4.166357938e-05
0.001735323284
0.0002854819914
-0.001699140566
-0.0002757291573
0.001646825552
0.000358758139
-0.001344610771
-0.0003405458061
0.001204308626
0.0002546519869
-0.0007291779229
-0.0002372872046
0.0005711369541
8.203864913e-05
-0.0001761253348
-6.650030454e-05
9.185781798e-05
0
0
0
0
0
0
0
0
0
0
0
0
0
0
0
0
0
0
0
0
0
0
0
0
0
0
0
0
0
0
0
0
0
0
0
0
0
-2.208747544e-07
0
0
1.469941615e-07
0
-8.78142148e-05
-6.514545221e-05
5.996743491e-05
0.0001475337638
-0.0004044448768
-0.0005525940624
0.0003410563598
0.0007208381921
-0.0005878477175
-0.001228178925
0.0005303336594
0.001376967174
-0.0004724646527
-0.001706716962
0.0004460207356
0.001774805785
-0.0002188257917
-0.001876640797
0.0002109949603
0.001885151023
3.99607922e-05
-0.001852049881
-3.743396392e-05
0.001818318303
0.0002323722776
-0.001622161432
-0.0002134381386
0.001521541895
0.0002699895831
-0.001127887015
-0.0002422699619
0.0009759125404
0.0001707368796
-0.000515762663
-0.0001451745158
0.0003767191738
2.842220147e-05
-6.981223084e-05
-1.713865668e-05
1.920645251e-05
0
0
0
0
0
0
0
0
0
0
0
0
0
0
0
0
0
0
0
0
0
0
0
0
0
0
0
0
0
0
0
0
0
0
0
0
0
0
0
0
0
0
-6.132359368e-06
-1.587952588e-07
1.002111586e-06
1.205856179e-05
-0.000159387288
-0.0002132064639
0.0001088612754
0.0003261657021
-0.000332215206
-0.0007313612844
0.000265211684
0.0008696585387
-0.0003251877977
-0.001227490878
0.0002764446775
0.001317382808
-0.0001655662791
-0.001479716886
0.000145094628
0.001497535714
2.543679229e-05
-0.001445939548
-2.087311698e-05
0.001394998119
0.0001476285879
-0.001150625004
-0.0001243861825
0.001043261208
0.0001526930624
-0.0006760725076
-0.0001226673321
0.0005492868978
6.764248519e-05
-0.0002086868318
-4.472086848e-05
0.0001221959621
2.527717156e-07
-5.268185769e-07
0
0
0
0
0
0
0
0
0
0
0
0
0
0
0
0
0
0
0
0
0
0
0
0
0
0
0
0
0
0
0
0
0
0
0
0
0
0
0
0
0
0
0
0
0
0
0
0
-1.218307532e-05
-5.821782395e-06
1.879089303e-06
2.722899251e-05
-9.461854479e-05
-0.0001915253625
5.446752405e-05
0.0002669822547
-0.0001326934818
-0.0004986850225
9.201630917e-05
0.0005657767722
-7.894379367e-05
-0.0007008792817
5.830359133e-05
0.000719164379
9.015383199e-06
-0.0006886317234
-6.143237345e-06
0.0006517598379
5.897722803e-05
-0.0004793169952
-4.064872981e-05
0.0004079290667
4.321959492e-05
-0.0001888266093
-2.365470824e-05
0.0001246172616
2.322348178e-06
-7.174928723e-06
-6.54072081e-09
7.745941769e-08
0
0
0
0
0
0
0
0
0
0
0
0
0
0
0
0
0
0
0
0
0
0
0
0
0
0
0
0
0
0
0
0
0
0
0
0
0
0
0
0
0
0
0
0
0
0
0
0
0
0
0
0
0
0
-2.88495442e-07
0
0
1.035105767e-06
-1.18950281e-05
-2.846235174e-05
1.863150659e-06
4.415464322e-05
-1.210187116e-05
-8.604571522e-05
4.024218726e-06
9.336159472e-05
1.00149288e-06
-8.6460703e-05
-2.884065884e-07
7.531731256e-05
4.400847116e-06
-2.982752924e-05
-3.708903531e-07
1.642080669e-05
0
0
0
0
0
0
0
0
0
0
0
0
0
0
0
0
0
0
0
0
0
0
0
0
0
0
0
0
0
0
0
0
0
0
0
0
0
0
0
0
0
0
0
0
0
0
0
0
0
0
0
0
0
0
0
0
0
0
0
0
0
0
0
0
0
0
0
0
0
0
0
0
0
0
0
0
0
0
0
0
0
0
0
0
0
0
0
0
0
0
0
0
0
0
0
0
0
0
0
0
0
0
0
0
0
0
0
0
0
0
0
0
0
0
0
0
0
0
0
0
0
0
0
0
0
0
0
0
0
0
0
0
0
0
0
0
0
0
0
0
0
0
0
0
0
0
0
0
0
0
0
0
0
0
0
0
0
0
0
0
0
0
0
0
0
0
0
0
0
0
0
0
0
0
0
0
0
0
0
0
0
0
0
0
0
0
0
0
0
0
0
0
0
0
0
0
0
0
0
0
0
0
0
0
0
0
0
0
0
0
0
0
0
0
0
0
0
0
0
0
0
0
0
0
0
0
0
0
0
0
0
0
0
0
0
0
0
0
0
0
0
0
0
0
0
0
0
0
0
0
0
0
0
0
0
0
0
0
0
0
0
0
0
0
0
0
0
0
0
0
0
0
0
0
0
0
0
0
0
0
0
0
0
0
0
0
0
0
0
0
0
0
0
0
0
0
0
0
0
0
0
0
0
0
0
0
0
0
0
0
0
0
0
0
0
0
0
0
0
0
0
0
0
0
0
0
0
0
0
0
0
0
0
0
0
0
0
0
0
0
0
0
0
0
0
0
0
0
0
0
0
0
0
0
0
0
0
0
0
0
0
0
0
0
0
0
0
0
0
0
0
0
0
0
0
0
0
0
0
0
0
0
0
0
0
0
0
0
0
0
0
0
0
0
0
0
0
0
0
0
0
0
0
0
0
0
0
0
0
0
0
0
0
0
0
0
0
0
0
0
0
0
0
0
0
0
0
0
0
0
0
0
0
0
0
0
0
0
0
0
0
0
0
0
0
0
0
0
0
0
0
0
0
0
0
0
0
0
0
0
0
0
0
0
0
0
0
0
0
0
0
0
0
0
0
0
0
0
0
0
0
0
0
0
0
0
0
0
0
0
0
0
0
0
0
0
0
0
0
0
0
0
0
0
0
0
0
0
0
0
0
0
0
0
0
0
0
0
0
0
0
0
0
0
0
0
0
0
0
0
0
0
0
0
0
0
0
0
0
0
0
0
0
0
0
0
0
0
0
0
0
0
0
0
0
0
0
0
0
0
0
0
0
0
0
0
0
0
0
0
0
0
0
0
0
0
0
0
0
0
0
0
0
0
0
0
0
0
0
0
0
0
0
0
0
0
0
0
0
0
0
0
0
0
0
0
0
0
0
0
0
0
0
0
0
0
0
0
0
0
0
0
0
0
0
0
0
0
0
0
0
0
0
0
0
0
0
0
0
0
0
0
0
0
0
0
0
0
0
0
0
0
0
0
0
0
0
0
0
0
0
0
0
0
0
0
0
0
0
0
0
0
0
0
0
0
0
0
0
0
0
0
0
0
0
0
0
0
0
0
0
0
0
0
0
0
0
0
0
0
0
0
0
0
0
0
0
0
0
0
0
0
0
0
0
0
0
0
0
0
0
0
0
0
0
0
0
0
0
0
0
0
0
0
0
0
0
0
0
0
0
0
0
0
0
0
0
0
0
0
0
0
0
0
0
0
0
0
0
0
0
0
0
0
0
0
0
0
0
0
0
0
0
0
0
0
0
0
0
0
0
0
0
0
0
0
0
0
0
0
0
0
0
0
0
0
0
0
0
0
0
0
0
0
0
0
0
0
0
0
0
0
0
0
0
0
0
0
0
0
0
0
0
0
0
0
0
0
0
0
0
0
0
0
0
0
0
0
0
0
0
0
0
0
0
0
0
0
0
0
0
0
0
0
0
0
0
0
0
0
0
0
0
0
0
0
0
0
0
0
0
0
0
0
0
0
0
0
0
0
0
0
0
0
0
0
0
0
0
0
0
0
0
0
0
0
0
0
0
0
0
0
0
0
0
0
0
0
0
0
0
0
0
0
0
0
0
0
0
0
0
0
0
0
0
0
0
0
0
0
0
0
0
0
0
0
0
0
0
0
0
0
0
0
0
0
0
0
0
0
0
0
0
0
0
0
0
0
0
0
0
0
0
0
0
0
0
0
0
0
0
0
0
0
0
0
0
0
0
0
0
0
0
0
0
0
0
0
0
0
0
0
0
0
0
0
0
0
0
0
0
0
0
0
0
0
0
0
0
0
0
0
0
0
0
0
0
0
0
0
0
0
0
0
0
0
0
0
0
0
0
0
0
0
0
0
0
0
0
0
0
0
0
0
0
0
0
0
0
0
0
0
0
0
0
0
0
0
0
0
0
0
0
0
0
0
0
0
0
0
0
0
0
0
0
0
0
0
0
0
0
0
0
0
0
0
0
0
0
0
0
0
0
0
0
0
0
0
0
0
0
0
0
0
0
0
0
0
0
0
0
0
0
0
0
0
0
0
0
0
0
0
0
0
0
0
0
0
0
0
0
0
0
0
0
0
0
0
0
0
0
0
0
0
0
0
0
0
0
0
0
0
0
0
0
0
0
0
0
0
0
0
0
0
0
0
0
0
0
0
0
0
0
0
0
0
0
0
0
0
0
0
0
0
0
0
0
0
0
0
0
0
0
0
0
0
0
0
0
0
0
0
0
0
0
0
0
0
0
0
0
0
0
0
0
0
0
0
0
0
0
0
0
0
0
0
0
0
0
0
0
0
0
0
0
0
0
0
0
0
0
0
0
0
0
0
0
0
0
0
0
0
0
0
0
0
0
0
0
0
0
0
0
0
0
0
0
0
0
0
0
0
0
0
0
0
0
0
0
0
0
0
0
0
0
0
0
0
0
0
0
0
0
0
0
0
0
0
0
0
0
0
0
0
0
0
0
0
0
0
0
0
0
0
0
0
0
0
0
0
0
0
0
0
0
0
0
0
0
0
0
0
0
0
0
0
0
0
0
0
0
0
0
0
0
0
0
0
0
0
0
0
0
0
0
0
0
0
0
0
0
0
0
0
0
0
0
0
0
0
0
0
0
0
0
0
0
0
0
0
0
0
0
0
0
0
0
0
0
0
0
0
0
0
0
0
0
0
0
0
0
0
0
0
0
0
0
0
0
0
0
0
0
0
0
0
0
0
0
-0.0001497394121
0.0001497622545
-0.0001236005305
-0.0001326625043
0.000150043228
0.0001327270429
-7.703955156e-05
-7.3068215e-05
0.0001330810308
-4.792227806e-05
-0.000132821879
-0.0002648784475
-0.0001232976446
0.0001306922207
0.0001341617666
-0.0001316093414
0.000267142633
0.0001318094247
-0.0001354819195
-0.0001318607967
-0.0001323665453
-8.450649244e-05
-8.079223733e-05
-0.0003810280725
-0.0001230540417
0.0001887431323
0.0001922784021
-0.000130648827
0.0003827348386
0.0001305010607
-0.0001930291006
-0.0001895579717
-0.0001314439108
-0.0001424629439
-0.0001391575715
-0.0004967740725
-0.0001227458833
0.0002465835028
0.0002501537397
-0.000128611416
0.0004973093552
0.0001290493332
-0.0004977472723
-0.0003978390644
-0.0001303484762
-0.0003081196707
0.0003081229562
-6.328661521e-05
0.0001547287939
-1.048565366e-07
1.622023144e-07
-0.0001547861397
-0.0001538244764
0.0003081221797
3.410036053e-06
-0.0001268103693
0.0006108406366
0.0001269724857
-0.000611002753
-0.0005124142263
-0.0001282258725
-0.0003668975952
0.0003668975952
-6.150475896e-05
0.0003668976054
-1.412290643e-07
1.411854461e-07
-0.0003668975618
-0.0001555396855
7.722576514e-08
0.0007298286709
-0.0003340563188
-1.274574127e-05
-3.516868135e-06
-0.0002238410486
0.001423504904
-0.0007270661722
-0.000708135953
0.0001102813488
0.000125256921
-0.0006245048554
-0.0001266121986
-3.367562623e-05
3.349986338e-05
-0.0001236225473
-4.299973706e-06
7.276806745e-05
4.318889243e-06
3.326129118e-05
0.0001327315313
-3.29117916e-05
0.000131597837
6.985683912e-05
-0.000132342897
-1.858607444e-05
2.445253612e-05
1.854795857e-05
-2.441442025e-05
2.214570731e-05
3.598137512e-05
-2.213557519e-05
-3.599150724e-05
0.0001499581964
0.0001487709908
-0.0005087173597
0.0002845617282
0.0005089319186
-0.0002848927957
0.0005027507727
-0.0001096363854
-0.0005057211262
-0.0005131747833
0.0005151865544
-0.0004942810147
0.0001395885924
-0.0001396106214
-0.0002648564186
-0.0001398288163
-0.0001640479526
0.0001397953327
-2.05677353e-05
5.353814948e-05
2.054008848e-05
-5.351050266e-05
1.903163551e-05
4.01537649e-05
-4.032950864e-05
-1.885589177e-05
0.0002670174414
0.0001480987064
-0.0005073839211
0.0005175903929
0.0005079287616
-0.0005181513522
-0.0003437264534
-0.0005085644167
-0.0007460283939
0.0007474006846
-0.000492319324
0.0001392955027
-0.0001393185555
-0.0003810050197
-0.0002793144436
0.0001395614236
0.0001232433558
-0.0003231865442
-0.0001232730169
0.0001597617611
0.0001634544442
3.553531446e-05
8.215238659e-05
-3.542997111e-05
-0.0001634359854
8.11782555e-05
-3.543008868e-05
6.835882743e-05
-0.0001377660665
3.545917458e-05
6.937815317e-05
-1.81939321e-05
8.295619138e-05
1.829237971e-05
-8.305463899e-05
1.89677142e-05
6.888947739e-05
-6.858059499e-05
-1.92765966e-05
0.0003826355736
0.0001469475738
-0.0005014758344
0.0007449265536
0.0005040696901
-0.0007487968045
-0.0005753645214
-0.0005066807129
-0.0009785078161
0.0009789225615
-0.0004908991888
0.0001389891845
-0.0001390175701
-0.0004967456868
-0.000395505073
0.0001392471771
0.0001227710364
-0.0004390468744
-0.0001229059488
0.0002178104295
0.0002213713573
1.723890381e-05
0.0001112528223
-1.726539475e-05
-0.0001112263313
-3.530599517e-05
9.757130933e-05
-0.0001960102461
3.526273906e-05
9.848219288e-05
-3.429795715e-05
0.0002221389762
3.443543701e-05
-0.0002222764561
3.498484835e-05
0.0001972626842
-3.453344778e-05
-9.942727958e-05
-9.828680523e-05
-0.0012114174
-0.000490829604
0.0005985045756
0.0006129693018
0.0001389015881
0.0003047394027
-0.0001387758673
-0.0006129847942
-0.0005113766598
0.0001389672089
6.332155207e-05
-0.0002793904124
0.0002794306191
-6.336175879e-05
1.754613908e-05
0.0001401118946
-1.753988099e-05
-0.0001401181527
-1.747661928e-05
0.0001265099418
-0.0001264484914
1.741516883e-05
-0.0001415543574
-2.216624908e-06
0.0001411704962
2.600486139e-06
-3.309480072e-05
0.0002797107599
3.308218759e-05
-0.0002796981468
3.38113694e-05
0.000254609183
-0.0002546426108
-3.377794165e-05
-0.001388821201
-0.0004866115979
0.0006611988812
0.0007298286709
0.0001353446394
0.0003629310757
-0.0001353446393
-0.0007298286709
0.00031571392
-0.0006271651122
0.0001388968492
6.327853105e-05
-0.0003372440243
0.0003372147858
-6.324929259e-05
1.717848264e-05
0.0001690299701
-1.70854229e-05
-0.0001691230298
-1.746581019e-05
0.0001551417904
-0.0001550754397
1.739945946e-05
-0.000845896413
0.000845896413
-0.000118899899
0.000845896413
3.827349202e-06
-3.827349203e-06
-0.000845896413
-0.0003701827655
-1.412494385e-07
-3.14254789e-05
-5.12511521e-05
3.149027729e-05
2.509457774e-05
2.609177598e-05
3.153022696e-05
-7.662639797e-05
-3.146858515e-05
3.784021029e-05
3.872454587e-05
-2.23003496e-05
-3.180095656e-05
3.197104251e-05
2.213026365e-05
-4.77261809e-05
4.775373109e-05
-3.145302909e-05
3.915059061e-05
1.913475136e-05
-3.925370647e-05
2.528696077e-05
-2.532256361e-05
-1.85504716e-05
0.0001328599621
0.0001065036512
-0.0001327644847
-5.526797745e-05
-5.133115123e-05
4.016611809e-05
-2.620387176e-05
-4.007091485e-05
5.13956293e-05
-1.983462532e-05
3.90983596e-05
1.988685634e-05
6.74478777e-05
-3.53854891e-05
-0.0001341553572
6.666287996e-05
0.0001090188947
-3.537557906e-05
-0.0001090206566
3.537734096e-05
-0.0001234418908
-0.0002217053687
0.0001234249946
0.0002217222649
-3.128049228e-05
3.13209378e-05
5.407247229e-05
5.490597686e-05
1.626501211e-05
6.745537496e-05
-1.627250937e-05
-8.020186304e-05
3.156290088e-05
3.957252403e-05
4.059666509e-05
-0.0001055166909
-3.133481234e-05
5.237683918e-05
5.319417176e-05
6.784497185e-05
1.864460119e-05
-6.752185885e-05
5.477820603e-05
-5.471621969e-05
-2.062972164e-05
6.811040048e-05
0.0001100493348
-0.0001100865926
-6.807314263e-05
2.134733112e-05
-2.133382641e-05
5.476470132e-05
-1.974475389e-05
6.804595716e-05
1.954376858e-05
-1.972490191e-05
4.004404148e-05
5.359266779e-05
2.129281281e-05
0.0001062335146
6.812014595e-05
-0.0001062432601
9.660313783e-05
-3.528729238e-05
-0.0001922995521
9.567771147e-05
8.310334869e-05
-0.0001672357375
3.551174063e-05
8.415596268e-05
-0.0003378205362
0.0001231283009
0.0001671830487
0.0001707525424
-1.64034485e-05
1.640933285e-05
8.309746434e-05
1.608202018e-05
9.662835129e-05
-1.610723364e-05
1.625536884e-05
6.83684707e-05
8.206824362e-05
-1.631930553e-05
0.0001933759087
3.498102947e-05
-9.714007974e-05
-9.623201012e-05
8.376179311e-05
-8.376404484e-05
-1.819168038e-05
0.0001308240354
0.000339209051
-0.0001307615197
-0.0001713199836
-0.0001679515831
3.934790558e-05
-8.440832982e-05
-3.91854451e-05
0.0001680076625
-3.893730153e-05
0.0001933214489
3.899176139e-05
-1.994092443e-05
6.908564793e-05
-8.189470955e-05
0.000164540856
1.931004015e-05
2.034791035e-05
0.0003248436455
0.0001311450643
-0.000164362131
-0.0001608025434
0.0001255735455
-1.75438416e-05
-0.0001255063232
0.0001121380148
-0.0001120849956
1.718588462e-05
-0.0004531903371
0.0001228642373
0.0002248499789
0.0002282471573
-1.630959737e-05
1.628303973e-05
0.0001121645724
1.662415932e-05
0.0001256476114
-1.669822527e-05
1.606155722e-05
9.759177228e-05
0.0001113208847
-1.637765981e-05
0.0002511335772
3.388772432e-05
-0.0002512099321
0.0002259602794
-0.0002259836853
-3.427455127e-05
0.0001545326612
-1.750565923e-05
-0.0001544928122
0.0001411557805
-0.000141162918
1.755327658e-05
-0.0002829399174
6.331254204e-05
0.0002829489275
4.359978737e-07
0.0001415238333
-0.000141097137
-8.626941325e-07
-1.658807107e-05
1.65426967e-05
0.0001412011548
1.626582885e-05
0.0001545939807
-1.632714831e-05
1.655767721e-05
0.0001265764239
0.0001400742031
-1.655037956e-05
1.155029984e-06
-0.0001422733895
-6.140233586e-05
0.0006112769425
6.151421405e-05
-0.0003072961175
-0.0003040927032
0.0002830570509
-0.0002830217388
-3.313011279e-05
-2.208676002e-06
0.0001415158844
0.0003698713764
3.369935446e-05
-0.0003683131681
-1.852855049e-05
-1.672901222e-05
0.0001699884484
-0.0001699688108
1.715884504e-05
-0.0003407623581
6.334710332e-05
0.0003406937859
-4.101022313e-06
0.0003373581653
-0.0003377225393
4.465396317e-06
-1.461410591e-05
1.469065712e-05
0.0001699118972
2.856981586e-05
0.0003697138067
-1.564698463e-05
-1.276526148e-05
1.623647623e-05
0.0001551711431
-1.451545995e-05
0.0001689313241
0.0003340628631
-3.548701833e-06
-0.0003346151836
-0.0002816666768
0.0002843394776
-0.0004970408464
-0.0001398625253
-0.0001497057031
-0.0001400643023
-4.859745865e-05
0.0001400741395
0.0001237718266
-9.194348397e-05
9.190634858e-05
-0.0001237346912
3.54788132e-05
-3.547450458e-05
-4.773048952e-05
-3.546735116e-05
-2.24650385e-05
3.563204005e-05
-9.944594656e-06
1.729655743e-05
9.147340276e-06
-1.649930305e-05
1.051631471e-05
1.069784699e-05
-1.058234842e-05
-1.063181328e-05
-0.000207311141
0.0002073616239
-0.0001234923737
-3.539552779e-05
-0.0001054967422
-3.551131474e-05
-8.020319536e-05
3.551264705e-05
-3.807817182e-05
0.0001056026053
1.838664661e-05
-8.591108009e-05
0.0004970586658
0.000145461395
-0.0004840070362
0.0009612790516
0.0004900031205
-0.0009786543686
-0.0008068504644
-0.0004986694885
-3.597631938e-05
0.0001337976297
1.251614599e-05
-0.0001103374563
-1.732124409e-05
0.0002655868013
1.754200611e-05
-0.0001333431851
-0.0001324643782
9.388526485e-06
0.0001269646806
-0.0001269527686
-9.400438463e-06
-8.967246497e-07
0.0003337100102
1.2495775e-06
-6.358185384e-05
0.0006661817485
6.237565397e-05
-0.0006649755486
0.0006249870983
-6.132720972e-05
-0.0003141898783
-0.0003108723461
-3.548717261e-05
-7.665054011e-05
-5.125742664e-05
3.548508773e-05
-0.0001059213341
0.0001236901622
0.0001060029984
-7.443183232e-06
-3.302680745e-05
7.365384667e-06
3.310460601e-05
-1.092065811e-05
-8.47977048e-06
8.348706557e-06
1.105172204e-05
-1.704069964e-05
8.311249674e-06
1.717212342e-05
-8.442673453e-06
4.030246615e-05
-4.007252013e-05
2.191576128e-05
-2.339575155e-05
4.779309185e-05
4.022131391e-05
9.168878221e-05
0.0001325618103
-4.755272927e-05
-4.38379011e-05
0.0001262862097
9.500199586e-06
-0.0001263978828
1.090066305e-05
0.000120058016
-0.0001204371102
-1.052156888e-05
0.0001298131893
0.0004542775381
-0.0004545715222
-0.0001295192053
3.849308529e-05
-3.836316666e-05
0.0002258303608
-3.792370935e-05
0.0002510199351
3.803735138e-05
-3.878306826e-05
0.000197108451
0.0002221215481
3.85105134e-05
0.0004404346515
0.0001299949898
-0.000440616452
1.698900982e-06
0.0001489300967
-0.0001494225335
-1.206464168e-06
-0.0001610055957
4.866086272e-06
0.0001608957508
-4.756241405e-06
2.572072183e-06
0.0003213583212
-2.35531181e-06
-0.0001610543786
-0.0001605207029
-9.609188025e-06
-5.134196036e-08
9.573277078e-06
8.725290557e-08
1.013598313e-05
-5.741060597e-05
2.768364479e-05
3.12673963e-05
-7.81741499e-06
-3.859003258e-06
-1.825427655e-05
1.876442552e-05
-3.231110552e-05
1.828654636e-05
3.594138622e-05
-1.824655745e-05
-1.117249902e-05
6.702255219e-05
3.814786308e-06
8.830108887e-06
-3.581929559e-05
-3.267565278e-05
4.882686081e-06
-4.948163531e-06
-9.543710576e-06
1.996716316e-05
-2.991175782e-05
3.600575424e-05
3.688512294e-05
-3.604861401e-05
-1.888257798e-05
-1.79596852e-05
1.144665882e-05
-9.340241199e-06
1.786074554e-05
1.151183331e-05
-1.153851748e-05
1.054299888e-05
1.728081185e-05
1.14624044e-05
3.299054499e-05
3.581430947e-05
-1.689482202e-05
-1.59042782e-05
1.769461843e-05
4.708233056e-05
-4.708402431e-05
-1.769292468e-05
4.642784996e-05
1.779137223e-05
-4.652460376e-05
1.803235713e-05
7.660847894e-05
-7.651994352e-05
-1.812089255e-05
7.60299094e-05
1.81925631e-05
-7.619011537e-05
0.0001113975624
-1.090225615e-05
1.002332481e-05
-0.0001105186311
0.0001083830614
-0.0001385163157
-7.944917496e-06
3.466017641e-05
0.00021123282
-0.0002112460902
-3.46469062e-05
1.293385942e-05
-1.126789414e-05
0.0001067170961
-1.188383985e-05
0.0001116526609
1.162874136e-05
1.155894701e-05
-1.882787006e-05
9.688014989e-05
-8.961122684e-05
0.00010494365
1.359281476e-05
0.0002077689143
3.470918833e-05
-0.0001043347187
-0.0001034832075
0.0001339424707
-1.703712309e-05
-0.0001338951053
1.698975765e-05
-4.718668592e-05
-0.0002683074474
4.719038097e-05
0.0002683037524
4.715833208e-05
-0.0002794198895
0.0002794594901
-4.719793272e-05
-1.662953124e-05
0.0002797925573
1.677547781e-05
-0.0002799385039
0.0002691034202
-1.708221008e-05
-0.0001351655493
-0.0001341769049
-0.0001723073813
-5.179426598e-07
0.0001368490045
-1.705467451e-05
0.0001626894403
-0.0001626318025
1.699703671e-05
-4.705654165e-05
-0.0003261687088
4.710351926e-05
0.0003261217311
4.71116966e-05
-0.0003371933104
-4.697346635e-05
0.0001680357525
0.0001690193277
-4.713717667e-05
-0.0003113532396
4.718369326e-05
0.000311306723
-0.0003225237183
0.0003225247921
-4.705761544e-05
0.0001616059145
-1.706375689e-05
-0.0001615968321
-2.454147093e-05
-7.670014284e-06
3.418759232e-06
2.879272598e-05
-3.202804312e-05
-7.420691764e-06
3.200555165e-05
3.143667251e-05
-6.222813224e-05
-3.143455825e-05
3.060508183e-05
3.162093615e-05
9.093987511e-06
-9.150661343e-06
-3.197136928e-05
-9.056922339e-06
-2.47959398e-05
9.311391213e-06
8.134994816e-06
-6.678726802e-06
-3.84545722e-05
3.699830418e-05
-3.294987689e-05
9.017056956e-06
-6.594546076e-05
3.134782254e-05
3.260419475e-05
3.343011597e-05
3.149844886e-05
-3.365751357e-05
3.363229545e-05
-3.147323074e-05
9.319566816e-06
-9.285943308e-06
-1.707432315e-05
-9.836489208e-06
-1.052461488e-05
9.440445976e-06
2.394311242e-05
-8.978776858e-06
-2.40212579e-05
1.776301152e-05
-1.787609329e-05