/*--------------------------------*- C++ -*----------------------------------*\
| =========                 |                                                 |
| \\      /  F ield         | OpenFOAM: The Open Source CFD Toolbox           |
|  \\    /   O peration     | Version:  v1912                                 |
|   \\  /    A nd           | Website:  www.openfoam.com                      |
|    \\/     M anipulation  |                                                 |
\*---------------------------------------------------------------------------*/
FoamFile
{
    version     2.0;
    format      ascii;
    class       volVectorField;
    location    "2.1";
    object      U;
}
// * * * * * * * * * * * * * * * * * * * * * * * * * * * * * * * * * * * * * //

dimensions      [0 1 -1 0 0 0 0];


internalField   nonuniform List<vector> 
12556
(
(99.99970852 0.0007787551931 -3.65473783e-21)
(99.99937345 0.003160237581 -3.734462975e-25)
(99.99862695 0.008287599202 -3.656818541e-21)
(99.99727582 0.01825813363 -3.647331056e-21)
(99.99965827 0.0158270916 3.54069216e-21)
(99.99846732 0.02854301005 0)
(99.99753648 0.0493229122 0)
(99.99711799 0.07935618877 -6.49223485e-21)
(99.99602209 0.1213831405 7.730613159e-22)
(99.99496109 0.1769582667 -5.338902584e-21)
(99.99444201 0.2433449987 5.193291537e-22)
(99.99516567 0.3109268699 0)
(99.997058 0.3645381428 0)
(99.9994682 0.3901397142 4.325172814e-23)
(100.0024168 0.3802140826 -7.149013187e-22)
(100.0044062 0.339078892 7.146068188e-22)
(100.0051173 0.2805519962 0)
(100.0051918 0.2187887399 1.411376166e-21)
(100.0051553 0.1611968282 5.847294696e-21)
(100.0027908 0.1169393304 -1.706684131e-21)
(100.0122361 0.1381440028 -1.500796936e-20)
(100.0087748 0.08659578302 0)
(100.0067456 0.04710435358 -1.910541689e-21)
(100.006562 0.01508254372 -1.348263998e-20)
(99.99732123 0.001640801901 1.461109362e-20)
(99.99400817 0.0073536871 3.657721217e-21)
(99.9869983 0.02070332769 2.560966459e-20)
(99.97501414 0.04797665027 -1.097070937e-20)
(99.97441861 0.07343048624 3.562763259e-21)
(99.95514944 0.1348556252 -2.55813593e-23)
(99.92854131 0.2337231865 0)
(99.91266366 0.3298654889 -6.427294736e-21)
(99.8769678 0.5110358462 -6.099129669e-21)
(99.8397214 0.7548385593 -1.107193016e-20)
(99.81173624 1.055014388 -4.826670431e-21)
(99.81510608 1.374349688 -7.040259111e-21)
(99.86181879 1.64128298 -2.120173612e-21)
(99.94041383 1.778620516 -7.985516513e-22)
(100.027999 1.749209573 -2.734194559e-22)
(100.0981076 1.567869514 3.659910125e-21)
(100.1304638 1.297905 -7.926358975e-21)
(100.1285432 1.014994038 0)
(100.1494188 0.794231546 -2.525225624e-20)
(100.1118223 0.5574958068 4.919047112e-20)
(100.1148012 0.3973344054 1.453550321e-20)
(100.0841851 0.2482911995 3.030654459e-20)
(100.0654145 0.1352576098 -3.039618081e-20)
(100.0582025 0.04323310599 1.539417094e-20)
(99.99387815 0.0005106949931 -1.457856088e-20)
(99.98466283 0.005321259409 -2.923158012e-20)
(99.96522913 0.02178507945 -6.582267458e-20)
(99.9332678 0.05703443366 8.765406331e-20)
(99.91127161 0.108408405 -7.245328313e-21)
(99.85451666 0.2110808853 -7.136356757e-21)
(99.77322885 0.3761460502 -1.242626709e-20)
(99.71927406 0.5684075716 0)
(99.60546323 0.9015836363 2.512133823e-20)
(99.48351473 1.362863664 0)
(99.38615649 1.979563337 -5.792809452e-20)
(99.41103161 2.674451489 9.055378264e-19)
(99.58456197 3.223349537 5.269275194e-19)
(99.89940229 3.50949477 0)
(100.222115 3.430196383 0)
(100.4561887 3.038674754 1.397070284e-21)
(100.5527387 2.477264124 -8.610811232e-21)
(100.530813 1.88830563 -2.170863903e-20)
(100.5000138 1.375872893 -1.512653014e-19)
(100.383446 0.9506603955 -3.430713857e-20)
(100.3222911 0.6085913553 -1.505022075e-20)
(100.2374327 0.3796776559 3.427874384e-20)
(100.1850748 0.2063145197 -3.870488268e-21)
(100.162053 0.06554498053 0)
(99.99394849 -0.003887847087 -7.325215906e-21)
(99.97643314 -0.00708272763 5.134201238e-20)
(99.93957459 0.004665594186 -1.468273029e-20)
(99.8791963 0.03744954878 0)
(99.82706881 0.1064944443 0)
(99.71392946 0.234213333 -5.723169376e-20)
(99.55295686 0.445957389 -1.148031035e-19)
(99.40952996 0.720944112 2.733119777e-20)
(99.15709954 1.188691876 -1.051916082e-19)
(98.84955957 1.932506086 -1.185906955e-18)
(98.60763368 2.996896781 1.299063678e-18)
(98.61985301 4.265568076 0)
(99.17684928 5.273102296 -1.245328383e-18)
(100.0048011 5.634326996 1.552827387e-19)
(100.7191897 5.315091309 -6.644171485e-19)
(101.1435615 4.582346216 3.21128096e-20)
(101.2877043 3.627765154 1.534744939e-19)
(101.2095366 2.684109039 0)
(101.0569674 1.857686027 5.620815867e-20)
(100.8004273 1.251859278 -4.414356091e-20)
(100.6172924 0.7497062607 -3.875682758e-20)
(100.4550088 0.4603585331 1.972572725e-20)
(100.3535257 0.2481241675 -3.970199164e-21)
(100.3068918 0.07824585335 0)
(100.0050775 -0.01233265225 0)
(99.97794639 -0.03235470318 0)
(99.92150386 -0.03605328996 7.350706845e-21)
(99.82759305 -0.015823523 1.115976274e-20)
(99.73709619 0.05821082128 1.849264418e-20)
(99.55318641 0.1869081699 0)
(99.2918758 0.4071062701 0)
(99.02404197 0.735986365 0)
(98.54099485 1.343056564 0)
(97.90505561 2.419540418 1.511087522e-18)
(97.32134844 4.131204634 1.472860641e-18)
(97.422558 6.334511762 -1.2921664e-18)
(98.72342353 8.164475423 -7.32515437e-20)
(100.6642535 8.390564583 -8.410317625e-20)
(101.9566474 7.397041354 8.541157715e-21)
(102.4811053 6.024038061 0)
(102.4957636 4.63283656 9.290209914e-19)
(102.1881483 3.291529528 -7.790265996e-22)
(101.8015242 2.154344115 -9.590315431e-20)
(101.3437281 1.41190455 8.039451043e-21)
(100.9665191 0.7821068363 0)
(100.7068329 0.4745596711 4.082563212e-21)
(100.5439565 0.2515614305 -3.065014433e-21)
(100.4677752 0.07844603545 -1.017770822e-21)
(100.0359636 -0.02509543846 0)
(99.99903563 -0.07101058747 0)
(99.92331238 -0.1014490299 -1.476023868e-20)
(99.79570678 -0.1083011925 2.989862593e-20)
(99.65638044 -0.04353136439 0)
(99.40091197 0.05930177483 0)
(99.02754787 0.2547216798 2.338671784e-20)
(98.60586416 0.5923292572 4.52330428e-19)
(97.7979586 1.272770194 8.784566793e-21)
(96.61031094 2.576071415 1.670569457e-18)
(95.2218157 5.003005486 0)
(94.84245366 8.872123611 0)
(97.85018282 12.6702317 0)
(102.5206933 12.23274339 0)
(104.5213029 9.418343775 -1.688379718e-18)
(104.7169124 7.025183494 5.43325532e-18)
(104.2516991 5.171922128 6.679180607e-19)
(103.5055822 3.573562305 1.025584928e-19)
(102.675491 2.169719436 2.486011624e-20)
(101.9534719 1.381582101 -1.683923505e-20)
(101.332113 0.6865228513 0)
(100.9577604 0.4090232088 0)
(100.7258501 0.2094804838 -1.04037186e-21)
(100.6169179 0.06419769412 -3.135829336e-21)
(100.0950359 -0.04189970688 3.591202909e-21)
(100.0492667 -0.1221642659 -3.615433675e-21)
(99.9564864 -0.1898659185 7.36597034e-21)
(99.79906747 -0.2373089918 -2.700479859e-20)
(99.61217467 -0.1989224173 7.903723031e-23)
(99.28904992 -0.148683509 2.290829019e-20)
(98.81398265 -0.01891656754 -4.724835639e-20)
(98.21757851 0.2719042205 -2.270550453e-19)
(97.07410192 0.8592200109 0)
(95.14317159 2.0742992 0)
(92.29527205 4.458458299 1.592000769e-19)
(88.82391603 9.842023638 1.790783633e-19)
(93.63663815 20.98737351 0)
(107.6457731 17.96659115 0)
(108.9845654 10.7120247 1.23935782e-18)
(107.8294314 7.03897202 2.118627892e-20)
(106.4492218 4.882122537 -1.816883758e-18)
(105.0165062 3.275505332 -7.102530313e-19)
(103.587113 1.818680296 0)
(102.5461469 1.093085679 9.482612078e-21)
(101.6580967 0.4580545189 2.770179719e-21)
(101.1652903 0.2546126549 -3.269192983e-21)
(100.8669727 0.1197074444 -3.722539523e-21)
(100.725783 0.03514447968 8.920461687e-21)
(100.1895552 -0.06197086276 -3.591584227e-21)
(100.1369069 -0.1834368361 3.616738171e-21)
(100.0313071 -0.2967298737 -4.580148552e-21)
(99.85160703 -0.3954721702 -3.067131414e-21)
(99.6224906 -0.3991697073 1.304607219e-20)
(99.24762349 -0.4235576762 7.726211661e-21)
(98.69481201 -0.3962895494 -6.016469478e-21)
(97.95680183 -0.221355586 4.430387163e-19)
(96.56658933 0.0963852831 0)
(94.10697113 0.7341319987 0)
(90.21659834 1.627627977 0)
(83.39970589 2.737405729 0)
(121.1946425 21.53986036 -1.535382137e-18)
(115.2173588 9.180837966 0)
(111.2313951 5.30455736 1.635994199e-19)
(108.6162737 3.477655357 5.87869044e-19)
(106.4372024 2.221764475 7.228921664e-22)
(104.3543049 1.052355266 -5.13508485e-21)
(103.0088673 0.5561072667 2.15606199e-20)
(101.8753851 0.1026899549 -3.411656749e-21)
(101.2853764 0.02039256852 2.784006597e-21)
(100.9339663 -0.01184229411 -5.523309445e-22)
(100.7656829 -0.00729389434 -8.432514455e-21)
(100.3249152 -0.08412370254 -1.727724177e-21)
(100.2681154 -0.2511351332 -1.297515683e-21)
(100.1554499 -0.4151875544 -4.441897352e-22)
(99.96350003 -0.5717408476 1.340313999e-21)
(99.70232026 -0.62855135 -2.404829101e-23)
(99.29818645 -0.741080722 0)
(98.70370369 -0.8363253409 6.19076677e-20)
(97.88983333 -0.8217731764 -5.483805564e-20)
(96.41463632 -0.8500799232 -5.625461121e-20)
(93.90396853 -0.9039592175 -1.816281617e-19)
(90.51469664 -1.395447765 0)
(86.94295797 -3.189737544 -9.237826767e-19)
(133.9546278 7.760433988 -4.194172489e-20)
(119.8019442 3.258007936 0)
(113.5775463 1.70408463 -7.315876749e-19)
(110.0485677 0.9967777727 1.64993127e-19)
(107.3569833 0.5276066826 1.146422303e-19)
(104.7808701 -0.04495752385 -5.328501177e-21)
(103.2327565 -0.1774687688 1.227901117e-20)
(101.9279729 -0.3455316508 1.187494731e-21)
(101.281664 -0.270155569 0)
(100.8984742 -0.1731382755 4.274184782e-21)
(100.7128232 -0.05924150581 4.215483092e-21)
(100.5039502 -0.106913487 3.404881585e-21)
(100.4460866 -0.3207851588 5.120072702e-23)
(100.3327451 -0.536971295 0)
(100.1398269 -0.7535715905 1.754215985e-22)
(99.85907759 -0.8695089567 -1.787494976e-21)
(99.44989692 -1.073268259 1.890017563e-21)
(98.85228331 -1.293227343 6.253037138e-20)
(98.02914019 -1.447365828 5.512630191e-20)
(96.60351609 -1.789830113 9.03643271e-19)
(94.3030519 -2.324387524 1.415797871e-19)
(91.60652115 -3.245088073 3.670144601e-19)
(89.34626007 -4.562933004 0)
(132.1797042 -7.581600878 1.049357005e-18)
(119.8745274 -3.992748612 1.324303094e-19)
(113.8052145 -2.642232596 -1.430990371e-18)
(110.2225892 -1.935939473 6.520201776e-19)
(107.4747394 -1.474474612 0)
(104.736136 -1.291990116 4.539436288e-20)
(103.1473409 -1.001710505 0)
(101.7827556 -0.8299090642 -1.167851663e-21)
(101.1323021 -0.5829583046 -4.771905966e-21)
(100.7440218 -0.3466722531 5.31664492e-22)
(100.5532775 -0.1152358587 0)
(100.7266332 -0.1289251838 -1.677012816e-21)
(100.6706845 -0.38791593 1.690224254e-21)
(100.5625722 -0.6537519851 1.648568886e-21)
(100.3805969 -0.9288016969 -1.534814019e-21)
(100.0912666 -1.104302995 -1.761845894e-21)
(99.69990203 -1.392505602 0)
(99.13214215 -1.726830914 -3.211506071e-20)
(98.34758712 -2.034931471 -5.176054345e-20)
(97.03926515 -2.625402912 3.335295213e-20)
(94.98635232 -3.45304705 1.33705784e-19)
(92.67883095 -4.484486504 3.438501381e-19)
(90.74995021 -5.485680852 8.560887717e-20)
(124.1830183 -16.29695502 2.437041076e-18)
(116.5168234 -9.485533388 -2.680950955e-18)
(112.1064441 -6.370415581 0)
(109.199176 -4.609769411 6.052970345e-19)
(106.7724234 -3.362422024 6.468376357e-19)
(104.2043926 -2.464537852 0)
(102.7488971 -1.791393981 -2.940687682e-20)
(101.4398914 -1.288808728 -1.448212831e-20)
(100.8354382 -0.8814406377 1.08367438e-21)
(100.4680529 -0.5134083675 -3.424244807e-21)
(100.2845246 -0.1692963506 5.019766704e-22)
(100.9900966 -0.148854303 6.173105858e-21)
(100.9388193 -0.4483716668 0)
(100.8406012 -0.7567937357 -1.645360038e-21)
(100.6778907 -1.089977816 0)
(100.388474 -1.317543021 0)
(100.0369611 -1.675748869 -5.238187102e-21)
(99.52455931 -2.106094292 5.716835966e-20)
(98.81028003 -2.543728783 3.412153815e-19)
(97.65605375 -3.320546452 -4.075578976e-19)
(95.83499423 -4.355716708 1.534275845e-20)
(93.72357328 -5.512291071 -6.900881133e-21)
(91.79922062 -6.511924898 3.691338499e-21)
(115.457163 -19.5812905 -5.145862759e-19)
(111.7817628 -12.38198363 -1.534908025e-18)
(109.2651369 -8.773804341 0)
(107.296234 -6.525233573 -2.530760107e-18)
(105.4312531 -4.792633296 0)
(103.2924485 -3.386883067 2.333651455e-21)
(102.0903315 -2.444326611 -3.544187958e-20)
(100.9298541 -1.675384836 8.577220146e-21)
(100.4086057 -1.134183577 0)
(100.081866 -0.6570315511 3.947638764e-21)
(99.91552198 -0.2162072649 0)
(101.2893354 -0.1662814612 6.165244134e-21)
(101.2445422 -0.5016713599 9.738190654e-20)
(101.1587609 -0.8465503821 -1.961052222e-19)
(101.0178439 -1.225797633 -4.497942137e-22)
(100.7559692 -1.493808443 -1.547693962e-21)
(100.4470141 -1.906936366 0)
(100.0074036 -2.411141156 8.387801182e-20)
(99.37921948 -2.947932297 -3.682182399e-19)
(98.40486246 -3.857096294 3.662998215e-19)
(96.83982033 -5.058757168 0)
(94.94836384 -6.448309661 2.800455088e-19)
(93.06112158 -7.717502926 -2.302032396e-19)
(103.6969182 -28.56362508 4.245095976e-19)
(107.3309026 -18.27851233 0)
(107.1154093 -12.95650332 1.486064266e-18)
(106.1257097 -9.742901675 -2.189926811e-19)
(105.0415081 -7.497023661 -7.820881687e-19)
(103.7817112 -5.615080152 -6.063484786e-19)
(102.1716733 -3.969029102 -7.010606702e-20)
(101.2606657 -2.896875415 0)
(100.3076366 -1.961927684 0)
(99.88343994 -1.321157695 1.227043483e-20)
(99.60738991 -0.7670494565 2.267774954e-21)
(99.46449169 -0.2524656851 -7.325223036e-21)
(101.6173221 -0.1795241887 0)
(101.5802285 -0.5427092292 0)
(101.50967 -0.9150172469 0)
(101.3928959 -1.323509623 0)
(101.1588762 -1.633480271 0)
(100.8957489 -2.090711627 0)
(100.5299974 -2.648535412 0)
(100.0076044 -3.247355534 -1.673933442e-19)
(99.22521117 -4.231473329 0)
(97.96413533 -5.538295288 3.30344917e-19)
(96.49176291 -7.182980324 -6.712973146e-19)
(94.99758934 -9.427689916 -5.843599005e-20)
(96.95088302 -18.43040793 -2.177325732e-20)
(102.4079116 -15.01651968 -4.034742322e-19)
(103.4392307 -11.87500602 -9.339421089e-19)
(103.3515429 -9.551906657 -2.828570097e-19)
(102.8904033 -7.647093999 -1.439253919e-18)
(102.104372 -5.865051398 -5.970706903e-20)
(100.997189 -4.232600204 -9.532703062e-20)
(100.3535976 -3.14319866 -3.601494869e-20)
(99.62643832 -2.128308261 -1.992996741e-20)
(99.29523634 -1.440519989 1.954452816e-20)
(99.07208454 -0.8398611976 0)
(98.95494929 -0.2765182566 1.956487037e-20)
(101.9667517 -0.188468172 0)
(101.9382252 -0.5706370065 0)
(101.885102 -0.9614895467 0)
(101.7946346 -1.384568491 0)
(101.5895384 -1.72053167 0)
(101.3829011 -2.200881813 0)
(101.0994772 -2.768278638 4.038917548e-22)
(100.7027902 -3.37861087 2.996878834e-19)
(100.153876 -4.326385844 2.802015227e-19)
(99.24138716 -5.585722987 -5.99865127e-19)
(98.29695468 -7.183228654 0)
(97.55132437 -9.276563205 -1.03081189e-19)
(98.43894504 -11.88632022 -5.386976959e-20)
(100.3827075 -11.53379087 0)
(101.1261203 -10.12778078 5.687890214e-19)
(101.2718327 -8.675612468 7.945650977e-19)
(101.0998865 -7.222956279 1.37406865e-20)
(100.6226127 -5.717441491 -2.459686373e-20)
(99.87790701 -4.241479026 0)
(99.45751242 -3.218357488 0)
(98.92601918 -2.189231462 -3.664213947e-20)
(98.67686086 -1.495645597 1.808018416e-20)
(98.50376001 -0.8757901934 7.60055539e-22)
(98.41139066 -0.2884710225 -1.344620018e-20)
(102.3295449 -0.1931893521 0)
(102.3093865 -0.5852751621 0)
(102.2733629 -0.9856497879 0)
(102.2086024 -1.411946355 0)
(102.0322524 -1.762374592 0)
(101.8776471 -2.246535698 0)
(101.6690988 -2.800981448 -9.441348076e-22)
(101.3881697 -3.380667824 -4.183802465e-19)
(101.0265904 -4.218660781 2.558475935e-19)
(100.4059703 -5.286852772 -9.119676385e-19)
(99.77325335 -6.555773932 1.541484613e-19)
(97.79518356 -7.701758837 0)
(99.24164602 -9.082675181 -3.092608023e-19)
(99.6769232 -9.089205501 -1.595298373e-19)
(99.87200795 -8.48315057 -6.9570449e-19)
(99.87912376 -7.602667871 5.206984588e-19)
(99.73495889 -6.521520136 3.593710685e-19)
(99.40371891 -5.32540094 0)
(98.88640398 -4.070559142 -2.984804734e-20)
(98.62739396 -3.163425621 4.61734263e-20)
(98.2399805 -2.167215692 1.131191519e-20)
(98.05799853 -1.496565829 1.936305568e-20)
(97.92735492 -0.879593012 -2.198022602e-20)
(97.85608716 -0.2897781531 0)
(102.6978393 -0.1941003768 0)
(102.6851844 -0.5878558113 0)
(102.6641344 -0.9894181416 0)
(102.6220879 -1.409797319 0)
(102.4720673 -1.764404817 0)
(102.3622897 -2.236939552 0)
(102.2136991 -2.762574639 0)
(102.011664 -3.298781123 1.304851391e-19)
(101.7828535 -3.997518789 -1.115070954e-19)
(101.3543736 -4.828664297 7.641516026e-20)
(100.8264138 -5.739661501 -1.494526079e-18)
(99.69387651 -6.356434972 0)
(99.61413926 -7.179095038 3.403206527e-19)
(99.50491611 -7.395643078 -1.288849254e-19)
(99.24624991 -7.119756893 4.089053576e-19)
(99.003032 -6.551908753 -4.358728211e-20)
(98.73706617 -5.742217347 -8.681684787e-22)
(98.43775298 -4.832653777 0)
(98.04613437 -3.801959812 0)
(97.87997988 -3.016165089 0)
(97.59252148 -2.084371766 3.877549506e-20)
(97.46094435 -1.45517053 -3.625667917e-20)
(97.36264571 -0.8574950299 -2.466260701e-21)
(97.30750941 -0.2829659129 2.474404426e-21)
(103.0645309 -0.1917683058 0)
(103.0582439 -0.5802329168 0)
(103.0494147 -0.9758727617 0)
(103.0259582 -1.382744524 0)
(102.8990975 -1.73255496 0)
(102.8242187 -2.182864437 0)
(102.7205123 -2.670020365 0)
(102.5662543 -3.165035107 0)
(102.4062483 -3.738805909 -2.052627275e-20)
(102.0759895 -4.364468046 -2.205078296e-20)
(101.5888533 -5.01014039 -1.166077272e-22)
(100.9987663 -5.480248688 4.656270633e-19)
(99.00058218 -5.944297924 -7.789101539e-21)
(99.56709977 -6.166541384 9.554327695e-23)
(98.93663071 -6.013824185 -4.249025875e-20)
(98.4230633 -5.607152617 -1.502925848e-23)
(98.01208177 -5.00524177 0)
(97.68474009 -4.316540709 0)
(97.34183563 -3.478035035 0)
(97.21957995 -2.807525092 0)
(96.9957691 -1.959288634 0)
(96.89870296 -1.381468627 0)
(96.82352137 -0.8171884693 0)
(96.77989491 -0.2708419814 0)
(103.4237934 -0.1867975495 0)
(103.4226327 -0.5643786483 0)
(103.4231507 -0.9484304132 0)
(103.4137747 -1.336330132 0)
(103.3055667 -1.674381732 0)
(103.2554985 -2.096124408 0)
(103.1814921 -2.540359872 0)
(103.0554936 -2.987974378 0)
(102.9112328 -3.477220267 0)
(102.6037765 -3.961736713 0)
(102.1229276 -4.424222115 -1.321540233e-19)
(101.4454245 -4.799156433 -3.087711813e-21)
(98.63871088 -5.06013078 0)
(99.6397631 -5.22982048 6.375372092e-21)
(98.71866959 -5.111286474 0)
(98.00213917 -4.805018937 0)
(97.47356379 -4.358105961 0)
(97.09318137 -3.824338473 0)
(96.75798131 -3.138576064 0)
(96.64640688 -2.571385603 0)
(96.45577939 -1.811782143 0)
(96.37902292 -1.288395298 0)
(96.31791725 -0.7644510412 0)
(96.28269424 -0.2540660047 0)
(103.7711115 -0.1798119493 0)
(103.7737872 -0.5423027495 0)
(103.7808004 -0.9105817957 0)
(103.7810449 -1.276133873 0)
(103.6868038 -1.597668452 0)
(103.6522677 -1.987698215 0)
(103.5947935 -2.388671691 0)
(103.4811229 -2.787750946 0)
(103.330404 -3.203128613 0)
(103.0015046 -3.595540989 0)
(102.4803451 -3.949071555 0)
(101.331286 -4.205824544 0)
(99.13704848 -4.436492075 0)
(99.62013063 -4.489181605 0)
(98.53540305 -4.383908236 0)
(97.68601815 -4.14593246 0)
(97.06035436 -3.800363841 0)
(96.62204615 -3.377949758 0)
(96.2709496 -2.810754455 0)
(96.15132782 -2.329823023 0)
(95.97305536 -1.6557005 0)
(95.90541717 -1.185952799 0)
(95.85128138 -0.7054666051 0)
(95.82088735 -0.2349895993 0)
(104.1032213 -0.1714249229 0)
(104.1084849 -0.5159546952 0)
(104.1193299 -0.8656466558 0)
(104.1251363 -1.207233574 0)
(104.040506 -1.509359525 0)
(104.0136464 -1.866835972 0)
(103.9624713 -2.227931438 0)
(103.8490399 -2.579526962 0)
(103.6786819 -2.931935258 0)
(103.3169268 -3.251789743 0)
(102.7517217 -3.529400578 0)
(101.0996764 -3.684613776 0)
(99.54145074 -3.891075138 -6.364114563e-35)
(99.57877413 -3.89444025 0)
(98.38387804 -3.794719874 0)
(97.43716074 -3.599920004 0)
(96.73319679 -3.3227427 0)
(96.24064026 -2.980386927 0)
(95.86164329 -2.506323476 0)
(95.72371686 -2.096064979 0)
(95.54418555 -1.500491643 0)
(95.4775998 -1.081358018 0)
(95.42524443 -0.6445858258 0)
(95.39712117 -0.2151786829 0)
(104.4179878 -0.1621905246 0)
(104.4247233 -0.4870873752 0)
(104.4370733 -0.8165502552 0)
(104.4449495 -1.133902342 0)
(104.36626 -1.415193139 0)
(104.3407642 -1.741108713 0)
(104.2874675 -2.066092 0)
(104.1668146 -2.374024658 0)
(103.969105 -2.673783625 0)
(103.5703219 -2.936787396 0)
(102.9630371 -3.158638588 0)
(100.8439827 -3.241732316 0)
(99.79678362 -3.425010303 0)
(99.52584354 -3.404769579 0)
(98.25252633 -3.309169123 0)
(97.23327519 -3.143576684 0)
(96.46665799 -2.914316522 0)
(95.92585596 -2.630666838 0)
(95.51515029 -2.229977459 0)
(95.35341213 -1.877610925 0)
(95.16418158 -1.35228999 0)
(95.09330139 -0.9794885242 0)
(95.03919479 -0.5848177985 0)
(95.01147153 -0.1956491842 0)
(104.7142887 -0.1525733199 0)
(104.7215538 -0.4571753633 0)
(104.7335003 -0.7657695772 0)
(104.7405573 -1.059473495 0)
(104.6650067 -1.319701197 0)
(104.6360168 -1.616096661 0)
(104.5745881 -1.908441711 0)
(104.4416985 -2.177886863 0)
(104.2127849 -2.434098296 0)
(103.7767868 -2.652670688 0)
(103.1284529 -2.832852011 0)
(100.5840022 -2.865274147 0)
(99.95355379 -3.029300309 -8.085725556e-35)
(99.46604132 -2.995940885 0)
(98.13531518 -2.904018066 0)
(97.06094384 -2.75938312 0)
(96.24414627 -2.564956604 0)
(95.66147464 -2.325392988 0)
(95.21898976 -1.983027242 0)
(95.03136348 -1.67816831 0)
(94.82769014 -1.214712447 0)
(94.74922563 -0.8834228079 0)
(94.69112151 -0.5281199493 0)
(94.66250965 -0.1770558336 0)
(104.9918498 -0.1429447781 0)
(104.998877 -0.4273847384 0)
(105.0089458 -0.7152775042 0)
(105.0129282 -0.9865032993 0)
(104.9382495 -1.226236854 0)
(104.9023158 -1.495627819 0)
(104.8286769 -1.7586526 0)
(104.6803524 -1.994986918 0)
(104.4188789 -2.215355746 0)
(103.9477185 -2.399208355 0)
(103.2578791 -2.547475992 0)
(100.3335278 -2.543886824 0)
(100.0475994 -2.692914065 0)
(99.40221576 -2.651455444 0)
(98.02870252 -2.562993501 0)
(96.9117246 -2.434140845 0)
(96.05455207 -2.265904524 0)
(95.43598494 -2.060244882 0)
(94.96342263 -1.764757862 0)
(94.7498495 -1.499049973 0)
(94.52946116 -1.089574896 0)
(94.44158918 -0.7949333803 0)
(94.37818343 -0.4756657248 0)
(94.34784619 -0.1597941673 0)
(105.2510369 -0.1335920885 0)
(105.257217 -0.3985949913 0)
(105.2643211 -0.6665548678 0)
(105.2635696 -0.9168704607 0)
(105.1880008 -1.137197984 0)
(105.1427517 -1.382274225 0)
(105.0542097 -1.619008503 0)
(104.8885722 -1.827408608 0)
(104.5947689 -2.018318264 0)
(104.0915457 -2.174993742 0)
(103.3586991 -2.298255658 0)
(100.1024018 -2.268858099 0)
(100.1013608 -2.406480329 2.65637091e-35)
(99.33627936 -2.359526267 0)
(97.93045421 -2.274347871 0)
(96.78010006 -2.157838728 0)
(95.89025194 -2.009873762 0)
(95.24109339 -1.830835069 0)
(94.74086682 -1.573442654 0)
(94.50240747 -1.34015504 0)
(94.26457189 -0.9775119655 0)
(94.16647646 -0.7148800171 0)
(94.09713356 -0.4280653918 0)
(94.06456793 -0.1440758345 0)
(105.4926764 -0.1247303785 0)
(105.4975384 -0.371446251 0)
(105.500906 -0.6206638761 0)
(105.4942592 -0.851886638 0)
(105.4164818 -1.054200773 0)
(105.3603761 -1.277618186 0)
(105.2554373 -1.490981851 0)
(105.0712804 -1.675980853 0)
(104.7464148 -1.842717855 0)
(104.2143743 -1.978009535 0)
(103.4365124 -2.081264073 0)
(99.89703393 -2.033251526 0)
(100.1285643 -2.162394929 0)
(99.26947464 -2.111395866 0)
(97.83903117 -2.029294413 0)
(96.66227081 -1.92270943 0)
(95.74581791 -1.790808736 0)
(95.07064062 -1.633037635 0)
(94.54536475 -1.406911674 0)
(94.2836313 -1.200588377 0)
(94.02854376 -0.878424396 0)
(93.92006577 -0.643509299 0)
(93.84460039 -0.3855411019 0)
(93.80953972 -0.129985823 0)
(105.7179322 -0.1165136874 0)
(105.7211217 -0.3463845235 0)
(105.7202281 -0.5783327067 0)
(105.7069156 -0.7924192538 0)
(105.6259221 -0.9782848285 0)
(105.5580074 -1.182567126 0)
(105.4359525 -1.375630141 0)
(105.2327241 -1.540785438 0)
(104.8786103 -1.687767818 0)
(104.3205913 -1.806108881 0)
(103.4955246 -1.893086788 0)
(99.72097105 -1.831836567 0)
(100.1376414 -1.954487354 0)
(99.20258633 -1.900390046 0)
(97.75331063 -1.821142426 0)
(96.55551789 -1.722689556 0)
(95.61728632 -1.603743204 0)
(94.91997187 -1.463185524 0)
(94.37220887 -1.262927749 0)
(94.08902821 -1.07909322 0)
(93.81735798 -0.7917924059 0)
(93.69873832 -0.580681497 0)
(93.61724567 -0.3480624335 0)
(93.57958181 -0.1175256932 0)
(105.9282158 -0.1090460905 0)
(105.9294727 -0.3237020715 0)
(105.9239813 -0.5400288624 0)
(105.9035276 -0.7389933683 0)
(105.8185564 -0.9100397476 0)
(105.7382937 -1.097608431 0)
(105.5987441 -1.273143972 0)
(105.3765458 -1.421543891 0)
(104.9952316 -1.552419692 0)
(104.4134685 -1.65722075 0)
(103.5389671 -1.730772032 0)
(99.57531495 -1.660451294 0)
(100.1339746 -1.777736888 0)
(99.13610618 -1.7212751 0)
(97.67241162 -1.64465012 0)
(96.45778856 -1.55294207 0)
(95.50163867 -1.444565283 0)
(94.78544704 -1.31806157 0)
(94.21755968 -1.139314753 0)
(93.91477438 -0.9742497033 0)
(93.62741601 -0.7168725884 0)
(93.49911754 -0.5260297785 0)
(93.41185084 -0.3154469025 0)
(93.37157517 -0.1066458631 0)
(106.1250595 -0.1023941446 0)
(106.1241987 -0.3035772605 0)
(106.1139128 -0.5060294948 0)
(106.0860593 -0.6919002191 0)
(105.9965327 -0.8497606771 0)
(105.9036771 -1.022904238 0)
(105.7465176 -1.183189055 0)
(105.5057703 -1.317777451 0)
(105.0993718 -1.43554684 0)
(104.4955087 -1.529471519 0)
(103.5694164 -1.591844952 0)
(99.45964924 -1.515741064 0)
(100.121212 -1.628178985 0)
(99.07032771 -1.569953151 0)
(97.59562037 -1.495697149 0)
(96.36748954 -1.409611171 0)
(95.39652283 -1.309907806 0)
(94.6641726 -1.194920048 0)
(94.07826334 -1.034090157 0)
(93.75761861 -0.8846526381 0)
(93.45552752 -0.6528539998 0)
(93.31811479 -0.4790805446 0)
(93.22540239 -0.287436172 0)
(93.18256536 -0.09727055934 0)
(106.3101511 -0.09659480423 0)
(106.3070363 -0.2861021596 0)
(106.2918523 -0.476470711 0)
(106.2564961 -0.6512482989 0)
(106.161899 -0.7975347224 0)
(106.056402 -0.958351636 0)
(105.8818013 -1.105485167 0)
(105.6229681 -1.228807211 0)
(105.1935269 -1.335989274 0)
(104.5686932 -1.421160787 0)
(103.5890514 -1.474198651 0)
(99.37279814 -1.395151386 0)
(100.1019423 -1.502511474 0)
(99.00539061 -1.443132308 0)
(97.52231651 -1.370985181 0)
(96.28332112 -1.289580207 0)
(95.30002667 -1.196993929 0)
(94.55375855 -1.09141708 0)
(93.9516729 -0.9454967799 0)
(93.61474908 -0.8089938207 0)
(93.29879184 -0.5989216952 0)
(93.15285784 -0.4393235119 0)
(93.05504498 -0.2637398981 0)
(93.0097216 -0.08931134985 0)
(106.4849571 -0.09167233132 0)
(106.4795059 -0.2713240697 0)
(106.4593886 -0.4513953546 0)
(106.4165383 -0.617112251 0)
(106.3165664 -0.753304816 0)
(106.1985129 -0.9037158021 0)
(106.0068251 -1.039796948 0)
(105.7303454 -1.153927198 0)
(105.2797295 -1.252632193 0)
(104.6346243 -1.330783946 0)
(103.5997684 -1.376038409 0)
(99.3129534 -1.296477752 0)
(100.0780462 -1.398107235 -3.915577845e-36)
(98.94135985 -1.338167434 0)
(97.45195476 -1.267872895 0)
(96.2041973 -1.190339867 0)
(95.21056389 -1.103566834 0)
(94.45215017 -1.005653731 0)
(93.83553313 -0.8720653877 0)
(93.4836985 -0.7460900314 0)
(93.1547656 -0.5543685134 0)
(93.00087802 -0.4062605936 0)
(92.89829951 -0.2440785442 0)
(92.85058646 -0.08268418181 0)
(106.651906 -0.08761964189 0)
(106.6439988 -0.2592271673 0)
(106.6188935 -0.4307770361 0)
(106.568568 -0.5892787165 0)
(106.4623886 -0.7169606305 0)
(106.3318709 -0.858696671 0)
(106.1238041 -0.9863380485 0)
(105.8298164 -1.09230959 0)
(105.3596707 -1.184454315 0)
(104.6946339 -1.25705545 0)
(103.6031813 -1.295868722 0)
(99.27777956 -1.21768216 0)
(100.0508206 -1.313036916 0)
(98.87823408 -1.252965082 0)
(97.38405019 -1.184258226 0)
(96.12919268 -1.109877925 0)
(95.12682258 -1.027799041 0)
(94.35779318 -0.9363132205 0)
(93.72772907 -0.8127073948 0)
(93.36227403 -0.6949733123 0)
(93.02064285 -0.5184103505 0)
(92.85931427 -0.3794362358 0)
(92.75223284 -0.2281709944 0)
(92.70217158 -0.07729549435 0)
(106.8098543 -0.08449341439 0)
(106.7995697 -0.249904794 0)
(106.7695451 -0.4146353518 0)
(106.7119199 -0.5682719944 0)
(106.6010757 -0.6882505267 0)
(106.458187 -0.8230952992 0)
(106.2339184 -0.944730119 0)
(105.923286 -1.043424549 0)
(105.4348122 -1.130573058 0)
(104.7498839 -1.198885389 0)
(103.6006655 -1.232471035 0)
(99.26492459 -1.157209325 0)
(100.0210941 -1.245761308 0)
(98.81594537 -1.185858005 0)
(97.31814174 -1.11846618 0)
(96.05747007 -1.046571533 0)
(95.04763343 -0.9681485006 0)
(94.26936381 -0.8816011791 0)
(93.62642903 -0.7661612084 0)
(93.24838523 -0.6545272122 0)
(92.89612476 -0.4909706271 0)
(92.72786143 -0.3584702742 0)
(92.61656881 -0.2158669397 0)
(92.56434087 -0.07311981028 0)
(106.9709857 -0.08212639569 0)
(106.9578025 -0.2430817818 0)
(106.9225125 -0.4027959864 0)
(106.8564501 -0.5514018056 0)
(106.7350252 -0.6672428308 0)
(106.5789944 -0.7970276376 0)
(106.3387088 -0.9141272509 0)
(106.0121383 -1.006793993 0)
(105.5063599 -1.090245444 0)
(104.8014023 -1.155355362 0)
(103.5934792 -1.184850795 0)
(99.27205235 -1.113918957 0)
(99.98941627 -1.195130461 0)
(98.7544012 -1.135569641 0)
(97.25379249 -1.069204342 0)
(95.98825837 -0.999163337 0)
(94.97187443 -0.9234337598 0)
(94.18506763 -0.840284335 0)
(93.53035503 -0.731293171 0)
(93.14038475 -0.6248433693 0)
(92.77281467 -0.4694604113 0)
(92.59714021 -0.3429403905 0)
(92.48155347 -0.2067533754 0)
(92.42679837 -0.06995421281 0)
(107.096323 -0.0810654831 0)
(107.0814144 -0.239632977 0)
(107.0421289 -0.3963284134 0)
(106.9713973 -0.5454435534 0)
(106.8627516 -0.6532142203 0)
(106.6954388 -0.7798457626 0)
(106.4394359 -0.8941827898 0)
(106.0976255 -0.9819335004 0)
(105.5753371 -1.062810142 0)
(104.8501291 -1.125660415 0)
(103.5827903 -1.152147643 0)
(99.29692688 -1.086932279 0)
(99.95608917 -1.160401718 0)
(98.69344681 -1.101166294 0)
(97.19056122 -1.035500651 0)
(95.92083454 -0.9667079318 0)
(94.89855497 -0.892807916 0)
(94.10379251 -0.8119492511 0)
(93.43817049 -0.7076242888 0)
(93.03705938 -0.6048944564 0)
(92.67481304 -0.459208193 0)
(92.49469727 -0.3335809084 0)
(92.37590342 -0.2015432427 0)
(92.31971384 -0.06826805383 0)
(107.3399733 -0.07979158034 0)
(107.3209842 -0.2369438264 0)
(107.2736264 -0.3916428638 0)
(107.1870921 -0.5349933572 0)
(106.9828229 -0.6474491456 0)
(106.8031982 -0.7719826096 0)
(106.5331182 -0.8849467962 0)
(106.1807622 -0.9685840674 0)
(105.6425045 -1.047689311 0)
(104.896887 -1.1090087 0)
(103.5697962 -1.133713086 0)
(99.33751749 -1.075432869 0)
(99.92125211 -1.141123017 0)