/*--------------------------------*- C++ -*----------------------------------*\
| =========                 |                                                 |
| \\      /  F ield         | OpenFOAM: The Open Source CFD Toolbox           |
|  \\    /   O peration     | Version:  v1912                                 |
|   \\  /    A nd           | Website:  www.openfoam.com                      |
|    \\/     M anipulation  |                                                 |
\*---------------------------------------------------------------------------*/
FoamFile
{
    version     2.0;
    format      ascii;
    class       volScalarField;
    location    "1.01";
    object      nut;
}
// * * * * * * * * * * * * * * * * * * * * * * * * * * * * * * * * * * * * * //

dimensions      [0 2 -1 0 0 0 0];


internalField   nonuniform List<scalar> 
12556
(
1.155879964
1.155848974
1.155819483
1.155798232
1.156029844
1.156032743
1.156060687
1.156117993
1.156224848
1.156390078
1.156610189
1.050250299
0.9991065443
1.046586216
1.156642474
1.156412582
1.156251501
1.156148463
1.156075345
1.156048846
1.155828008
1.155843371
1.155867934
1.155894127
1.155111464
1.155024422
1.154945573
1.154901316
1.155131021
1.155189499
1.155352074
1.155685641
1.156195677
1.157013955
1.134792078
0.976419146
0.9200721727
0.9458049956
1.059809966
1.157370204
1.156498977
1.155894106
1.155442108
1.155251998
1.154968145
1.155012693
1.155086245
1.155165345
1.154312074
1.154165513
1.15404598
1.153996995
1.154273692
1.15445395
1.15485589
1.155562505
1.156807096
1.063664134
0.8666037363
0.7584855476
0.7223371068
0.7476174977
0.8420993308
1.0133105
1.157434817
1.156039928
1.155039904
1.154574697
1.154169146
1.154185025
1.154291143
1.154423249
1.153490422
1.153302224
1.153165112
1.153157276
1.15349764
1.1539021
1.154800625
1.156166124
1.028757402
0.7720277081
0.6165379488
0.5264795815
0.4935421941
0.5160394528
0.5968539418
0.7413525215
0.9700737721
1.156983869
1.155080609
1.154124873
1.153416095
1.153391769
1.153506878
1.153680222
1.152647969
1.152418125
1.152284955
1.152349566
1.1528588
1.153628668
1.15532853
1.111162824
0.7753971242
0.5628755631
0.422238151
0.3316990659
0.2947645236
0.3167303899
0.3938016903
0.5245740067
0.7236576299
1.025782005
1.155786017
1.153992901
1.152822564
1.152626896
1.152714283
1.152916287
1.151803381
1.151554244
1.151454692
1.151656361
1.15242659
1.153742303
1.156631355
0.8994368627
0.6163910206
0.4269503112
0.286307375
0.1876163565
0.147459337
0.1735754406
0.2495403137
0.3695665618
0.5503396033
0.8160172297
1.157251953
1.154253986
1.152388376
1.15191336
1.151930648
1.152137943
1.150945628
1.15069421
1.150670023
1.151122001
1.15215622
1.154303458
1.078963961
0.7674006628
0.5216473004
0.3460842437
0.2050119374
0.09503858292
0.05417876129
0.08609109748
0.1612807548
0.2718425258
0.4348721591
0.6676145016
1.036321127
1.154984755
1.152094106
1.151254096
1.151142008
1.151334089
1.150148698
1.14991264
1.149998758
1.150746372
1.152109548
1.155321496
0.9741530926
0.6984210936
0.4813424699
0.3201348063
0.1871529069
0.07737401593
0.0497286956
0.1223481335
0.2203094332
0.3678673204
0.5822218063
0.9203250193
1.156121198
1.152009751
1.150690899
1.150384758
1.150534536
1.149428739
1.149225464
1.149468311
1.1505905
1.15242675
1.156711183
0.9150845698
0.6657741516
0.4824476833
0.3458583201
0.2385879792
0.1682678702
0.06169508401
0.1203620109
0.2052874584
0.3386297375
0.5340668089
0.8483562164
1.157531461
1.152140071
1.150249186
1.149702052
1.14978764
1.148857048
1.148707897
1.149134932
1.150681396
1.153079939
1.158446006
0.8888543423
0.6720263916
0.5089057582
0.3934576154
0.3183154454
0.3114420129
0.08727744084
0.137636689
0.215131515
0.3398644792
0.5231103327
0.8111461576
1.157418718
1.1525225
1.150006145
1.149172676
1.149176315
1.14844847
1.148374914
1.14903896
1.151100779
1.154060277
1.160268664
0.8832895587
0.689047862
0.5451681844
0.4448068185
0.3881925487
0.4301823098
0.1188471024
0.1670836332
0.2429930224
0.3620679011
0.5343348493
0.8035147752
1.114021918
1.153135036
1.149980703
1.148858271
1.148762188
1.148267329
1.148272436
1.149160916
1.151718618
1.155302991
1.1400723
0.8917359328
0.7170331677
0.5848316666
0.4883804892
0.4241672625
0.4393196874
0.1553929947
0.208743479
0.2880907485
0.408018215
0.5707990172
0.8218010418
1.1030627
1.154001759
1.150214255
1.148788447
1.148601902
1.148252969
1.148357704
1.149557038
1.152685853
1.156721158
1.13052186
0.9132825736
0.7607788918
0.6313150958
0.5321006259
0.4470924466
0.3826696046
0.05117599015
0.2029464176
0.2710543576
0.3581119235
0.4755384064
0.635243294
0.8618661515
1.109062299
1.154980293
1.150677159
1.148986516
1.148700673
1.148450002
1.148651531
1.150124943
1.153724654
1.158401496
1.151347557
0.9746730725
0.8136294812
0.6971113093
0.5945345287
0.4969502743
0.2910463135
0.1044084287
0.3002518386
0.3796204425
0.4630411971
0.5740578465
0.7182384312
0.9199195601
1.141827415
1.156043104
1.15132554
1.149397629
1.149047466
1.148727797
1.149017807
1.150749693
1.154817201
1.159996719
1.168269371
1.045189629
0.9009918656
0.7896517951
0.6962513829
0.6040019717
0.1089326637
0.14958485
0.4115127203
0.5713402088
0.6188958454
0.7044113586
0.8338261277
1.012232816
1.16682638
1.157103443
1.152075192
1.149964486
1.14954334
1.149133659
1.14950745
1.151468036
1.155945342
1.161536421
1.170131966
1.152826639
1.029353362
0.932600035
0.8619573749
0.8071831762
0.04990755819
0.1786542433
0.4598763232
0.7696123753
0.8337019449
0.8785602325
0.9809512337
1.143172685
1.168100583
1.158091149
1.152853043
1.150625424
1.15018427
1.149507433
1.149945268
1.152102308
1.156967225
1.162943949
1.171716137
1.173896322
1.159800108
1.112184907
0.9878207021
0.5202034932
0.02893825928
0.256588466
0.5425946932
0.8329866381
1.027435592
1.102993951
1.15878998
1.17236604
1.169111057
1.158945419
1.153591496
1.151283406
1.150814431
1.149930463
1.150423124
1.152740195
1.157912634
1.16417404
1.173101721
1.175163996
1.160230207
1.096590714
0.8589000236
0.1551529431
0.05792918078
0.3464657337
0.634320773
0.8849576414
1.042533538
1.123991044
1.16105152
1.173440606
1.169779931
1.1596274
1.154247302
1.151928969
1.15144254
1.150242767
1.150769613
1.153211393
1.158662155
1.165194819
1.17416337
1.176174522
1.160098841
1.087705829
0.7166423944
0.06401609055
0.1463680829
0.416782201
0.6895151533
0.9049815107
1.047384622
1.126399084
1.162349318
1.173996747
1.170145151
1.160099364
1.15474595
1.152443616
1.151948065
1.150573542
1.151132269
1.153668529
1.159310473
1.165995464
1.174954368
1.176732077
1.159479954
1.07714936
0.6395862222
0.05864212408
0.1741912143
0.4351237284
0.6977691326
0.9111915764
1.050566773
1.127768109
1.162926321
1.174132651
1.170244926
1.160435939
1.155167301
1.152896167
1.152392785
1.150758018
1.151337782
1.153943971
1.159753661
1.16659506
1.175511566
1.177012672
1.158487407
1.064285409
0.5795686977
0.05691371203
0.1862813518
0.4437931977
0.7021001788
0.915048165
1.052523966
1.128383733
1.162975142
1.17394065
1.170128244
1.160582895
1.155413509
1.153180773
1.152672888
1.150966974
1.151576919
1.154241649
1.160145088
1.167021881
1.175874952
1.177083588
1.15714461
1.048533393
0.5379448109
0.05643972517
0.1953305784
0.4502561116
0.7044995614
0.9167069106
1.053435574
1.128421414
1.162638289
1.173498912
1.169844235
1.16064695
1.155608145
1.153413226
1.152895874
1.151016052
1.151653683
1.154369315
1.160367884
1.167315533
1.176085033
1.176988127
1.15541754
1.028650591
0.5089182226
0.05672821177
0.2022537593
0.4549860737
0.7055796233
0.9166021702
1.053366228
1.127971976
1.16200779
1.172869852
1.169434984
1.160554169
1.15563274
1.153471846
1.152946127
1.151112206
1.15179086
1.154560379
1.160602525
1.167506832
1.176178786
1.176744762
1.153140977
1.0049967
0.4877329489
0.05755447516
0.2076437167
0.4583266087
0.7056794499
0.9152752374
1.05240998
1.127084617
1.161137956
1.172100355
1.168931707
1.160432729
1.155649103
1.153516178
1.152975985
1.151041817
1.151759329
1.154580978
1.160687028
1.1676245
1.176182409
1.176345576
1.150039491
0.9804626273
0.4721584081
0.05880675465
0.2117173978
0.4605638194
0.705009838
0.9131245328
1.050721705
1.125807683
1.160065845
1.171224671
1.168357347
1.160172842
1.155500625
1.15338974
1.152835968
1.151047311
1.151815539
1.154696322
1.160826107
1.167680141
1.176110835
1.175763715
1.145864222
0.9575372681
0.4608764015
0.06041986238
0.2147553393
0.4618985535
0.7037097385
0.9103867075
1.048464549
1.124198349
1.158823705
1.170268559
1.167728597
1.159932093
1.155391068
1.153295699
1.152721795
1.150883177
1.151696712
1.154631936
1.160810178
1.16768985
1.175973065
1.174964135
1.140568179
0.9371781995
0.4528523927
0.06235588179
0.2170123659
0.4625051409
0.7018889442
0.9072041848
1.045771321
1.122314429
1.157441576
1.169252037
1.167058636
1.159556268
1.15511522
1.153031593
1.152439585
1.150821881
1.151691001
1.154689449
1.160883924
1.167655387
1.175775142
1.173912963
1.134320728
0.9195102466
0.4474580547
0.06460656417
0.2186749023
0.462519249
0.6996347063
0.9036721909
1.042741027
1.120206459
1.155945555
1.168190332
1.166357423
1.159243246
1.15492223
1.152844004
1.152227749
1.15059388
1.15150946
1.154560447
1.160789523
1.167589672
1.175519195
1.172586334
1.127451818
0.904401009
0.4443027435
0.06717329516
0.2198785102
0.4620246183
0.6970291914
0.899867946
1.039448605
1.117915573
1.1543571
1.167094974
1.165632628
1.158788877
1.154559264
1.152486821
1.151850444
1.150481279
1.151454066
1.154570108
1.160815534
1.167488887
1.175204467
1.170973815
1.120248758
0.891380822
0.4426776027
0.0700444578
0.2207349337
0.4611234398
0.6941537326
0.8958560837
1.035950894
1.115474473
1.152693223
1.165974484
1.164890788
1.15843263
1.154308984
1.152235069
1.151572413
1.150222517
1.151239195
1.154402584
1.160665369
1.167365612
1.174828277
1.169082182
1.112928449
0.8800395421
0.442126107
0.07322801797
0.2213282808
0.4599042968
0.691072633
0.8916880482
1.032292702
1.112909992
1.150967466
1.164835111
1.164135332
1.157934034
1.153900582
1.151830271
1.151147699
1.15005728
1.151131693
1.154360755
1.160647326
1.167212819
1.174388437
1.166936581
1.105663276
0.8701683339
0.4425479155
0.07674522786
0.2217092634
0.4584390059
0.6878377655
0.8874091349
1.02851247
1.11024485
1.14919036
1.163681332
1.163371962
1.157537996
1.153593268
1.151517909
1.150808098
1.149810677
1.150923526
1.154193381
1.160478043
1.167042842
1.173882283
1.164574005
1.098574532
0.8616055098
0.4438070102
0.08060909268
0.2219433005
0.4567930221
0.6845006655
0.8830624221
1.024643717
1.107498151
1.147370175
1.162516522
1.162598429
1.157047283
1.153197082
1.151124146
1.150396568
1.149567919
1.150739716
1.154075525
1.160390331
1.166848031
1.173311262
1.162037419
1.091734495
0.8541676831
0.4457247761
0.08482566143
0.2220931681
0.4550389058
0.6811131791
0.8786887495
1.02071661
1.104687133
1.145515087
1.161345581
1.161825871
1.156562327
1.152791492
1.15071394
1.149958199
1.149389407
1.150591883
1.153961261
1.160272031
1.166643233
1.17268332
1.159388474
1.085181465
0.8476997096
0.4481453144
0.08938665174
0.2222095901
0.4532483114
0.6777252768
0.8743251768
1.016757982
1.101826858
1.143630626
1.160184598
1.161054468
1.156195369
1.152497751
1.150420314
1.14965035
1.149043353
1.150316535
1.153764322
1.160101047
1.166451947
1.172035359
1.156769943
1.078938526
0.8420756462
0.4509043402
0.09426529462
0.2223431097
0.4514982861
0.6744059766
0.8700202624
1.012798668
1.098931626
1.141718954
1.159103964
1.160358443
1.155514781
1.15192707
1.149847462
1.149044433
0.1503900207
0.05515913776
0.04279230768
0.2959758569
0.08030008962
0.0581926688
0.417291714
0.112586259
0.08413324788
0.4440587333
0.14254701
0.1173220586
0.3917335855
0.03871772536
0.04805391553
0.1789589505
0.1464274616
0.3346145256
0.07588693439
0.03974785223
0.09890910775
0.2436518111
0.1820556953
0.07526230321
0.05455720902
0.04413298541
0.08184242286
0.02789065013
0.01851777556
0.05912059295
0.1018704441
0.1032024083
0.2981250778
0.2895695885
0.173320835
0.02683553454
0.03980822829
0.08390418266
0.1179942251
0.1044400769
0.3732443362
0.4004984426
0.3039437961
0.3562100604
0.2044493849
0.2293419133
0.04803730033
0.03371420916
0.1148053675
0.1457754467
0.1240221826
0.4189229325
0.4367313408
0.4115127512
0.4516274271
0.1340961074
0.1734861001
0.09204784338
0.06663689856
0.4383198888
0.3928820029
0.4339002925
0.4218690693
0.07962200483
0.1048044749
0.01658127392
0.133838046
0.1258389447
0.4817151189
0.3948875732
0.3868759612
0.3648666537
0.03124271057
0.05141472103
0.2953591191
0.1056590018
0.07770335554
0.06217639539
0.1414711703
0.02975471192
0.05651069751
0.04087275627
0.02919193796
0.04676417753
0.03091303444
0.0488142447
0.2326799069
0.2562665939
0.2461261774
0.2003278774
0.1871678159
0.1587563229
0.2029677622
0.03335517638
0.02670087646
0.06968975075
0.03983685199
0.04557757183
0.04996147749
0.04003052246
0.06814846357
0.1761982701
0.2007059238
0.3719112708
0.1566979291
0.1327059538
0.1854757064
0.15868446
0.06329882031
0.04927317118
0.1003641243
0.06847147286
0.08886184664
0.04607023232
0.06577772798
0.09611120904
0.106218862
0.1324526906
0.4524160296
0.1064090586
0.0809963032
0.1313151419
0.1077585466
0.1219155345
0.09603224061
0.05240507504
0.07783710668
0.4104637492
0.01312568708
0.05461144292
0.03283311144
0.07993363244
0.05619905635
0.01237327629
0.1407566711
0.1358302553
0.01852186072
0.004752273466
0.03094537714
0.3590138077
0.06120410513
0.0193237641
0.0113313866
0.03247871198
0.01965030771
0.05866101648
0.22111338
0.1573010436
0.09013974206
0.09598860137
0.06115348975
0.03493766976
0.01442320553
0.008151560011
0.2269477074
0.2593588576
0.1548111075
0.01004195042
0.1485334187
0.1824538916
0.1540574972
0.01208231385
0.05301782524
0.04575493439
0.07336711439
0.1573820128
0.1446736365
0.1406773153
0.06810849548
0.1070348111
0.04158623622
0.0124924734
0.02189819889
0.0212274214
0.02920514047
0.04512423856
0.04431834167
0.03205237579
0.1314828994
0.1183985073
0.1305201514
0.09216038324
0.1150373983
0.1284030464
0.02667766008
0.01371507155
0.04646375806
0.02156418062
0.03661672254
0.02903081557
0.01867093217
0.02854323902
0.02062273808
0.01403419917
0.02211595018
0.01792525134
0.009684365679
0.01552564811
0.02098280499
0.03426859841
0.03484339815
0.04087529312
0.03987384304
0.01663621237
0.01044005382
0.08064090942
0.01397571866
0.02523747941
0.009905473272
0.01233417826
0.07690398831
0.09396174727
0.2611841071
0.2488732802
0.06812595168
0.05686510724
0.01173377616
0.04645791205
0.1944165446
0.1820617581
0.211451914
0.1994212811
0.0467977478
0.0497679288
0.04194906911
0.09012128281
0.06535988628
0.05490973901
0.04024336685
0.06491241338
0.1014760178
0.03603854444
0.02270455805
0.01429074286
0.05069911168
0.02526958497
0.0397870519
0.0243891921
0.05586062535
0.04001819672
0.03913604838
0.1982876601
0.0315800566
0.1976981651
0.2169137036
0.03519234831
0.0392377269
0.03198404995
0.03470766307
0.2133321869
0.0318227668
0.03155884131
0.0431019842
0.06775432141
0.06315843992
0.0741094926
0.06942479631
0.0433844654
0.04785028007
0.05528747967
0.05011745344
0.06151130174
0.05673603382
0.04697614987
0.1450091191
0.1434580681
0.1733285571
0.1716633841
0.05951721731
0.009762517025
0.05827346709
0.09706635458
0.09524528719
0.1190356687
0.1174430152
0.02679912291
0.03892418114
0.1074987753
0.03001343443
0.01786481391
0.0687841846
0.2282521914
0.2158141584
0.2446804055
0.2323520532
0.07010675425
0.02410330235
0.05009724905
0.04907287285
0.0728609039
0.07200543344
0.007962547221
0.03226872006
0.08403590484
0.07213184015
0.1772588224
0.1684140117
0.02487325708
0.01239579547
0.01838829865
0.01407547276
0.03104401687
0.01289220726
0.01393457721
0.01343850068
0.03108400483
0.04970468995
0.01397338467
0.01570638602
0.003692140047
0.0174078908
0.0136355698
0.5685374519
0.3953731069
0.3981154185
0.2672489493
0.008906612745
0.005351104431
0.1439481749
0.3375957885
0.2733400362
0.005809849045
0.01247203875
0.01121760515
0.09996513992
0.08836609172
0.03450289063
0.194392844
0.1636674449
0.07649376584
0.009006961497
0.01524097991
0.01216085225
0.008255123208
0.01203077705
0.008552560697
0.02901305451
0.01217381829
0.01149337225
0.03729566329
0.04454808998
0.01266394106
0.01753137392
0.00877550656
0.008930085705
0.03533837787
0.1480523305
0.322715822
0.3114992476
0.3373504402
0.32641188
0.1512749415
0.2770155158
0.2650505506
0.09525228348
0.03437088829
0.09941931305
0.09418021535
0.01229640687
0.01768582898
0.08406826112
0.04581847219
0.0137762954
0.01227725201
0.03785826038
0.04172940607
0.03727745278
0.04845250442
0.0433202554
0.03975275727
0.03257896102
0.008822614023
0.008766932022
0.02794224543
0.1867421961
0.3514868132
0.3409005822
0.06083608248
0.06276147541
0.1373098085
0.01861776441
0.02033541491
0.05279164364
0.07659305151
0.1005347166
0.09309845405
0.05210410507
0.0815122578
0.07598719164
0.09039642476
0.08367484434
0.05321848316
0.119544814
0.2925387239
0.2808876131
0.3077423994
0.2963860212
0.1213351665
0.1024958553
0.0376707923
0.03840318809
0.0217402966
0.02257861805
0.08537496763
0.1262817725
0.0566583195
0.06042992723
0.03870613095
0.03939010507
0.1118052769
0.1114192985
0.04103844208
0.05651094734
0.00862262131
0.0164627393
0.05226651144
0.04009393801
0.07687247312
0.021126115
0.02159797999
0.02073310992
0.06559114084
0.01209288689
0.004402853279
0.1298827736
0.1131633297
0.09240754411
0.08819474849
0.03062369254
0.01655166118
0.02693984234
0.06926791059
0.01909508028
0.01203853535
0.01780933413
0.02158879251
0.002824332282
0.03201915915
0.02072081881
0.01189121981
0.006326761444
0.01146639837
0.01004303722
0.009841914568
0.02556637245
0.01951911401
0.007797922031
0.03871959193
0.0403172794
0.01456066478
0.01086080442
0.006956934723
0.01140278517
0.01581384109
0.01098638587
0.01273690093
0.03729923091
0.01104580699
0.01097866582
0.01261727457
0.01312946457
0.03190868352
0.01283551212
0.01260671018
0.01340610805
0.01271373295
0.01300890971
0.01695699873
0.01405944432
0.02288225283
0.01850609092
0.01311892284
0.01355064817
0.02142036837
0.01776261179
0.02500975234
0.02227868559
0.01725520009
0.01536632284
0.01224767708
0.01057257931
0.0082651379
0.0307110083
0.03669359906
0.01127399826
0.01067625278
0.01187093814
0.01236518656
0.04338823393
0.009058546195
0.008968792553
0.01059628483
0.009174128249
0.008922533543
0.03640933858
0.008777894594
0.01169501907
0.01216779989
0.01123434461
0.01834930336
0.04672325139
0.04197815076
0.01058616396
0.03388607472
0.02896535964
0.04026842312
0.03577715822
0.01079604004
0.01194918282
0.03326804349
0.02787310195
0.1078396055
0.1012577458
0.03833262707
0.0489858576
0.115043824
0.1096252116
0.04501242904
0.0441861142
0.06724346695
0.07496288537
0.09025513944
0.05630513276
0.07035609633
0.06807214067
0.06005943265
0.1361625318
0.1256047936
0.0974764761
0.1264020507
0.05997911789
0.03762367266
0.0413861996
0.05159216586
0.03260666165
0.03642223115
0.0193907064
0.01839960801
0.0448014547
0.01333186818
0.01330569561
0.01036468712
0.01930066797
0.02288209731
0.01373618864
0.01948771367
0.03437919589
0.02672235166
0.0203080459
0.02977503342
0.09511674943
0.08359545461
0.1012290617
0.0974901083
0.03089655803
0.07542907698
0.07329563025
0.08030747044
0.07619536638
0.03666078133
0.1165169525
0.1124138661
0.1231064251
0.1179625389
0.03723878056
0.03308063586
0.1060531726
0.1025028659
0.1110921518
0.1072803209
0.03341554133
0.009035324766
0.00888461881
0.03235832578
0.02916811872
0.008804152923
0.009088145057
0.04406061346
0.04329817902
0.04622739053
0.04432249099
0.04188185357
0.04083258278
0.04304360724
0.04215591989
0.07003454149
0.06812300965
0.07263158516
0.070695693
0.06272859182
0.04894483326
0.06732771395
0.06526780143
0.02141014287
0.01821386961
0.02754221033
0.02312315035
0.006657012859
0.01172640026
0.0110040873
0.01700686126
0.01198718585
0.03670766405
0.03731453799
0.1011585579
0.02177722852
0.02155767014
0.02244287634
0.02196375205
0.02087904232
0.08772676726
0.02326685869
0.03451343343
0.04155085187
0.0547757577
0.1245245435
0.0380196824
0.02462076395
0.04069261293
0.03770093981
0.02322633151
0.02267970246
0.02417195456
0.02345041715
0.1131749513
0.03961981561
0.0405113248
0.007275764525
0.02500135731
0.01086139833
0.0108442134
0.01061728657
0.02330466205
0.008969580499
0.01822232758
0.01232357089
0.01273392102
0.05161412916
0.04508187643
0.02052939873
0.02101610871
0.07592752576
0.06779346826
0.01964301183
0.0204678941
0.01215919323
0.02951625713
0.08560014794
0.0771632011
0.01375787504
0.01302582739
0.01832015424
0.01247310818
0.01419525091
0.01538523368
0.03190904699
0.009359113512
0.01401477665
0.01233160991
0.01416951412
0.0215715022
0.0509523856
0.1080381111
0.139551273
0.01167179289
0.01122744075
0.185487324
0.235492243
0.1935634461
0.007700368253
0.03374426575
0.01375533361
0.0166500155
0.1347603639
0.1405345536
0.157744485
0.004656402299
0.00704608525
0.005211307885
0.004830244319
0.005561363114
0.004352252654
0.0542244894
0.03384203677
0.02150099148
0.02461692613
0.02287595111
0.02646171841
0.2154665771
0.3492436128
0.3684309714
0.3290773401
0.3420073718
0.2189847044
0.04011448435
0.03505839058
0.01244145019
0.0602754388
0.07167252506
0.132254336
0.1222406613
0.1167662123
0.049476991
0.02700116355
0.02768196632
0.0326656687
0.3650273124
0.354901588
0.1901113185
0.1514445772
0.06831873799
0.0720577259
0.07508889544
0.08570478341
0.1646341235
0.06021487471
0.1304450745
0.1241470703
0.01209035281
0.01202900987
0.01395295364
0.0204162277
0.02071718131
0.03369941713
0.01197355736
0.01239716199
0.0121568664
0.02470664925
0.04816630554
0.04155298836
0.01926936584
0.03227222238
0.01996323149
0.02014582257
0.0196842538
0.01397182159
0.01022053029
0.01167729197
0.01148339077
0.01201084721
0.02137855927
0.02658309655
0.05280036287
0.04052629102
0.0358815698
0.03271771886
0.02410606985
0.03909759873
0.0142272012
0.0193635417
0.01288661917
0.009320956901
0.009378969779
0.01317111809
0.01293269802
0.02205545469
0.01400687647
0.009743832652
0.01633270845
0.01856260427
0.01730014978
0.01269147446
0.01592387268
0.01526308428
0.01066618392
0.01108754133
0.006849011264
0.01024108236
0.0105868837
0.0532758044
0.04826010844
0.01996879287
0.009829343961
0.0124091456
0.01148359348
0.01179171582
0.01354972219
0.01244639349
0.04776859983
0.03710163474
0.04266006161
0.06602683577
0.09237262392
0.09113821721
0.04178344623
0.06702174531
0.06350336984
0.09011526627
0.08855083298
0.06366562958
0.03113501288
0.03770026652
0.03406289694
0.02625010398
0.0270162791
0.02229612817
0.04651854423
0.0452473112
0.0478835467
0.02398745622
0.03442384442
0.03278730762
0.05270779362
0.05233897179
0.03132404287
0.02911596932
0.0287071163
0.03173734673
0.03103071182
0.03570782357
0.05853598782
0.05795120685
0.06195361247
0.06123268848
0.03849459408
0.03231070968
0.05389092724
0.05338816823
0.05734804062
0.05675149432
0.0342612927
0.06576172156
0.0676308715
0.1497943836
0.1387804869
0.06334123895
0.06516660109
0.09238396654
0.0954307075
0.1785469415
0.02711236535
0.02696445059
0.02847087098
0.02825125955
0.0206952958
0.0266974884
0.02658896815
0.1664199338
0.08788387825
0.09124749404
0.009533242373
0.009504278975
0.01120646081
0.01082897362
0.009732043793
0.009346844085
0.006627880851
0.05400246467
0.02116771611
0.02591593428
0.1385705596
0.1325450521
0.06349715844
0.07306843037
0.1457582012
0.1403640182
0.03298487324
0.0330403924
0.05045255917
0.04875542337
0.03258565256
0.03252255271
0.0117369271
0.0235208454
0.0376724701
0.03696801353
0.008935141765
0.01494282706
0.01653159252
0.01436192732
0.01399644287
0.01903025683
0.01927408823
0.03150223426
0.01309422522
0.009513270282
0.01289843256
0.01347707255
0.02946939607
0.01851951915
0.01911829686
0.01377752644
0.0305172723
0.02526325461
0.01180777938
0.01177779712
0.01125948846
0.01141241094
0.01472062107
0.006282159078
0.004075162662
0.007305987342
0.01166640918
0.01140086969
0.01138136938
0.01111033955
0.01145531353
0.01118094773
0.00981091482
0.006442285104
0.00517251262
0.0105354948
0.01084146301
0.01016137345
0.01027657697
0.01188688128
0.01820222259
0.01841990742
0.01786052684
0.01803250149
0.01176515439
0.008773779645
0.01384498773
0.01382808491
0.01431892279
0.01395697125
0.008710977898
0.01307029075
0.02046588782
0.02273697977
0.01868982632
0.01926690445
0.01266106241
0.008821405581
0.01383980542
0.01384700362
0.01379338911
0.01383247649
0.008793245508
0.009838137154
0.0100089086
0.009526758279
0.009964233179
0.03783615292
0.05728224005
0.05681391992
0.02197605202
0.03670999473
0.03645128729
0.03805692428
0.03708369872
0.0221893652
0.012564517
0.01206793042
0.01239782451
0.0126408601
0.0206320524
0.0204362977
0.02107676223
0.02084853121
0.0160906175
0.03584547522
0.02132775086
0.0222647942
0.02129958124
0.03594169466
0.03571706661
0.03628638937
0.03609856365
0.02142866442
0.02201793768
0.02139556343
0.03222382589
0.02302987174
0.0165131436
0.008435206606
0.01207501789
0.01188005946
0.008320664591
0.0441614097
0.03072725835
0.002977460245
0.03062453529
0.04697438664
0.04663720133
0.01905913832
0.0119612988
0.008800548036
0.003376423778
0.01369666007
0.0141468192
0.01971866618
0.01988921115
0.03220567003
0.02010835721
0.01057686019
0.01124540941
0.01438394295
0.004810739054
0.009068573243
0.006865154639
0.007269231645
0.007645706007
0.01009191848
0.006714561564
0.01152497245
0.01147690575
0.01151939128
0.04026772112
0.03130778846
0.00807135412
0.01014070296
0.01120032898
0.01832499235
0.02054148727
0.01200440397
0.0148626313
0.01433417609
0.01128114664
0.007406881197
0.01122872143
0.01276242163
0.008919819165
0.01259787481
0.01283064853
0.01291667954
0.01314313639
0.01294564532
0.01294964854
0.01284299241
0.01289208455
0.01334550155
0.01330106996
0.01297765658
0.01337430279
0.01374356524
0.01362057482
0.01688662973
0.01855895228
0.01637324246
0.02508985267
0.02087125537
0.01612772864
0.01510940505
0.01636632875
0.01011873271
0.01612998227
0.01706125767
0.01159443989
0.01607333547
0.01078558694
0.01109189781
0.01752365827
0.01767287609
0.01713829922
0.01736622418
0.01093230046
0.01206509826
0.02087947063
0.0204945529
0.009061515922
0.00901388387
0.009669435313
0.006820212894
0.009103275298
0.009039550999
0.008796203386
0.007506279938
0.009832501952
0.01722296906
0.01535969362
0.01993206328
0.01889100957
0.01101066287
0.01029059603
0.01063937108
0.01352286748
0.006978591828
0.01058223849
0.01045019335
0.01110095607
0.01029330282
0.0104493162
0.0158519697
0.01411880315
0.01007885407
0.04613138975
0.04323797045
0.0818957123
0.07366411066
0.04370344965
0.06341137171
0.0877727992
0.08450857404
0.03440853521
0.03175517262
0.0295422426
0.02249383899
0.02917822767
0.04174657831
0.042419878
0.03738310983
0.0193268854
0.02787843327
0.02829077069
0.02535053557
0.0262093503
0.01824288535
0.01253640295
0.01344612466
0.0206027353
0.01447178389
0.01380098898
0.01547903673
0.01471121875
0.02088568256
0.01415476443
0.01472966675
0.01158396958
0.01508819946
0.04836796967
0.04855237059
0.03119033742
0.03087735715
0.05139769008
0.05138966722
0.02980071435
0.02941227974
0.03057082391
0.03014923195
0.05960311829
0.05904727402
0.03610197648
0.03784904442
0.06068317873
0.06014970395
0.05504787943
0.05451560494
0.0327361045
0.03379753994
0.05614495433
0.05559042009
0.008952484663
0.01391444626
0.01394570258
0.01388145547
0.013914353
0.008932536662
0.009109678826
0.01296496479
0.01128939809
0.01388388659
0.01365609807
0.009125540416
0.04379489991
0.02582113837
0.02609135834
0.0253936798
0.02560128513
0.04355207049
0.04510986713
0.02704012244
0.02753293039
0.02635914074
0.02667115204
0.04463721876
0.04150306331
0.02416834427
0.02440722652
0.02379880374
0.02402963002
0.04126810949
0.04276687572
0.02499654467
0.02518836489
0.02457383171
0.02480679868
0.0424931106
0.02754953913
0.02736338033
0.06940639539
0.04678537837
0.04710171666
0.04609928894
0.04637711372
0.06871095735
0.02799350743
0.0277871057
0.02543939462
0.02670549422
0.06066609327
0.04238515805
0.04208623927
0.02844343465
0.02986210687
0.05425765884
0.06685241629
0.04541079261
0.0456090664
0.04470427021
0.04465522474
0.0656479286
0.02626279848
0.02630665509
0.009559428348
0.00966672299
0.009543362528
0.01052189066
0.009916474631
0.01139451156
0.009363698547
0.009393923974
0.009209940054
0.009285791521
0.01133116132
0.01522096707
0.009765681342
0.01053890359
0.009475175445
0.009334951577
0.01319091471
0.03662631993
0.05473140401
0.05442883726
0.05612985292
0.05577078784
0.03721634381
0.0217310447
0.02148775092
0.02231626731
0.02204099441
0.02197037352
0.01714643677
0.02450790002
0.04502375398
0.04039782131
0.0522363456
0.05043738982
0.03480823096
0.02673129811
0.01856116595
0.02389119672
0.02541250912
0.04001564506
0.02344080618
0.02373236064
0.02274236564
0.0234945268
0.04008279677
0.02305723395
0.02283099222
0.02389753864
0.02364829029
0.01099234662
0.01131219791
0.01113293004
0.01328077777
0.01197558651
0.0110187928
0.01059523094
0.01072688852
0.01082739677
0.01081429375
0.007139715227
0.01273518314
0.01226282884
0.01241127467
0.01261669798
0.01241895702
0.01269132583
0.01997406984
0.0199308475
0.02022967022
0.02016409053
0.03085657193
0.03081476324
0.04671523118
0.01915578056
0.02021544545
0.01969292784
0.01976389202
0.02074338913
0.03511926182
0.03475265838
0.03555237502
0.0352690156
0.02082471948
0.02019874582
0.0340534443
0.0321515036
0.03462974933
0.03402933974
0.02018134806
0.01220734739
0.0450156871
0.04446454781
0.02929416427
0.01396506566
0.01129324676
0.0109934967
0.008388748896
0.01150041597
0.01323160517
0.01888254583
0.01321190077
0.01451326554
0.01421182999
0.03161993689
0.0193890717
0.01959321505
0.01282771407
0.01263823156
0.01271227727
0.0136391188
0.01337557636
0.008994063854
0.009296904758
0.01396108954
0.01283320689
0.01342690221
0.01572788829
0.01940940421
0.02948160495
1.155535609
1.156255443
1.156046931
1.156556993
1.15772678
1.15678511
1.143788674
0.9697810151
1.157768353
0.9352101823
0.8351503731
0.9899052942
0.8180589189
0.7802639395
0.9218396913
0.7782510678
0.7933527646
0.9375238954
0.8034252873
0.8748582412
1.040412553
0.9022119814
1.0352035
1.157651507
1.081536344
1.157463925
1.156685337
1.157096085
1.156167021
1.156018934
1.155928058
1.157457303
1.156434338
1.105580822
0.8929466823
1.12419949
0.8372489168
0.7067533822
0.9028769831