/*--------------------------------*- C++ -*----------------------------------*\
| =========                 |                                                 |
| \\      /  F ield         | OpenFOAM: The Open Source CFD Toolbox           |
|  \\    /   O peration     | Version:  v1912                                 |
|   \\  /    A nd           | Website:  www.openfoam.com                      |
|    \\/     M anipulation  |                                                 |
\*---------------------------------------------------------------------------*/
FoamFile
{
    version     2.0;
    format      ascii;
    class       volScalarField;
    location    "1.01";
    object      p;
}
// * * * * * * * * * * * * * * * * * * * * * * * * * * * * * * * * * * * * * //

dimensions      [0 2 -2 0 0 0 0];


internalField   nonuniform List<scalar> 
12556
(
1011.372949
1009.486727
1005.10743
996.5162255
984.9233411
960.9217518
922.9272311
864.0802183
778.3523888
659.2702607
504.0131843
315.8030536
107.94706
-100.229014
-289.875899
-448.4520482
-572.9826079
-665.8119032
-732.1225647
-777.2719687
-814.0308024
-830.1825641
-839.3344495
-843.4858972
1012.554822
1011.185759
1007.828341
1001.07596
989.4068586
968.5831615
934.4029864
886.2099887
807.8387571
695.323928
542.9196099
351.9653919
136.8278301
-82.0575549
-282.377321
-448.8139925
-576.7092578
-670.5456283
-743.4461091
-785.181212
-820.8665393
-834.7004801
-842.595584
-846.1609539
1015.370524
1015.133992
1014.162064
1011.436985
1002.602915
988.9808522
964.145642
921.2903251
853.0377793
746.6503688
590.0808573
381.9645903
137.5828236
-110.0407972
-326.7713797
-497.1697269
-621.3383658
-706.5069017
-774.2522708
-807.3957576
-836.4833805
-845.4251271
-850.5021693
-852.694344
1018.920246
1020.288387
1022.731466
1025.399427
1022.382252
1018.984078
1008.969837
979.4052285
930.8053804
838.709936
683.33329
449.0119443
145.2797803
-168.0059133
-420.508586
-591.6819198
-701.6039344
-770.5635125
-821.2065506
-840.5447308
-858.3947065
-860.9547896
-861.8336334
-862.017403
1021.510566
1024.720549
1031.171333
1040.145832
1044.688144
1054.700657
1063.949356
1057.868244
1039.494224
980.2042558
849.2921282
591.0636489
172.1521527
-280.4400104
-592.3731295
-753.5250733
-825.055008
-858.226288
-881.1560471
-881.7358019
-883.5519037
-878.2203979
-874.0465663
-871.8660225
1021.320004
1026.374117
1036.841654
1052.848183
1064.736791
1090.505116
1122.2533
1145.652565
1171.289261
1177.624067
1127.282632
893.236333
226.2312798
-549.4540434
-916.3005528
-1002.062036
-990.0893757
-965.2860638
-948.8840708
-925.7899686
-908.2437825
-894.1815371
-884.542851
-879.8893811
1016.591055
1023.271119
1037.135832
1059.175836
1080.212989
1119.590021
1173.481326
1226.832412
1302.421851
1395.958154
1525.321702
1597.673139
400.4661056
-1360.417813
-1488.823444
-1338.921977
-1185.839467
-1079.518191
-1014.918147
-966.3162034
-928.6872291
-905.5056918
-890.7735119
-883.827932
1005.805748
1013.646153
1029.895939
1056.145114
1084.883364
1134.611063
1204.509051
1282.726684
1396.586895
1561.513034
1860.556287
2483.084574
-3356.273429
-2270.359551
-1703.074439
-1370.946969
-1180.612522
-1066.443272
-995.8310218
-939.061812
-908.8490893
-890.2750317
-881.4439918
987.8196906
996.1963706
1013.514757
1041.622265
1076.035735
1130.47222
1207.79082
1299.909106
1428.560964
1603.892566
1878.285961
2256.668824
-4728.752111
-2773.978196
-1937.545393
-1487.568001
-1241.334111
-1091.580055
-1006.406768
-935.8650186
-901.6785794
-880.9252274
-871.0018828
962.0366061
970.267994
987.2159675
1014.630279
1052.024641
1105.542006
1180.593942
1272.230806
1391.102328
1540.902694
1734.24736
1930.814079
-4211.577619
-2692.543219
-1929.478208
-1488.020821
-1242.290309
-1082.41033
-994.1879256
-917.1257948
-882.5280429
-861.5307761
-851.4568869
928.4875666
935.9489045
951.195157
975.5263718
1013.40075
1061.049117
1126.481895
1209.295298
1308.559498
1424.592086
1559.837743
1691.517357
-3089.951914
-2226.101076
-1716.733364
-1386.612583
-1184.487303
-1038.709443
-958.6916372
-882.8464633
-851.3397359
-832.0100027
-822.6784521
887.7774377
893.9655428
906.5627864
925.5733145
962.7644381
1000.259657
1051.137554
1120.010608
1196.017768
1280.088993
1374.588328
1489.685217
-1977.308124
-1635.731151
-1402.194006
-1216.104872
-1081.992779
-966.7734143
-903.3266718
-834.8505852
-809.5112749
-793.3099432
-785.4340288
841.0144446
845.6123577
855.1178872
868.5619859
900.5179366
927.2143702
960.7205379
1013.758707
1065.08366
1116.897428
1166.943677
1252.832257
-725.6505399
-992.4929837
-1090.148174
-1080.557948
-1022.424604
-956.0771474
-877.0645494
-833.3060565
-777.7916008
-759.4990569
-747.1682194
-741.1993666
789.5507988
792.4573919
798.6677171
806.9447702
832.3743047
847.9253089
864.6156117
899.4464345
926.7859339
945.8239632
942.8521874
933.8019051
304.3961083
-389.751558
-684.2463234
-810.2279001
-839.233867
-823.8683118
-780.5646353
-755.8048175
-715.4278757
-703.9137729
-695.7444451
-691.8608931
734.8922153
736.0524378
738.6374889
741.586082
760.9573836
764.9018827
766.149333
781.3012626
785.7136779
776.5395154
729.8448478
594.4347537
285.4023287
-141.1711944
-440.5239876
-610.2246598
-682.7120963
-699.6177337
-684.4920058
-676.9155778
-650.5782103
-645.3582221
-641.2846973
-639.4071551
678.528079
678.1133178
677.3268781
675.4117919
689.1413643
683.5638077
672.6416821
668.456634
650.7724445
619.5316136
553.1995605
434.8015881
212.9429175
-75.66854941
-316.913019
-474.0178188
-556.1169341
-589.871061
-595.1194995
-600.6207112
-586.1122928
-586.2963347
-585.8453723
-585.7067345
621.8808834
620.1839657
616.6523838
610.8217191
619.2993961
606.4672516
586.4408038
568.4791948
529.7822197
479.5243146
405.0787295
295.6745877
123.1464873
-74.92609197
-253.6490692
-380.9454476
-454.824227
-496.8714312
-514.8757532
-529.3934496
-524.2604588
-528.7182558
-531.1583023
-532.3610085
566.189218
563.5117023
557.8804672
549.1247611
553.2807132
535.3042548
509.3053083
484.2922177
432.4146937
368.6620718
287.6800297
193.7691198
58.19357907
-84.5869999
-211.9312583
-307.2526368
-372.5125645
-418.3467472
-444.2800702
-464.4190825
-466.3689812
-473.8801699
-478.4792611
-480.6562688
512.4067398
509.0306774
501.9029154
491.136155
492.0786472
470.9571022
441.6829453
413.8144537
361.7093604
296.0868306
215.0043789
130.1252209
24.45585381
-80.30462626
-172.1376005
-248.3372149
-308.4075224
-353.8887132
-383.3331144
-406.3602032
-413.092463
-422.5635581
-428.6133527
-431.5011386
461.2205282
457.4089375
449.3487183
437.3800669
436.1307178
413.4845491
382.9725991
354.7420731
305.203833
245.5281475
175.5069516
103.961775
18.65063308
-63.72008115
-139.0396378
-204.2275605
-258.048957
-300.9755325
-331.1198426
-355.0530987
-364.7024359
-375.2344925
-382.1330471
-385.4250861
413.0847486
409.0651216
400.5661132
388.0866335
385.4078214
362.4863118
332.3076756
305.012842
259.2805802
206.3020433
146.8009273
85.1622472
15.9331369
-51.74042346
-114.5571027
-170.3104704
-217.8573326
-257.1906829
-286.4647632
-309.9630457
-321.1228606
-332.0281767
-339.2873409
-342.755319
368.2523473
364.2035872
355.6535411
343.2063705
339.6848034
317.3614542
288.6742508
262.8809507
221.4480477
174.7286219
123.4707586
70.99189462
13.41802222
-42.94580916
-95.79996775
-143.5559418
-185.2343259
-220.5947615
-248.1544384
-270.4145221
-282.0898076
-292.8599659
-300.1148045
-303.5857462
326.8043847
322.8586801
314.5384701
302.5135854
298.6053708
277.4484061
250.7785712
226.9599301
189.8569335
148.8015827
104.5324413
59.67527157
11.22807203
-36.20542967
-80.98555145
-121.9636539
-158.3350011
-189.793951
-215.0839974
-235.7112528
-247.2184163
-257.5075755
-264.5060288
-267.8588014
288.6904098
284.9417612
277.0463408
265.7063646
261.7505998
242.1093772
217.718602
196.0894227
163.1460251
127.1674073
88.89888778
50.41987202
9.352482938
-30.84659022
-68.97168412
-104.1799035
-135.8230639
-163.5940816
-186.4059686
-205.1931621
-216.0847753
-225.6776607
-232.2557472
-235.4100076
253.7698178
250.2817101
242.9405097
232.4513597
228.688183
210.7473815
188.731663
169.351086
140.3030447
108.8668703
75.78187542
42.71728442
7.755674455
-26.45560263
-59.00738361
-89.26998893
-116.7238811
-141.0862649
-161.3957307
-178.2731152
-188.2714777
-197.0466153
-203.1043142
-206.0101955
221.8428208
218.6543148
211.9459284
202.4016689
198.9931892
182.8268834
163.1773114
146.0129555
120.5603272
93.19365462
64.62195342
36.21424354
6.39988554
-22.76516932
-50.58126163
-76.5699677
-100.3138037
-121.5626675
-139.4436135
-154.431686
-163.381775
-171.2825611
-176.766168
-179.3965106
192.6687603
189.8004164
183.7654044
175.2085918
172.2672135
157.8773948
140.5228948
125.4907549
103.3323073
79.62122727
55.01227411
30.65685077
5.250420787
-19.59614955
-43.3356036
-65.59919082
-86.04995213
-104.4716965
-120.049364
-133.2199846
-141.0433151
-148.0567581
-152.9453578
-155.2892943
165.9818672
163.4412833
158.0936225
150.5320708
148.1329773
135.4779369
120.3141048
107.3064281
88.15993228
67.74668124
46.64474727
25.85537986
4.276432144
-16.82343138
-37.01088858
-55.99855996
-73.51367308
-89.37267245
-102.7923301
-114.2434611
-120.911801
-127.0524725
-131.3469532
-133.4044446
141.5059764
139.2923542
134.6287456
128.0480745
126.2435584
115.2574047
102.1654418
91.06563737
74.67602601
57.25270112
39.28678572
21.66520865
3.451202732
-14.35728761
-31.41447771
-47.49482554
-62.37731857
-75.90970127
-87.3212473
-97.1596691
-102.6733121
-107.9718936
-111.6864115
-113.4639801
118.9630516
117.0703596
113.0769791
107.450137
106.2773233
96.88480029
85.75110945
76.4307239
62.57842203
47.88407322
32.75173259
17.97161626
2.751292532
-12.13085556
-26.39823444
-39.87346797
-52.37679322
-63.77915277
-73.33971171
-81.66767664
-86.04212111
-90.53716467
-93.69318715
-95.20104288
98.07346211
96.49368183
93.15176094
88.44286524
87.94371214
80.06020283
70.82810839
63.11698973
51.61891723
39.4348692
26.88333544
14.68069522
2.15591748
-10.09285413
-21.84547863
-32.96334774
-43.30024344
-52.73820148
-60.58003049
-67.50078149
-70.75309218
-74.48766318
-77.109429
-78.3587456
78.58326754
77.30580006
74.59482174
70.76915472
70.95454661
64.50623359
57.08086566
50.9048828
41.59077516
31.73067485
21.55345116
11.71470712
1.646844264
-8.202729936
-17.66166222
-26.62425124
-34.9755255
-42.61741355
-48.79418244
-54.41657893
-56.57959177
-59.59391344
-61.7059402
-62.70943777
60.16536095
59.18788445
57.09479409
54.1082058
55.10224787
49.97293043
44.16986017
39.59165633
32.3069324
24.61732078
16.65225227
9.007146525
1.207856015
-6.426900648
-13.76651067
-20.73430173
-27.24511024
-33.23508549
-37.79976113
-42.19766354
-43.25230708
-45.59311654
-47.21315343
-47.97580053
42.80068797
42.09813296
40.60254958
38.47857869
39.93409902
36.23277265
31.97259717
28.94876258
23.5923542
17.95648826
12.08190298
6.499809355
0.8243669446
-4.737017974
-10.09072698
-15.18603756
-19.96442054
-24.38211457
-27.43595724
-30.62989691
-30.7821474
-32.43738405
-33.58700877
-34.13341773
25.39088988
25.02987257
24.14532274
22.86992562
25.48903773
23.0791492
20.30210048
18.7962883
15.28632904
11.61866262
7.752469332
4.140803319
0.4828308657
-3.108375482
-6.572730731
-9.883164726
-13.00613791
-15.92070364
-17.51278617
-19.60462347
-18.34257286
-19.33405877
-20.01087889
-20.28240431
11.40824345
11.14004708
10.72222358
10.12582824
11.39331903
10.20568405
8.87890048
8.968922485
7.235504982
5.473757644
3.572035901
1.888610888
0.1706591779
-1.518616573
-3.157166039
-4.738561133
-6.251406137
-7.709848708
-7.809679174
-8.775042935
-8.329521293
-8.785319918
-9.105720262
-9.330059577
2308.034565
-5101.989689
-3590.854252
1965.11331
-4599.441644
-5127.771611
1718.182454
-3365.393841
-4463.82598
1515.645428
-2155.651178
-3206.42844
1271.493768
-775.9489776
-822.5766707
-1107.010223
-2014.314108
964.1525646
389.259553
-726.8659631
249.3478234
-398.2148842
-991.3846551
2417.711554
675.1369634
-3196.73533
-1155.174921
-7091.179175
-4879.994317
-4691.976028
-3003.013928
-2469.370024
1775.330784
1942.840802
2207.433389
-6587.667279
-7139.466379
-4327.071118
-3043.437037
-3084.170566
1604.301061
1704.880273
1910.218184
1833.934976
1875.721685
2001.912185
-4703.035922
-5649.951228
-3235.003103
-2548.803256
-2954.478002
1422.500987
1500.969889
1678.458169
1615.516233
1660.136367
1743.724154
-3033.54093
-3734.360622
1220.907018
1268.694944
1474.896353
1396.852451
1462.964384
1561.196605
-1616.283533
-1599.322914
-2203.841566
999.144655
974.0025183
1234.814476
1122.185487
1157.597796
1322.741628
666.0816505
405.144525
404.5642624
2883.156346
2438.624349
3267.111007
2964.070598
-7168.764868
-7131.46773
-4769.761391
-6796.885388
-6987.171206
2019.56325
2151.499162
2076.691164
2158.43249
2023.80215
2394.872021
2180.40488
-5708.779597
-6543.080132
-4876.523376
-6405.629897
-5614.779931
-6961.865097
-6449.133387
-4925.367191
1756.80195
1858.933902
1803.548114
1868.411913
1758.799674
2014.548753
1877.578215
-3839.231203
-4637.759929
-3845.245079
-4527.163258
-3765.854139
-5557.190927
-4647.016948
-4004.885069
1567.752496
1654.947265
1590.851521
1659.094032
1572.829569
1751.873751
1664.069307
-2293.076111
-2937.762588
1331.975201
1455.928396
1381.371278
-1566.070785
1462.020175
1338.029076
1566.13304
1469.127905
-1609.161385
-999.4059701
-1517.498171
-1563.234113
1034.980028
1144.053813
1101.468073
6.121596143
1149.986034
960.5970435
1328.800028
1162.768983
-68.34926646
1898.21385
2249.861417
2355.120895
2494.360217
2899.423032
3112.298934
-9482.505237
-6442.056202
2117.678112
2174.192309
2389.555502
-3633.257484
-2110.549604
-1870.620419
-2385.788485
-2046.885503
-2005.610191
-2324.014413
-126.561442
-460.1437576
-851.608971
2431.481779
2830.849636
2457.613821
2608.248368
4129.271028
3833.809874
-4601.953585
-6680.093282
-4553.955809
-2376.64609
-2721.695747
-2593.986177
-2893.666137
-2267.969124
-3664.942872
-2986.611539
-2744.103713
-1138.650692
-231.8875902
-407.7931224
976.1896993
2186.178598
3190.382775
-4340.498041
-1533.950979
594.4108815
-9548.324039
-6574.63825
-9096.839397
-6089.160323
-8955.960377
-6234.818083
-6840.463462
-6879.418925
-5147.373645
-5211.735955
-3195.787721
-3547.97136
-3326.498448
-3531.655157
-3167.120576
-3995.350206
-3587.189286
-3426.834207
1509.502954
1474.344057
1432.226966
-1620.403735
-1909.156662
-1958.850897
1243.479535
1206.223817
1138.571297
1284.466496
1226.800333
1253.601719
2990.783573
2649.134108
2659.429162
2653.474576
3005.634566
2414.812002
2614.690838
2596.857074
3261.509174
3753.705634
3985.511423
3071.303585
3664.892479
3201.168628
3725.828538
3073.052787
-7263.146517
-7269.019161
2093.648532
2180.474783
2084.232423
2286.373157
2277.737218
2397.262481
2188.385884
2264.495627
2256.430193
-6095.254804
-6148.464402
-6044.185928
-5419.657481
-5631.610716
-5087.824564
-5341.362622
-5992.374571
-6739.495615
-5893.279064
-5971.483652
-5693.523494
-5851.995786
-6702.428538
1813.772209
1805.961835
1950.595817
1940.652658
-4168.714406
-4042.056903
-4226.170665
1619.85963
1613.847722
1707.605427
1701.834189
-3110.849324
-2751.452086
-2656.39054
-2770.137173
-3131.988984
1388.998444
1353.909942
1302.413025
1417.397963
1370.455407
1398.480794
-1190.467416
1403.350469
1393.362442
1520.243935
1514.34318
-1964.355132
-1195.112144
-1244.63734
-1525.670816
1114.099711
1039.496402
958.5519233
983.6607803
514.7352593
232.1455726
1260.139681
-218.9610765
191.927761
-133.0110615
1250.62918
-316.879931
-168.822943
159.8669737
-8377.862643
-2214.262285
-2382.174974
779.3034853
711.1442504
935.5886613
815.529427
831.9612373
997.449396
296.2493791
-77.44617197
-278.5111236
4886.808569
-2415.427664
-2602.165021
-888.9548616
-1152.866805
-1144.709925
-96.2693106
-351.6500893
-54.91897721
1437.548943
2818.389568
4034.769265
-5725.939184
-2080.133134
379.5848997
-6706.740608
-7707.934215
-7540.110198
-7035.599567
-4890.332137
-5088.860553
-4872.958818
-5928.908101
-5736.295527
-5467.343683
1698.622932
1672.759002
1636.923807
1723.139403
1685.038342
1704.702081
1527.186571
1487.79434
1515.642326
1196.589515
1181.605954
1143.432337
916.9670637
723.0915062
454.9910219
-7219.078052
-7788.441439
-7773.807862
-7061.703367
-5890.785648
-5652.308809
-5979.331052
-5933.385141
-7051.823382
-5880.250262
-6175.41403
-5996.096389
-6386.565493
1797.668442
1777.161711
1736.248066
1767.610905
1786.068362
1778.111556
-4805.905508
-4598.480564
-4456.870522
-4186.918715
-3931.616549
-4221.919744
-5137.138823
-4713.869721
-4997.305574
-4320.268141
-4616.372799
-5075.566344
1609.554752
1577.288545
1539.988492
1625.142754
1589.454509
1615.514269
1643.588267
1659.476374
1671.555297
1587.696725
1611.667659
1591.886954
1732.690278
1740.312119
1760.992561
1675.208367
1688.176751
1679.424425
-2564.698501
-2702.570121
-2372.645173
-1385.898167
-1402.960702
1439.632364
1355.163502
1545.530418
1555.754237
1581.527355
1509.792487
1488.888227
-1750.488891
792.5997319
1014.997162
965.3350761
1129.651446
1083.320225
1091.447222
200.4672018
427.7311836
198.121365
1098.884345
459.6150743
749.0392541
553.4780945
587.7546371
1295.474784
1201.220589
-8741.424632
-8089.200957
-8345.38525
-3789.505163
-3860.005251
-2015.608133
-2163.666233
-2166.482916
2517.449947
2489.622963
4173.191564
4716.112697
4675.774549
4574.804089
4118.047988
-2796.5513
-2606.854763
-2569.916378
-2605.744382
-2813.156251
-1139.998927
-957.5065958
-980.5951606
-959.3792135
-1137.957357
-729.7823956
-908.7578356
-479.5385907
-515.5901146
-680.4425917
-306.9199588
-462.3764836
-378.4385439
-9350.283895
-8077.283327
-7646.292802
-8314.5638
-8169.308159
-7460.996043
-6714.315749
-8116.023243
-7245.216515
-7114.481496
-6738.740921
-6997.992335
-7478.053467
-7301.930068
-5371.661964
-5161.60084
-4954.841208
-5222.112709
-5438.504409
-4939.59528
-5156.80055
-5513.467238
-5404.192482
-5675.883632
-5448.604358
-3343.008745
-3412.777307
-3381.918805
-3299.925163
-3452.3319
-3834.416448
-3720.804195
-3884.687107
-3503.222921
-3666.925439
-3775.086828
-1826.144915
-1810.350493
-1961.705868
1227.149269
1194.248952
1205.519526
1280.948561
1267.495977
1238.129016
2824.640799
2776.185788
2781.57961
2784.399084
2662.532904
2979.872049
2829.479567
2831.502017
2490.97192
2501.524035
2427.27323
2626.00949
2529.646444
2520.218407
3304.983634
3211.462253
3037.087415
3425.772723
3326.840116
-7946.251614
-7808.347051
-7232.163744
-8010.074786
-8209.605587
-7953.498005
-8285.151942
-8372.110197
-8289.88304
-8251.044482
-7249.334013
-7995.477169
-8001.224881
2137.400769
2133.831072
2108.386853
2174.377647
2143.729153
2149.124362
2070.661834
2047.980211
2101.261812
2078.099683
2322.819734
2330.54926
2283.521768
2406.048632
2348.006879
2338.956261
2221.292476
2218.875675
2184.801196
2269.35901
2230.965922
2233.978143
-6396.571195
-6233.598572
-5935.440023
-6325.371261
-6641.539504
-6444.388195
1845.650138
1823.41185
1879.464915
1852.416525
1788.196483
1770.778232
1815.239884
1793.851075
1999.371483
1968.174859
2039.606129
2009.785324
1916.606895
1887.819415
1957.820676
1926.99666
-4158.770599
-4345.418915
-3942.603849
-4106.284488
-4195.72766
-4650.512225
-4864.290006
-4402.049662
-4587.196528
1632.022701
1653.494912
1637.955558
1659.658942
1635.114043
1675.22183
1666.134004
1629.486235
1597.090518
1614.474966
1625.965288
1717.405365
1733.585907
1725.895369
1737.111118
1720.353342
1764.04181
1743.200602
1689.860681
1678.056618
1712.014927
1694.616426
1684.808511
1693.141512
1710.829719
-2813.468772
-2928.851963
-2993.613054
-2802.297318
-3048.822672
-2976.600735
-1148.591187
-1354.346232
-1373.93421
-1150.598175
1431.923837
1365.422788
1531.775031
1548.526073
1538.843145
1495.702568
1517.104982
1527.704673
-1841.762737
1067.87484
1066.28471
1013.226972
630.0214974
550.1480183
1076.998814
303.5416709
444.1476682
354.8931904
1283.878113
-369.7775204
50.02670918
253.5298352
8.354539369
1204.964347
-3031.96584
-2223.206536
-1505.021603
-2362.672827
-2419.687397
-1132.626268
-1219.675414
-1699.523558
-2423.439961
-929.5528094
-908.6109244
-739.8303892
-2181.303902
-1632.958223
-1604.672914
1429.391328
3283.282352
4493.51275
-6988.803244
-2799.798924
182.55397
-2112.586887
-1821.705316
-4151.8701
-6868.710762
-7786.129241
-7971.136279
1929.017014
1901.977315
1852.336119
1971.833254
1919.148956
1947.329115
-1608.303645
-1758.960595
-1760.64158
-2276.417462
-1989.58172
-1939.679906
1305.709596
1277.868052
1291.694795
-8009.000725
-8010.182828
-7245.911839
1836.44092
1791.426353
1812.193025
1844.271013
1851.021951
1877.050928
1885.682564
1913.776791
1903.613307
1353.423476
1340.339952
1315.109718
-1577.263292
-1528.690411
-1519.632327
1343.447392
1353.003272
1346.264696
-1684.433294
-1693.198769
-1588.742878
-1405.227868
-1404.717808
-1557.931443
1135.297378
1319.487765
1326.731815
1334.843577
1172.252984
-9387.887218
-3672.269072
-2029.687064
-2104.323669
-2108.110902
-2365.050088
-2207.003126
-2177.49906
2571.839671
-5527.567618
-5009.623025
-6076.600966
-2521.739934
-2573.700737
-2410.920477
-724.1443244
-739.0704585
-555.5604791
-562.8103858
-665.8980223
-2848.553138
-2420.911368
-5498.789957
-9276.263849
-8746.512115
-8586.48614
-8976.199032
-9031.941824
-3245.675753
-3280.018159
-3227.505465
-3563.094867
-3565.234819
-3539.677281
-3094.459155
-3245.694515
-3319.707631
-3956.538029
-3898.355432
-3956.393156
-1955.046492
-1933.928957
-1967.243317
2928.572216
3010.533872
2690.137376
2694.098459
2698.148041
2658.088779
2432.863917
2444.011782
2422.137151
2620.327857
2585.537957
2579.565799
3452.889529
3275.973669
3394.225844
3621.232232
3643.028656
3785.429063
3077.078324
3147.856879
3148.646577
2119.327681
2116.183765
2114.487476
2178.203804
2168.46907
2171.109502
2068.642255
2062.720987
2109.453504
2101.04603
2293.35072
2295.409095
2280.537984
2401.532179
2381.316661
2377.932271
2196.709192
2197.015283
2187.357656
2266.946663
2255.172736
2254.427293
1821.115981
1843.539429
1835.87831
1785.290315
1792.263908
1813.43259
1963.874101
1994.10818
1978.113827
1986.849833
1975.905113
2055.730893
2045.458966
1899.402353
1965.06701
1954.33082
1913.376243
1923.740193
1953.790809
-4345.384795
-4421.304373
-4016.217728
-4086.824011
-4109.655104
-4491.44459
-4503.186304
-4395.648943
-4535.943357
-4356.796419
1374.749984
1349.392226
1361.873341
1425.466151
1408.213024
1383.782043
1407.951689
1419.426628
1413.544573
1383.822511
1387.887226
1397.364477
-1965.699079
991.6265517
1006.468963
972.5804288
666.3228043
998.981349
395.0269183
506.7426874
615.6171438
1266.861205
1272.659456
1267.926606
-283.1516872
-125.577441
-105.8333478
-121.8057712
1238.891145
1246.222459
1258.145212
-27.54269414
-112.5389164
-255.6489722
-2247.964109
-2296.09123
-2406.590219
-2356.471647
-2336.220129
5063.952296
5078.494073
5046.945594
-2477.420151
-2502.577891
-2412.853288
-2618.484884
-2560.138321
-2550.888049
-3862.894745
-3183.280687
-6608.704424
-6971.946295
-6989.095896
-6878.404393
-6928.522208
-7648.900477
-7460.498127
-7510.369835
-7364.669214
-7413.181108
-7594.984284
-5868.9537
-5780.879911
-5843.19212
-5646.238693
-5716.744382
-5806.316708
-7832.750776
-7612.535577
-7616.481102
-7561.019676
-7599.546602
-7824.915088
-6112.118275
-6022.801124
-6081.650629
-5905.607697
-5964.737669
-6056.606942
-6788.167581
-6833.230496
-6664.515936
-6727.48829
1664.054617
1658.646159
1653.643661
1594.311802
1590.144545
1583.197937
1604.215358
1597.71948
1602.82811
-1526.38626
-1583.127126
-1382.7283
-1469.149697
1457.541954
1452.903415
1470.802898
1462.908612
1359.596487
1351.065287
1357.360325
1353.549009
1564.351377
1561.059046
1553.250585
1576.501599
1569.117802
1573.627827
1485.551574
1480.369769
1501.777827
1484.04875
1492.328177
-1755.003767
-1749.52296
-1742.079197
-1588.354636
994.2358519
1007.554759
1076.312525
1111.352871
1105.539787
1086.4012
1118.9835
410.5896067
400.1801171
1040.585435
931.6766985
722.0857163
1297.517103
1314.222748
1308.351439
1186.484293
-9345.098396
-9626.058577
-9087.603949
-8989.400514
-8453.443093
-7517.771088
-9322.31604
-8984.310938
-3723.282723
-3876.449656
-2166.717506
-2157.943532
-2163.108516
2543.254031
2458.509008
4770.476816
4581.521088
4530.780903
4109.237372
3976.288776
4409.420511
4242.291838
4382.577937
-2695.149599
-2616.954662
-2753.064078
-973.8594
-968.7042485
-956.4104909
-1078.742395
-768.2054262
-742.9590738
-730.8092333
-895.3217361
-832.5789121
-834.0038841
-488.8641737
-544.8775671
-538.6510488
-361.1181818
-369.3032921
-415.7579265
-8947.959573
-8865.057065
-9333.166828
-8274.751
-8658.357539
-8657.644969
-9089.092084
-9073.612677
-7186.033745
-7067.544435
-7111.665683
-7010.237307
-7025.215676
-7131.39136
-7414.355656
-7259.880823
-7313.191152
-7159.652081
-7208.551618
-7357.381512
-5302.265393
-5225.724586
-5294.602566
-5289.694057
-5365.330663
-4984.040875
-5014.370722
-4989.304605
-5092.466739
-5594.542656
-5628.603139
-5581.98683
-5497.112143
-5571.885823
-5366.566013
-5435.373062
-5525.862042
-3383.309941
-3287.593238
-3283.326921
-3301.774321
-3238.864915
-3299.443085
-3486.654249
-3509.773522
-3439.305131
-3791.615302
-3835.579476
-3858.418003
2875.874548
2731.56962
2495.910122
2468.140711
2456.870994
2548.73631
2553.852561
2524.395714
3428.509331
3529.893328
3523.697111
3837.605273
3705.928816
3232.664907
3230.131047
3326.148618
-7889.891501
-7677.347114
-7709.74221
-7626.484902
-7648.356599
-7844.431249
-8074.154004
-8135.599767
-8340.076908
-8692.236296
-8598.648723
-8781.566085
-8784.567127
-8382.463921
-8315.28824
-8538.537535
-8497.525839
-8240.831336
2136.777728
2127.569148
2128.264756
2160.584348
2158.104278
2147.42729
2080.192874
2074.29678
2093.077363
2086.3662
2326.119243
2310.537004
2308.282472
2357.682068
2361.536863
2342.975742
2220.441479
2208.234354
2207.911398
2244.825141
2244.00086
2232.558312
-6347.225559
-6249.923741
-6300.033649
-6138.591422
-6194.875623
-6288.203707
-6586.147841
-6489.369219
-6574.15622
-6350.832848
-6413.320582
-6510.312535
1838.777935
1841.127321
1847.067736
1825.647234
1834.015418
1831.359706
1869.52559
1868.776568
1880.411938
1852.350003
1859.012378
1860.138623
1782.717898
1785.32648
1789.969698
1774.23999
1780.16437
1776.970165
1807.397998
1808.242033
1816.670677
1794.742987
1800.756928
1800.211787
2009.072397
1997.987974
1988.997448
1993.792056
2004.473599
1972.327627
1983.033915
1978.582365
2032.53507
2020.229002
1922.901924
1913.329262
1906.457375
1909.755147
1919.786243
1889.024279
1893.298857
1895.594042
1947.515812
1951.175668
1961.71349
1930.360629
1940.73811
1937.25363
1943.822587
1933.411015
-4251.460881
-4288.712731
-4180.781873
-4148.254831
-4171.384048
-4710.642121
-4742.068564
-4690.683524
-4902.365324
-4810.815303
-4780.583452
-4448.838075
-4481.362771
-4455.701387
-4634.965882
-4579.910129
-4517.425756
1638.607899
1634.597867
1628.091634
1647.887327
1641.370555
1646.109196
1650.592349
1641.892274
1672.618895
1669.762755
1625.366432
1615.242132
1609.449087
1609.155485
1607.186658
1621.770499
1616.060505
1621.297483
1723.855544
1729.029037
1740.533255
1724.888121
1756.971249
1759.694843
1767.223696
1746.237323
1752.726506
1750.066077
1685.354619
1681.382106
1704.842788
1699.425336
-2930.884586
-2915.441883
-2984.248893
-2799.696864
-2853.220811
-2888.388941
-3122.593476
-3170.851323
-3032.892345
-3035.475982
-3046.182627
-1307.357854
-1315.189746
-1370.963026
-1170.02265
-1236.977826
-1242.220899
1425.099595
1411.608983
1447.195034
1438.054948
1370.491214
1378.543969
1374.337597
1381.799951
1374.168585
1400.235582
1390.802713
1536.729427
1534.103887
1528.708535
1546.236518
1539.92239
1542.301376
1521.447949
1514.564001
1508.671514
1523.79619
1519.241606
1524.54024
-1905.657947
1064.416206
1039.936719
1041.253371
594.3681331
599.8570485
647.8030531
551.0161442
555.2855705
544.4240091
1052.812709
394.0539825
348.2197888
285.4293019
1275.088622
1277.23582
1284.091155
-349.0972737
134.5446382
80.08143618
239.2881315
230.9064608
240.2419671
64.31755775
-64.47575506
-45.53689401
53.68035108
1218.673304
1235.104887
1227.198836
910.0892392
859.6872016
831.0570515
838.4998975
761.5187282
727.6708059
729.991176
618.2795699
585.1128924
574.3358145
426.6998383
401.7949449
371.6700086
197.7083444
189.9635689
136.9194847
-42.29257806
-29.86467608
-100.6768578
-262.0997937
-235.5990759
-311.7172617
-442.7224329
-410.7328907
-481.4244554
-579.0545463
-547.569748
-606.8324398
-675.4846618
-649.1717561
962.8644831
925.1380975
873.2894872
908.3487754
840.7153443
777.7698442
811.4305773
700.1780407
634.4029497
654.5145234
490.6307017
438.5646552
427.2049228
216.6371791
200.7171403
142.0980529
-79.83942113
-49.69207374
-149.9460078
-337.5162029
-276.5096798
-391.3199483
-525.9285017
-458.7924387
-562.7184569
-653.1243867
-594.2751416
-677.6801916
-736.7933807
-688.1232661
1036.714869
1019.43116
946.1525135
1009.531571
962.5264637
866.9430413
939.7363881
842.9499076
729.154088
798.9880303
621.5072619
515.2920851
545.1535369
267.1540796
225.2804152
162.9261864
-149.1293525
-93.20351954
-244.1312932
-478.9827678
-365.1602514
-539.2489101
-672.7411918
-555.7243068
-704.8880943
-774.2270998
-678.2199714
-790.355171
-825.6060353
-756.7120404
1123.700895
1135.636985
1047.217584
1137.387657
1131.38905
1000.184886
1123.625913
1074.230561
891.345692
1044.956116
883.6990395
671.1054635
794.1900915
385.289057
288.3247739
210.8455399
-310.7457972
-176.0390953
-455.0810256
-753.7577438
-530.8124196
-814.9526864
-917.2197909
-723.3877152
-931.4274434
-946.075079
-812.4654207
-945.705497
-939.4011058
-851.8614702
1208.241795
1255.302229
1166.760448
1271.587254
1323.965659
1178.793398
1342.888454
1402.444404
1149.05243
1419.433489
1414.596058
983.7859503
1358.158724
610.9867667
433.031063
387.0032054
-855.1743491
-388.7276694
-1061.026023
-1307.904132
-858.6253086
-1319.343847
-1274.299304
-995.1241272
-1247.255669
-1162.004481
-996.3983478
-1135.668346
-1069.383207
-970.9425586
1272.109569
1349.037324
1282.496992
1378.359358
1485.294268
1369.81646
1530.376447
1715.254158
1490.08432
1802.601052
2300.69209
1610.195508
1942.419001
1949.430098
1385.712002
409.0180281
-1110.758236
-435.1284867
-1867.546852
-1778.484419
-1455.941183
-2075.417902
-1713.987255
-1380.79239
-1617.506204
-1388.01838
-1220.146469
-1328.871339
-1192.574878
-1101.94055
1298.857549
1390.787895
1365.014073
1425.841591