/*--------------------------------*- C++ -*----------------------------------*\
| =========                 |                                                 |
| \\      /  F ield         | OpenFOAM: The Open Source CFD Toolbox           |
|  \\    /   O peration     | Version:  v1912                                 |
|   \\  /    A nd           | Website:  www.openfoam.com                      |
|    \\/     M anipulation  |                                                 |
\*---------------------------------------------------------------------------*/
FoamFile
{
    version     2.0;
    format      ascii;
    class       surfaceScalarField;
    location    "2.18";
    object      phi;
}
// * * * * * * * * * * * * * * * * * * * * * * * * * * * * * * * * * * * * * //

dimensions      [0 3 -1 0 0 0 0];
oriented        oriented;


internalField   nonuniform List<scalar> 
25162
(
0.000423150202
0.9162268498
0.0005125626828
0.9166105875
0.0005862665143
0.9165762962
0.000284934063
0.9166105259
0.0003408065428
0.4583395073
0.0002954267552
0.4583127367
0.0003593220615
-0.0003720588052
-0.0004565560691
0.4582907666
0.0005157895054
-0.0005722482457
0.458240183
0.0006670652372
-0.0007710016465
0.4582163851
0.0008846165425
-0.001017351572
0.4581895407
0.001162810912
-0.001313014531
0.458180769
0.001467245522
-0.001623191867
0.4581991667
0.001755525141
-0.001867287816
0.4582539448
0.00194684299
-0.001986832042
0.4583340147
0.001987817304
-0.001947847526
0.4584106909
0.001867156588
-0.001763155277
0.4584595244
0.001638630891
-0.001491821393
0.458475734
0.001351087373
-0.001207095231
0.4584861116
0.001035983648
-0.0009616126664
0.4584606602
0.000850952492
-0.0007061138843
0.4584680789
0.0005880349672
-0.001573632368
0.918708706
5.52413824e-05
-0.0005403149785
-0.0009840680512
0.9187604357
4.404845402e-05
0.9158218835
0.9138440485
0.001161432924
0.9150654169
0.00181885733
0.9159531631
0.002022342892
0.9163728106
0.0005308381455
0.9172062237
0.0008958069804
0.4581065276
0.0006345430938
-0.4582102325
-0.4581998761
-0.0007798521799
0.4580161223
0.000963605898
-0.4580617309
-0.001193085924
0.4577828348
0.0006937993689
0.0007781826152
-0.2289720742
-0.0008488716685
0.2288972717
0.0009236741256
-0.001252177347
-0.2289093144
0.2288090962
0.001352395533
-0.001778359054
-0.2288487744
0.2287132515
0.001913881927
-0.002426239933
-0.228818676
0.2286620016
0.002582914308
-0.00311046687
-0.2288478091
0.2287484145
0.003209960394
-0.003083375118
-0.2289711206
0.2287727945
0.0032815366
-0.003959229483
-0.2291530262
0.2291048209
0.004007434804
-0.003888486252
-0.2292916969
0.2293437773
0.003836405848
-0.003495172028
-0.2293855862
0.2295179585
0.003362799685
-0.002908619812
-0.2294143454
0.2295796425
0.002743322659
-0.002289415605
-0.2293927086
0.2295506676
0.002131456641
-0.4588967322
-0.003324043453
0.4603557709
0.001865004786
-0.00052707728
0.4609968342
-0.00118734166
-0.4592824152
-0.001284166794
0.9183867932
0.0001711442522
0.00143493536
-0.0007838119374
0.9182600808
0.0004532348916
0.9145848367
0.9142972834
0.00146230338
0.9136031135
0.003943740236
0.9134717263
0.006670639881
0.913645911
0.002674255083
0.9150968507
0.006105757735
-0.458085797
0.4579470962
0.00281295592
-0.4578681862
-0.002755406264
0.4585631551
0.002060437439
-0.4574055941
-0.002088959583
0.4572370945
0.001094973543
0.001162485645
-0.2285363084
-0.001370561446
0.2283805819
0.001526288004
-0.228302894
-0.002093106425
0.2280794254
0.002316574986
-0.228133148
-0.002247583259
0.2322417278
-0.001852380175
-0.2357809395
0.01599839164
0.2397168664
-0.01989631693
-0.2343115382
0.02846445774
0.2360891488
-0.03021420943
-0.2274368595
0.03210789355
0.2269770269
-0.03165257785
-0.2215223363
0.02687385786
0.2188196327
-0.02420474565
-0.2228967033
0.01316732694
0.2182975612
-0.008602819814
-0.2301490686
-0.005711557433
0.229519401
0.006339495084
-0.2303102531
-0.005412124668
0.2306387419
0.005083635834
-0.003844773013
-0.2302867454
0.2309683002
0.003163218195
-0.4630231152
-0.000584795282
0.4619213521
0.001686558351
-0.4601449306
-0.001754429861
0.4602052968
0.001694063712
0.0007353324816
0.9204478228
-0.001605121284
-0.001191240863
0.001969660774
0.9170257526
0.000920732
0.9156337655
0.9152180154
0.0004519953818
0.9131511181
0.0009893734669
0.9129343482
0.002103146359
0.9125321381
0.002984133288
0.9122809791
0.001934884675
-0.4572351305
0.4568573717
0.003361892122
-0.4601647929
-0.00451060791
0.457187294
0.007488106857
-0.4587947208
-0.008663932717
0.4604484168
0.001827288454
0.005182948233
-0.227813405
-0.001755774892
0.2276430824
0.001926097506
-0.2296913947
-0.0009620888366
0.2353754531
-0.004700965067
-0.2481512515
0.02109373868
0.2530290589
-0.0258778727
-0.2502425186
0.03704689409
0.252885216
-0.03959037946
-0.2400942308
0.04397460386
0.2407283933
-0.04455397858
-0.2255511944
0.04460952242
0.2251342784
-0.04420184448
-0.2119414439
0.04157396917
0.2103865511
-0.04008949837
-0.2054189074
0.03291565599
0.2018786679
-0.02948000376
-0.2129710513
0.01611536492
0.2076298766
-0.0108564375
-0.234210223
-0.001227038582
0.2363692525
-0.0009354720533
-0.004263939294
-0.2318843165
0.2319248419
0.004223413903
-0.462016214
-0.006552556029
0.4633640134
0.0052047566
-0.4610221888
-0.003865126724
0.4621322143
0.002755101239
0.003746196456
0.9208061654
-0.002164263502
-0.001940275482
0.002546685546
0.9182252635
0.001180650272
0.9169998007
0.9163986656
6.39969909e-05
0.9130871211
0.0001697286513
0.9128286165
0.000407856488
0.9122940102
0.001056811934
0.9113819632
0.0002500605242
-0.4566410331
0.455889834
0.001808011024
-0.4558389986
-0.002167300307
0.4552910963
0.002715202683
-0.454470387
-0.00347929056
0.453817219
0.002211871812
0.001920586678
-0.2283967051
-0.00396996862
0.227198374
0.00516956072
-0.2524610154
0.005931603898
0.2595130034
-0.01286987648
-0.2647154593
0.02819341804
0.267416261
-0.03072809151
-0.25663265
0.03346171035
0.2562017454
-0.03289755192
-0.2394051499
0.02832900641
0.2375921823
-0.02645548796
-0.2242029655
0.02252614839
0.2240057184
-0.02233882755
-0.20927669
0.02463410022
0.2105453322
-0.02598474778
-0.1952522538
0.02904718463
0.1948057311
-0.02875016882
-0.2054221444
0.0353574631
0.1959223573
-0.02601593286
-0.2136355786
0.009190114256
0.2086110902
-0.004255190756
-0.006243564781
-0.2334330283
0.2340444267
0.00563216634
-0.4651933273
-0.007776782914
0.4669784225
0.005991687641
-0.4632152517
-0.004660469368
0.4643488223
0.003526898715
0.004638239941
0.9231804875
-0.003890359227
-0.003122202802
0.002592240498
0.9202712629
0.00118280177
0.9184092395
0.9175814674
-0.0002055896723
0.9132927108
-0.0003242636958
0.9129472905
-0.0002211623939
0.9121909089
4.466750679e-05
0.9110767028
3.943048671e-05
-0.4550663073
0.4548127634
0.0002982114178
-0.4548641849
-0.001195272641
0.4541784134
0.001881044153
-0.4531196312
-0.002331883019
0.4522253513
0.001582330625
0.001643832285
-0.2380785631
0.001343501742
0.241799296
-0.005005242952
-0.2671379981
0.01498276676
0.2698935639
-0.0175549234
-0.2708216515
0.01940622957
0.2690525556
-0.0174353609
-0.248679698
0.00689591672
0.2488523407
-0.006949998415
-0.2272094018
-0.009681952828
0.2230864037
0.0138337522
-0.223169939
-0.02513872456
0.2229586232
0.02534798273
-0.221989431
-0.01292333606
0.2267013213
0.008164536773
-0.2059789139
0.01238371493
0.2077055926
-0.01425869299
-0.1861138422
0.0155216976
0.1856025103
-0.01521452425
-0.1964569887
0.01000065844
0.1935601518
-0.007269936728
-0.003051354653
-0.2320323544
0.2297901392
0.005270665606
-0.4686080314
-0.008201710786
0.4702904377
0.006519304545
-0.4651048153
-0.005260569445
0.4658259783
0.004539406474
0.004003638368
0.9259907699
-0.00330212398
-0.003511796823
0.002221859395
0.9220530419
0.0009431023279
0.9196879965
0.9185245697
-0.00059987838
0.9138925892
-0.001078073149
0.9134254853
-0.001419670267
0.9125325061
-0.0002513474968
0.9108833335
-0.0009749534639
-0.4547318103
0.4544746112
5.851597422e-06
-0.4532042167
-0.0001842657074
0.4529021222
0.000486360204
-0.4519552442
-0.001378601846
0.4518626894
0.0007873886986
0.0006842723308
-0.249716762
0.003562602923
0.2520173723
-0.005753707914
-0.2783712013
0.01087280443
0.2750904637
-0.007362263495
-0.2651396512
0.007217236391
0.2636710716
-0.005548201579
-0.2303751434
-0.00518909572
0.2236093625
0.01202348401
-0.21087037
-0.03202897399
0.1072058613
0.10152183
0.01496297407
0.01920867862
-0.02381806919
-0.1088617764
0.1082604982
0.02441934733
-0.01945787248
-0.2471521246
0.03719038717
-0.01986192368
0.12419394
0.1250875937
-0.01841085005
-0.2190164385
0.2250612542
0.01226738552
-0.1880485468
-0.001857873506
0.1918780149
-0.002187749698
-0.1893165703
0.006969040878
0.1878714649
-0.005732271783
0.0001464429818
-0.2200960031
0.2178573987
0.002011820403
-0.4720000583
-0.007184854186
0.4731832576
0.006001654952
-0.4669921969
-0.00459271978
0.4681410497
0.003443866994
0.002525005265
0.9280684519
-0.002160191868
-0.002442495369
0.001253801879
0.9233242453
0.0004962147253
0.9204455837
0.9190207845
-0.001004342548
0.9148969317
-0.001960512705
0.9143816555
-0.002730387696
0.9133023811
-0.001455524522
0.911602659
-0.001994188674
-0.4544836997
0.4545236912
-0.001495516033
-0.4527943725
0.001588000197
0.4527427225
-0.001536350257
-0.4513500384
0.0014251956
0.4521721832
-0.0007518265242
-0.001484480602
-0.2558584662
0.0009146275595
0.2561309817
-0.001050714601
-0.2763746971
0.0009561966246
0.2765156283
-0.0008578001851
-0.258803361
-0.0009565038025
0.2579249294
0.002025301739
-0.2119030499
-0.006412557685
0.2101405603
0.008197651838
-0.09523965045
-0.00545120739
0.09527231671
0.005418541126
-0.02724328703
-0.1359367624
0.1385679275
0.02461212197
-0.02571152943
-0.2450722469
0.2505084599
0.02022326182
-0.1974483237
-0.009930455415
0.1993245343
0.007847697785
-0.1867424161
-0.004102113139
0.187168842
0.003442243092
0.001148761638
-0.2142397977
0.2130575556
-8.10845653e-05
-0.4747131409
-0.004529983966
0.4759757142
0.003267410738
-0.4690600354
-0.002382649887
0.4698257625
0.001616922781
9.818733925e-05
0.9291177963
-0.0002439411075
-0.0009035906559
-0.0002231768016
0.9236456094
-0.0001821699279
0.9204045768
0.9188386145
-0.001396451137
0.9162933829
-0.002723221484
0.9157084258
-0.004123211656
0.9147023712
-0.002425495657
0.9128558125
-0.002950869481
-0.4547498931
0.4549665754
-0.00264217803
-0.4528563166
0.002889714555
0.453090179
-0.003123576906
-0.4526800667
0.00333857428
0.4535219596
-0.002001147698
-0.002154408318
-0.2580260676
0.002947708182
0.2583370437
-0.00311087477
-0.2758563706
0.002741492007
0.2757058493
-0.002349151338
-0.2553951566
0.0007294840607
0.2550233309
-0.0001760622523
-0.2087680321
-0.0008508465387
0.2090216169
0.0006070273425
-0.09887644743
0.001281485071
0.09937965316
-0.001784690801
-0.01224608501
-0.1514928156
0.1521676121
0.01157128857
-0.01417378233
-0.2631789009
0.2655425883
0.0117810552
-0.2055817341
-0.005833176597
0.206956996
0.004261298152
-0.1885304349
-0.0007816705283
0.1889344508
0.0001383294926
0.0005329552205
-0.2120648514
0.2117513051
-0.0003490870763
-0.4773984505
-0.0006134920405
0.4784879971
-0.0004760545756
-0.470220253
0.0009844925458
0.4704226661
-0.001186905622
-0.002844418706
0.9285622505
0.002012782094
0.001387182351
-0.002032200842
0.9228333915
-0.001063317469
0.9194356934
0.9177752971
-0.001748740096
0.918042123
-0.003607349035
0.9175670348
-0.005398862953
0.9164938852
-0.00338399162
0.9147584677
-0.003917526575
-0.4553737808
0.4557758747
-0.003786085577
-0.4533953685
0.00424418734
0.4539188117
-0.004767630485
-0.4544958974
0.005260886783
0.45595381
-0.003141611906
-0.003540262849
-0.259222702
0.004231637869
0.2596271874
-0.004482329102
-0.2755705741
0.004529380652
0.2756276402
-0.004344258013
-0.2545935012
0.003510833614
0.2545193049
-0.003260604679
-0.2103018272
0.003035218528
0.2107371471
-0.00346511412
-0.1016520435
0.002863954547
0.1018723811
-0.001528714836
-0.0015555773
0.00481330382
-0.1506256715
0.1497648354
-0.003952467757
0.002094197255
-0.2653704084
0.2636656601
-0.0004202708422
-0.2076146016
-0.001611976023
0.2073965328
0.001633675017
-0.1901260708
-0.0006830168386
0.1903846826
0.0001864188127
0.0012737773
-0.212832823
0.2131076909
-0.001676934551
-0.4784666711
0.004748578035
0.4778512568
-0.004133163746
-0.4701920823
0.003892126203
0.4704157788
-0.004115822683
-0.006091780561
0.9263306342
0.004547815754
0.003775581123
-0.003991109558
0.9207327205
-0.002014188615
0.9174587725
0.9157611084
-0.002185407044
0.9202275301
-0.004356680864
0.9197383086
-0.006660173511
0.9187973778
-0.004310332112
0.9172391449
-0.004830518585
-0.4563562719
0.4569330773
-0.004887137498
-0.4545056897
0.005589704787
0.4551490307
-0.006233045853
-0.4578226764
0.006977903237
0.460047748
-0.004474713645
-0.004674477448
-0.2610115264
0.005492827519
0.261524275
-0.005844723503
-0.2760167744
0.006244704306
0.276207723
-0.006192674124
-0.2545068149
0.005806446018
0.2545552251
-0.005684880106
-0.2121326948
0.00566876625
0.212633993
-0.006168056712
-0.1031588406
0.003963986108
0.103301463
-0.002039820557
-0.002066787875
0.01434546193
-0.1418850882
0.1406177722
-0.01307814591
0.01323225605
-0.2541963726
0.2496665584
-0.008754928436
-0.2037077204
-0.001128094786
0.2052367002
-0.000601367395
-0.1909536444
0.0007310887256
0.1912558211
-0.00126571558
0.003475230399
-0.2159350745
0.2165689907
-0.004221246424
-0.4767731551
0.009779901772
0.4752938755
-0.008300622277
-0.470432324
0.0070111815
0.469280393
-0.005859250566
-0.009081895424
0.9226944238
0.006638815427
0.006079290382
-0.005872307798
0.9175231329
-0.002881839923
0.9144683046
0.9128792685
-0.002582127916
0.922809658
-0.005175897788
0.9223320785
-0.007884355649
0.9215058357
-0.00514961051
0.9199655547
-0.005461154924
-0.4576543656
0.4583647966
-0.005860041439
-0.45598797
0.006679914542
0.4568647399
-0.007556684448
-0.4624436836
0.008506694002
0.4641898001
-0.005520965193
-0.00465761013
-0.2632203255
0.00681092316
0.2638680292
-0.007290361602
-0.276929601
0.007994942115
0.2772118253
-0.008033880628
-0.2547975013
0.007815774925
0.2548732765
-0.007728652974
-0.2143558159
0.007746558322
0.2150343234
-0.00842488719
-0.1042366369
0.005178578862
0.1043801353
-0.002642159231
-0.002679917975
0.01778266758
-0.1319734067
0.1307192869
-0.01652854784
0.01714468542
-0.2363526385
0.2315776647
-0.01245579535
-0.2006465667
0.007186103558
0.1948832444
-0.00163486561
-0.1916763539
-0.001753598664
0.1915965876
0.001612859794
0.005131487756
-0.2198321825
0.2209478113
-0.006332838479
-0.4734871018
0.0137772237
0.4713943865
-0.01168450847
-0.4680169055
0.009885583488
0.4664832954
-0.008351973371
-0.01168046751
0.9195354186
0.007715568262
0.007123904506
-0.00748280388
0.9133254693
-0.003627647885
0.9106131486
0.9092516206
-0.006620366331
0.9294300243
-0.01340736453
0.9291190767
-0.02027534018
0.9283738114
-0.006076252032
0.9272294006
-0.02146293398
-0.4592345757
0.4601183758
-0.006960052072
-0.4577688497
0.007919533755
0.4588491633
-0.008999847335
-0.4685566424
0.01005549594
0.4725613627
-0.007250017559
-0.00669065754
-0.2652889095
0.01017199719
0.2667970785
-0.01150438287
-0.2780979714
0.01024250064
0.2778005416
-0.009703444662
-0.2550506472
0.007711198102
0.2566975041
-0.00920075087
-0.2174676319
0.009344418622
0.2183790785
-0.005096007597
-0.005159857589
-0.05291100925
0.003266395836
0.05296637889
-0.00332176547
-0.05786952184
0.006530042423
0.05738121504
-0.01272044765
0.006678712036
0.01632222834
-0.123223385
0.2429675836
-0.02884612384
0.01595236497
-0.123172668
-0.2195254236
0.01379609409
0.2130213846
-0.007416042468
-0.1895138771
0.003007496008
0.188819014
-0.002540503452
-0.1930199085
0.004098773823
0.1938717732
-0.005150969036
0.008530250776
-0.2261386581
0.2270139295
-0.009451332897
-0.4689662484
0.01624022649
0.4665430664
-0.01381704445
-0.4648868728
0.01193206222
0.463173749
-0.01021893842
-0.01364253064
0.9151473245
0.009250161359
0.008780463426
-0.008746574672
0.9084295133
-0.004290528966
0.906157103
0.9049610917
-0.003048544279
0.9324785686
-0.006180031921
0.9322505644
-0.009481944039
0.9316757235
-0.006452769883
0.9308021925
-0.006601966042
-0.4630101858
0.4639368399
-0.007379423973
-0.4617297586
0.008412136741
0.4628347629
-0.009517140958
-0.4765006572
0.01071224208
0.4748960238
-0.004806099945
-0.004161354669
-0.2693227244
0.003790954979
0.2689849276
-0.003267835681
-0.279231937
0.002133907905
0.2794124835
-0.00207317504
-0.2550477425
0.00351345425
0.2563689139
-0.0046905002
-0.2217774854
0.01042578261
0.2228345056
-0.00573280284
-0.005749999924
-0.05473783703
0.0078001579
0.1098873255
-0.05468206609
-0.004120769927
-0.004146810362
-0.1113488525
0.008916325428
0.1112663249
-0.01750108677
0.008667288935
0.02835310749
-0.2357554786
0.2322157768
-0.02481884221
-0.2026075571
0.007487724866
0.2004156624
-0.005453706297
-0.1890665161
0.003554992519
0.1846131046
0.0006730364291
-0.1970649655
6.830912382e-05
0.201973303
-0.005138562567
0.01013551676
-0.2319977174
0.2323731238
-0.01051773393
-0.4643816682
0.01700338753
0.4624507504
-0.01507246966
-0.4614533735
0.01323616186
0.4595050501
-0.01128783843
-0.01318589675
0.9099345241
0.00913292058
0.009265776591
-0.009506132917
0.9047497495
-0.004643127684
0.9012940977
0.900317964
-0.003194137615
0.9356727063
-0.006471094747
0.9355275215
-0.009915820625
0.9351204494
-0.006753679656
0.9345013375
-0.006861285969
-0.4649472558
0.4659417513
-0.007748175109
-0.463960522
0.008823002227
0.4650985124
-0.009960992646
-0.4711689545
0.01118397879
0.4671732851
-0.00342969084
-0.003704994704
-0.2652547508
-0.001115173242
0.2631192415
0.003407548496
-0.2786434406
-0.009071933293
0.2777743128
0.01016989563
-0.2620147936
-0.009694731398
0.2638662516
0.008009499919
-0.231053139
0.002273778908
0.2362085
-0.007394515458
-0.1129848818
0.01473346275
0.2251638098
-0.01438980189
-0.1125225889
-0.2251196627
0.0202359252
0.2257108918
-0.02082715428
-0.219044522
0.01248409524
0.2147820141
-0.008283561696
-0.1919592237
0.0003135026889
0.1907275654
0.0007297611889
-0.1832484648
0.0002072489782
0.1843697835
-0.001552803558
-0.2067912168
0.007106103205
0.205718492
-0.006151021775
0.01246329041
-0.2324007791
0.2299923418
-0.01005485312
-0.4607553673
0.01837365631
0.4574333988
-0.0150516878
-0.4575633229
0.01340368356
0.4553988821
-0.01123924273
-0.01351359169
0.9048961316
0.009340585123
0.009211399082
-0.009536758992
0.9007729168
-0.004841137666
0.8965984764
0.8954768263
-0.003262772526
0.9389354788
-0.006602095055
0.9388668441
-0.01009458688
0.9386129412
-0.006884540591
0.9382281529
-0.006936861724
-0.4669524965
0.467963549
-0.007895593033
-0.4662332239
0.00896908806
0.4673586984
-0.01009456256
-0.4654589698
0.01129353426
0.4666671972
-0.006215962653
-0.006285620457
-0.2542622738
-0.0005170280127
0.2505962429
0.004278428312
-0.2725797213
-0.01487107676
0.2699128607
0.01772674317
-0.2670676833
-0.02269235862
0.2670080593
0.02292707219
-0.2477756092
-0.01946666068
0.2500734403
0.01726242916
-0.2291231379
-0.01035406002
0.2310621462
0.008435856808
-0.2210088406
-0.00731835565
0.2198341561
0.008461686574
-0.2059019984
-0.01340997081
0.2044647701
0.01473649751
-0.1899100171
-0.01541972389
0.1908085069
0.0143365827
-0.1905435407
-0.007510487363
0.1935400303
0.004337198783
-0.2137237923
0.006171659982
0.2170530799
-0.009563691939
0.01156558762
-0.2279449505
0.2273258235
-0.01094646062
-0.4565606453
0.01829899813
0.4537770048
-0.01551535765
-0.4524506415
0.01203080894
0.4508028907
-0.01038305815
-0.01255346216
0.8985032131
0.009706361418
0.009240019271
-0.007044231798
0.8952636865
-0.004859646685
0.8944138913
0.8906171797
-0.003260978381
0.9421964572
-0.006589010639
0.9421948764
-0.01004787796
0.9420718086
-0.006862152749
0.9418865724
-0.006844144686
-0.468950606
0.4699400223
-0.007851569076
-0.4684614821
0.008889831647
0.4695387173
-0.009967066857
-0.46791406
0.0111019611
0.4691147935
-0.006173810868
-0.00612888376
-0.238242087
0.006747139885
0.2348259124
-0.003318139522
-0.2592905437
-0.01035445174
0.2550520757
0.01470753054
-0.2630205289
-0.02556040768
0.2605330778
0.02818883979
-0.2524961106
-0.03282311219
0.2520058509
0.03341297042
-0.2355605831
-0.03346514777
0.236485614
0.03257019616
-0.2185177356
-0.03101481123
0.218508347
0.03098115324
-0.2045788677
-0.02852460613
0.205901742
0.02709141712
-0.1971010442
-0.02006864619
0.2002475589
0.01678095847
-0.2048847996
-0.004713477181
0.2092354824
0.0002652572292
-0.2261522558
0.01215942137
0.2259050911
-0.011912833
0.01045780359
-0.2256987615
0.2252140958
-0.00997313791
-0.4500387659
0.01696609482
0.448304096
-0.01523142499
-0.4491975446
0.01357254208
0.4475910519
-0.01196604939
-0.01154021566
0.8913434563
0.01020469301
0.008495279401
-0.006535075618
0.8902585464
-0.004441139751
0.8923199555
0.8861760399
-0.003200266082
0.9453967233
-0.006456140969
0.9454507513
-0.009816503013
0.9454321706
-0.00670657443
0.9454051745
-0.006628530637
-0.4708900147
0.4718321741
-0.007648733833
-0.4705804755
0.008628703664
0.4715866068
-0.009634834913
-0.47026378
0.01068172894
0.4713565538
-0.005923816619
-0.00585068616
-0.2349984022
0.006501121328
0.2352946802
-0.006797399248
-0.2414149086
0.005378021252
0.2369129653
-0.0008553876786
-0.2506574965
-0.012147216
0.2469022472
0.01597303949
-0.2477263646
-0.02505140007
0.2456569482
0.02718537214
-0.2372933782
-0.03092820767
0.2370300583
0.03121310256
-0.2189816247
-0.0283357461
0.2193967579
0.02788886722
-0.2125916343
-0.02198881789
0.2154074631
0.01910356844
-0.2116872096
-0.008277836593
0.2158165836
0.004083907689
-0.2227609462
0.009200386059
0.2252414345
-0.01168792986
-0.2246753371
0.01075664006
0.224325371
-0.01040667398
0.009309130529
-0.2239490875
0.2235685176
-0.008928560579
-0.4467214263
0.01542252617
0.4452805453
-0.01398164517
-0.4461230027
0.01256512809
0.4447193861
-0.01116151147
-0.01417286946
0.8862355029
0.009489638031
0.009791184844
-0.009311719237
0.8853973962
-0.001792017792
0.884800254
0.8843840221
-0.003092256373
0.9484889797
-0.00622769154
0.9485861864
-0.009439763265
0.9486442423
-0.006444420714
0.9487322047
-0.006322372831
-0.4727289835
0.4736104993
-0.00732593657
-0.4725498395
0.008234387472
0.473472395
-0.009156942983
-0.4723907414
0.01010480772
0.4733657836
-0.005585382558
-0.005494467375
-0.2361225175
0.006093067514
0.2363790233
-0.006349573312
-0.2359726133
0.007125675366
0.2362319811
-0.007385043126
-0.2359099171
0.008158324647
0.2357914081
-0.008038881145
-0.2387606834
0.001047236107
0.2365068365
0.00122049553
-0.2354674383
-0.005571965012
0.2348250097
0.006221013224
-0.2217692162
-0.004430352999
0.2228881222
0.003301595861
-0.2242132419
0.002781544987
0.2269689644
-0.005549374669
-0.2260287665
0.01081669575
0.2259176357
-0.01070556493
-0.2245402595
0.01022994554
0.2243394589
-0.01002914495
-0.2234178931
0.009324967717
0.2231557834
-0.009062858045
0.008219640301
-0.2225798995
0.2222769009
-0.00791664174
-0.4439687548
0.01384294223
0.4427744638
-0.01264865129
-0.4434472785
0.01144835339
0.4422338869
-0.01023496179
-0.01313243591
0.8816471842
0.008693614233
0.009027140393
-0.008675622299
0.8809405826
-0.004309466157
0.8804340979
0.880074556
-0.002948988411
0.9514379681
-0.005928926323
0.9515661243
-0.008959241859
0.9516745578
-0.006107918661
0.9518371553
-0.005956273748
-0.4744438956
0.4752573603
-0.006921383351
-0.474349239
0.007752358553
0.4751841298
-0.008587249329
-0.4742827067
0.009434971673
0.4751440584
-0.005196732497
-0.005099590894
-0.2370910189
0.00563739129
0.2373106325
-0.005857004904
-0.2369376975
0.006508444572
0.2371507154
-0.006721462491
-0.2364644415
0.007341024457
0.2366626252
-0.00753920821
-0.2355882869
0.008099279677
0.2357611494
-0.008272142223
-0.2339031185
0.00871317292
0.2338851055
-0.008695159911
-0.224893416
0.009028848814
0.2251355498
-0.009270982723
-0.227940189
0.009366043702
0.2279320136
-0.009357868346
-0.2256282413
0.009220011313
0.2255433794
-0.009135149386
-0.2238183268
0.00877689396
0.2236671071
-0.008625674184
-0.222466824
0.008090308942
0.2222649448
-0.00788842977
0.007228129979
-0.2214960432
0.2212544419
-0.006986528652
-0.441683742
0.01233320451
0.44068762
-0.01133708246
-0.4411389675
0.01032038352
0.4400937481
-0.009275164096
-0.01201254408
0.8775642731
0.007878813612
0.008216641573
-0.007974373181
0.8769024117
-0.003972187676
0.8764319124
0.8761023683
-0.002782199358
0.9542201674
-0.005584259696
0.9543681847
-0.008413378873
0.954503677
-0.005725424792
0.9547058477
-0.005556646534
-0.4760226657
0.4767661621
-0.006468921178
-0.4759736136
0.007221955728
0.4767224841
-0.007970826297
-0.4759499879
0.008722186794
0.4767032832
-0.004781694855
-0.004693787246
-0.2379188486
0.005167694146
0.2381063241
-0.00535516962
-0.2377304026
0.005901229854
0.2379055757
-0.006076402977
-0.2371907956
0.00657566359
0.2373472531
-0.006732121173
-0.2362153893
0.00716709138
0.2363479092
-0.007299611239
-0.2338087755
0.007596687229
0.2337781
-0.00756601177
-0.2257584412
0.007857760093
0.2259325957
-0.00803191458
-0.2278940325
0.008066644818
0.2278779488
-0.008050561058
-0.2253145187
0.007926173085
0.2252453561
-0.007857010478
-0.2232663628
0.007573084497
0.223147702
-0.007454423634
-0.22172714
0.007033606731
0.2215674056
-0.006873872311
0.006345609001
-0.2206282452
0.2204321943
-0.006149558113
-0.4397763742
0.01093664951
0.4389418497
-0.01010212496
-0.4391524319
0.00923841443
0.438251991
-0.008337973489
-0.01088608802
0.8739510014
0.007086142529
0.007413217159
-0.007256144382
0.8732724681
-0.003623035329
0.8727988034
0.872479333
-0.002601658914
0.9568218264
-0.005213620588
0.9569801464
-0.007832965454
0.9571230219
-0.00531700105
0.9573346572
-0.005144773825
-0.4774625263
0.4781387061
-0.005993180918
-0.4774282998
0.006671458108
0.4780963164
-0.007339474725
-0.4774067859
0.008002816158
0.4780634697
-0.004367818476
-0.004291681499
-0.2386250938
0.004705587824
0.2387849996
-0.004865493596
-0.2383832107
0.005323916429
0.2385278322
-0.005468537956
-0.2377665641
0.005873725626
0.2378914365
-0.005998598093
-0.2366976139
0.006341185165
0.2367999991
-0.006443570363
-0.2336785045
0.006642950499
0.2336444208
-0.006608866797
-0.2263715296
0.006874712879
0.2264938159
-0.006996999184
-0.2278222964
0.006992202138
0.2278017993
-0.006971705065
-0.2250549204
0.006857076474
0.2249963796
-0.006798535648
-0.2228278274
0.006565171063
0.2227316198
-0.006468963495
-0.2211366581
0.006128793284
0.2210072388
-0.005999373959
0.005568423974
-0.2199214324
0.2197598619
-0.005406853515
-0.4381758522
0.009671410726
0.4374717483
-0.008967306793
-0.437441571
0.008230127775
0.4366643049
-0.007452861665
-0.009798589023
0.8707632791
0.006340854538
0.006645456751
-0.006553612622
0.8700274917
-0.003278926814
0.8695241175
0.8692004062
-0.002416381223
0.9592382076
-0.00483516054
0.9593989257
-0.007245856451
0.9595337178
-0.004905888643
0.9597311866
-0.004736497286
-0.4787682944
0.4793804306
-0.005518024763
-0.478724855
0.00612668074
0.4793190894
-0.006720915225
-0.4786764467
0.007305634366
0.4792486435
-0.003971677242
-0.00390615389
-0.2392276908
0.004267260407
0.2393643186
-0.004403888166
-0.2389232506
0.004790126651
0.2390433055
-0.00491018158
-0.2382279318
0.005241626199
0.2383286755
-0.005342369899
-0.237071154
0.005615602036
0.2371508516
-0.005695299696
-0.233544341
0.005831643123
0.2335123782
-0.005799680297
-0.2268023844
0.006040989289
0.2268883592
-0.006126964148
-0.2277360961
0.006094698603
0.2277130946
-0.00607169708
-0.2248331292
0.005965313938
0.224782413
-0.005914597675
-0.2224687504
0.00571774733
0.2223887132
-0.005637710112
-0.2206545217
0.005356226031
0.2205474893
-0.005249193634
0.004891419158
-0.2193366905
0.2192016083
-0.004756336895
-0.4368227775
0.008545382555
0.4362238418
-0.007946446919
-0.4359643773
0.007313615942
0.4352910671
-0.006640305659
-0.008781332316
0.867953484
0.005656597563
0.005934529851
-0.005889733549
0.8671358929
-0.002951868881
0.8665862529
0.8662485373
-0.002232971543
0.9614711791
-0.004462022475
0.9616279766
-0.006671354141
0.9617430495
-0.004505155956
0.9619085803
-0.004343591867
-0.479947621
0.4805002393
-0.005057774304
-0.4798777657
0.005602976289
0.4804058707
-0.006131081339
-0.4797829799
0.006646453058
0.4802820704
-0.003601740109
-0.003543803406
-0.2397429306
0.00386044612
0.2398600284
-0.003977543951
-0.2393724803
0.004304450569
0.239472751
-0.004404721297
-0.2386015824
0.004678095848
0.2386837843
-0.00476029776
-0.2373629817
0.004981150086
0.2374257601
-0.005043928512
-0.2334216595
0.005139952683
0.2333931399
-0.005111433082
-0.2271043937
0.005330043933
0.2271641024
-0.00538975256
-0.2276416484
0.005338671727
0.2276171626
-0.005314185924
-0.2246398143
0.005214960651
0.2245951694
-0.00517031579
-0.2221677936
0.005001086514
0.2220998797
-0.004933172635
-0.2202532658
0.004695839373
0.2201632295
-0.004605803091
0.004304331499
-0.2188461846
0.2187318399
-0.004189986775
-0.4356695808
0.007552338728
0.4351560607
-0.007038818705
-0.4346841536
0.006492346036
0.434098528
-0.005906720477
-0.007849745869
0.8654754656
0.005039244601
0.005288519678
-0.00527685706
0.8645630041
-0.002648537027
0.8639579329
0.8636000003
-0.002056651525
0.9635278307
-0.004104481994
0.9636758071
-0.006124213515
0.963762781
-0.004124599305
0.9638836432
-0.003974677071
-0.4810103481
0.4815086717
-0.004622922953
-0.4809024112
0.005111203592
0.4813720712
-0.005580863613
-0.4807484139
0.00603596239
0.4811851055
-0.003262169491
-0.003210484538
-0.2401849077
0.003487643454
0.2402855831
-0.003588318927
-0.2397484784
0.003866339707
0.2398327716
-0.003950632946
-0.2389078105
0.004178201284
0.2389757691
-0.004246159877
-0.2375941269
0.004427340356
0.2376443809
-0.004477594333
-0.2333124243
0.0045466795
0.2332870671
-0.004521322326
-0.2273122086
0.004720146854
0.2273524861
-0.004760424401
-0.2275421413
0.004696814775
0.2275166866
-0.004671360012
-0.2244688471
0.004578171381
0.2244290415
-0.004538365726
-0.2219109917
0.004390758523
0.2218524879
-0.004332254692
-0.2199140355
0.004129183984
0.219837252
-0.004052400448
0.003795248953
-0.2184297931
0.2183319924
-0.003697448262
-0.4346790234
0.00668321352
0.4342354134
-0.006239603553
-0.4335699106
0.005764880802
0.4330582613
-0.005253231472
-0.00701113898
0.8632861946
0.004490244215
0.004710165766
-0.004721676935
0.8622735421
-0.002372751061
0.861609007
0.8612272492