/*--------------------------------*- C++ -*----------------------------------*\
| =========                 |                                                 |
| \\      /  F ield         | OpenFOAM: The Open Source CFD Toolbox           |
|  \\    /   O peration     | Version:  v1912                                 |
|   \\  /    A nd           | Website:  www.openfoam.com                      |
|    \\/     M anipulation  |                                                 |
\*---------------------------------------------------------------------------*/
FoamFile
{
    version     2.0;
    format      ascii;
    class       pointVectorField;
    location    "2.18";
    object      pointDisplacement;
}
// * * * * * * * * * * * * * * * * * * * * * * * * * * * * * * * * * * * * * //

dimensions      [0 1 0 0 0 0 0];


internalField   nonuniform List<vector> 
26316
(
(0 0 0)
(0 0 0)
(0 0 0)
(0 0 0)
(0 0 0)
(0 0 0)
(0 0 0)
(0 0 0)
(0 0 0)
(0 0 0)
(0 0 0)
(0 0 0)
(0 0 0)
(0 0 0)
(0 0 0)
(0 0 0)
(0 0 0)
(0 0 0)
(0 0 0)
(0 0 0)
(0 0 0)
(0 0 0)
(0 0 0)
(0 0 0)
(0 0 0)
(0 0 0)
(0 0 0)
(0 0 0)
(0 0 0)
(0 0 0)
(0 0 0)
(0 0 0)
(0 0 0)
(0 0 0)
(0 0 0)
(0 0 0)
(0 0 0)
(0 0 0)
(0 0 0)
(0 0 0)
(0 0 0)
(0 0 0)
(0 0 0)
(0 0 0)
(0 0 0)
(0 0 0)
(0 0 0)
(0 0 0)
(0 0 0)
(0 0 0)
(0 0 0)
(0 0 0)
(0 0 0)
(0 0 0)
(0 0 0)
(0 0 0)
(0 0 0)
(0 0 0)
(0 0 0)
(0 0 0)
(0 0 0)
(0 0 0)
(0 0 0)
(0 0 0)
(0 0 0)
(0 0 0)
(0 0 0)
(0 0 0)
(0 0 0)
(0 0 0)
(0 0 0)
(0 0 0)
(0 0 0)
(0 0 0)
(0 0 0)
(0 0 0)
(0 0 0)
(0 0 0)
(0 0 0)
(0 0 0)
(0 0 0)
(0 0 0)
(0 0 0)
(0 0 0)
(0 0 0)
(0 0 0)
(0 0 0)
(0 0 0)
(0 0 0)
(0 0 0)
(0 0 0)
(0 0 0)
(0 0 0)
(0 0 0)
(0 0 0)
(0 0 0)
(0 0 0)
(0 0 0)
(0 0 0)
(0 0 0)
(0 0 0)
(0 0 0)
(0 0 0)
(0 0 0)
(0 0 0)
(0 0 0)
(0 0 0)
(0 0 0)
(0 0 0)
(0 0 0)
(0 0 0)
(0 0 0)
(0 0 0)
(0 0 0)
(0 0 0)
(0 0 0)
(0 0 0)
(0 0 0)
(0 0 0)
(-1.439901169e-07 1.070457135e-05 2.775557562e-17)
(0 0 0)
(0 0 0)
(-7.97013695e-08 0.0001199082422 3.330669074e-16)
(3.666294465e-07 0.0001019290528 2.91433544e-16)
(0 0 0)
(0 0 0)
(0 0 0)
(0 0 0)
(0 0 0)
(0 0 0)
(0 0 0)
(0 0 0)
(0 0 0)
(0 0 0)
(0 0 0)
(0 0 0)
(0 0 0)
(0 0 0)
(0 0 0)
(0 0 0)
(0 0 0)
(0 0 0)
(0 0 0)
(0 0 0)
(0 0 0)
(0 0 0)
(0 0 0)
(0 0 0)
(0 0 0)
(0 0 0)
(0 0 0)
(0 0 0)
(0 0 0)
(0 0 0)
(0 0 0)
(0 0 0)
(0 0 0)
(0 0 0)
(0 0 0)
(0 0 0)
(0 0 0)
(0 0 0)
(0 0 0)
(0 0 0)
(0 0 0)
(0 0 0)
(0 0 0)
(0 0 0)
(0 0 0)
(0 0 0)
(0 0 0)
(0 0 0)
(0 0 0)
(0 0 0)
(0 0 0)
(0 0 0)
(0 0 0)
(0 0 0)
(0 0 0)
(0 0 0)
(0 0 0)
(0 0 0)
(0 0 0)
(0 0 0)
(0 0 0)
(-8.970724976e-06 0.0001703680225 4.996003611e-16)
(-5.163593654e-05 0.001068626406 3.080868893e-15)
(-6.750642161e-07 1.402643077e-05 4.163336342e-17)
(-9.809691095e-05 0.002788876274 7.993605777e-15)
(-0.0002438512874 0.006908012829 1.990074772e-14)
(-0.000289661635 0.0093567209 2.695066392e-14)
(-0.0001348978513 0.004372222374 1.254552018e-14)
(-0.0001648186924 0.009212943207 2.642330799e-14)
(-0.000289895295 0.01616501991 4.657385588e-14)
(-0.0002428346922 0.01786209436 5.14449594e-14)
(-0.0001422818245 0.01048456618 3.007316618e-14)
(-7.626701248e-06 0.01226289156 3.516631431e-14)
(-1.194942375e-05 0.02019326734 5.81618087e-14)
(7.450552831e-05 0.0199334648 5.741240816e-14)
(4.451376623e-05 0.0120622723 3.461120279e-14)
(0.0001536586487 0.009246921344 2.653433029e-14)
(0.000270970956 0.01621299384 4.669875597e-14)
(0.0002979769266 0.01416608131 4.080069615e-14)
(0.0001619620348 0.007740717712 2.220446049e-14)
(9.558101802e-05 0.002824440061 8.10462808e-15)
(0.0002368751676 0.006968096696 2.006728117e-14)
(0.0001783711982 0.004655460701 1.340594302e-14)
(5.586649346e-05 0.001464477668 4.204969706e-15)
(0 0 0)
(9.409985993e-06 0.0001834752372 5.273559367e-16)
(0 0 0)
(0 0 0)
(0 0 0)
(0 0 0)
(0 0 0)
(0 0 0)
(0 0 0)
(0 0 0)
(0 0 0)
(0 0 0)
(0 0 0)
(0 0 0)
(0 0 0)
(0 0 0)
(0 0 0)
(0 0 0)
(0 0 0)
(0 0 0)
(0 0 0)
(0 0 0)
(0 0 0)
(0 0 0)
(0 0 0)
(0 0 0)
(0 0 0)
(0 0 0)
(0 0 0)
(0 0 0)
(0 0 0)
(0 0 0)
(0 0 0)
(0 0 0)
(0 0 0)
(0 0 0)
(0 0 0)
(0 0 0)
(0 0 0)
(0 0 0)
(0 0 0)
(0 0 0)
(0 0 0)
(0 0 0)
(0 0 0)
(0 0 0)
(0 0 0)
(0 0 0)
(-2.505412695e-05 0.0003521928681 1.026956298e-15)
(-0.0001368880483 0.002051430979 6.009082121e-15)
(-3.24204376e-05 0.000487824232 1.415534356e-15)
(-0.0004630863331 0.00869299148 2.534084054e-14)
(-0.0007410817052 0.01385922367 4.057865155e-14)
(-0.0009463120655 0.01929374444 5.648259638e-14)
(-0.0006371214137 0.01303746168 3.801126081e-14)
(-0.0009942350206 0.0278860754 8.130995877e-14)
(-0.001317162326 0.03682300033 1.078026557e-13)
(-0.001327816886 0.04236005688 1.240119119e-13)
(-0.001023582193 0.03275553773 9.549305791e-14)
(-0.0008089639686 0.04482474364 1.306871278e-13)
(-0.001008648025 0.05576661078 1.632582958e-13)
(-0.0008040342474 0.05880365377 1.721539578e-13)
(-0.0006499756367 0.04761019825 1.388056337e-13)
(-2.489731925e-05 0.05132377062 1.496441859e-13)
(-2.838562196e-05 0.06281945388 1.83908444e-13)
(0.0002463093793 0.06238447387 1.826455653e-13)
(0.0001984339015 0.05091900927 1.48464574e-13)
(0.00076463342 0.04491388275 1.309646835e-13)
(0.0009569300827 0.05586705452 1.635636071e-13)
(0.001120445579 0.05207552384 1.524752546e-13)
(0.0008870168589 0.0414607004 1.208894096e-13)
(0.000966677928 0.02802682452 8.17262924e-14)
(0.001282143979 0.03698914693 1.083022561e-13)
(0.001216933012 0.03117010977 9.126033262e-14)
(0.000893176864 0.02298779711 6.702971511e-14)
(0.0004573880857 0.008804704758 2.567390744e-14)
(0.0007308875145 0.01400707678 4.100886297e-14)
(0.0005171569549 0.009143034902 2.677025268e-14)
(0.0002873065172 0.005101603343 1.487698853e-14)
(0 0 0)
(2.487049651e-05 0.0003560662334 1.040834086e-15)
(0 0 0)
(0 0 0)
(0 0 0)
(0 0 0)
(0 0 0)
(0 0 0)
(0 0 0)
(0 0 0)
(0 0 0)
(0 0 0)
(0 0 0)
(0 0 0)
(0 0 0)
(0 0 0)
(0 0 0)
(0 0 0)
(0 0 0)
(0 0 0)
(0 0 0)
(0 0 0)
(0 0 0)
(0 0 0)
(0 0 0)
(0 0 0)
(0 0 0)
(0 0 0)
(0 0 0)
(0 0 0)
(0 0 0)
(0 0 0)
(0 0 0)
(0 0 0)
(0 0 0)
(0 0 0)
(0 0 0)
(0 0 0)
(0 0 0)
(0 0 0)
(0 0 0)
(-1.077887869e-05 0.0001252122905 3.60822483e-16)
(0 0 0)
(-0.0004590354627 0.006372371275 1.888766921e-14)
(-0.0006823997893 0.009419025945 2.803313137e-14)
(-0.001068498867 0.01573864277 4.685141164e-14)
(-0.0007843325447 0.01161235168 3.443079155e-14)
(-0.00179727672 0.03323273815 9.850453786e-14)
(-0.002182300368 0.04019490117 1.196404087e-13)
(-0.002443727348 0.04908520472 1.4610535e-13)
(-0.002054602535 0.04142767107 1.227906665e-13)
(-0.002351960236 0.06507843609 1.928873727e-13)
(-0.002683519583 0.0739770713 2.201849814e-13)
(-0.002572066846 0.08094165689 2.409183963e-13)
(-0.00227647155 0.07190393125 2.131211874e-13)
(-0.001592036055 0.08729628444 2.587374759e-13)
(-0.001760080582 0.09616980435 2.862293735e-13)
(-0.001371774404 0.09928222276 2.954997358e-13)
(-0.001246915178 0.09055535326 2.68410294e-13)
(-3.654183018e-05 0.09472359359 2.807754029e-13)
(-3.911611101e-05 0.1031834227 3.07129322e-13)
(0.0004208584869 0.1027752496 3.059219544e-13)
(0.0003836769403 0.09428215919 2.794708909e-13)
(0.001522492155 0.08741246998 2.591260539e-13)
(0.001685136077 0.0962819459 2.866040738e-13)
(0.002025940642 0.09222018895 2.745303984e-13)
(0.001819431275 0.08322921502 2.467331894e-13)
(0.002296796615 0.06529637734 1.935812621e-13)
(0.002622615168 0.07415475134 2.207678484e-13)
(0.00264452485 0.06641071801 1.977168429e-13)
(0.002290407063 0.05782898368 1.714461906e-13)
(0.001762692099 0.0332340896 9.853229344e-14)
(0.002194739737 0.04104861136 1.222216772e-13)
(0.001895145218 0.03268068927 9.731104811e-14)
(0.001503251588 0.02608844709 7.735478924e-14)
(0.0005226693764 0.007360370095 2.182976022e-14)
(0.0007808424038 0.01094540334 3.258504577e-14)
(0.000440904895 0.005817422366 1.731947918e-14)
(0.0002520240465 0.003340332462 9.908740495e-15)
(0 0 0)
(0 0 0)
(0 0 0)
(0 0 0)
(0 0 0)
(0 0 0)
(0 0 0)
(0 0 0)
(0 0 0)
(0 0 0)
(0 0 0)
(0 0 0)
(0 0 0)
(0 0 0)
(0 0 0)
(0 0 0)
(0 0 0)
(0 0 0)
(0 0 0)
(0 0 0)
(0 0 0)
(0 0 0)
(0 0 0)
(0 0 0)
(0 0 0)
(0 0 0)
(0 0 0)
(0 0 0)
(0 0 0)
(0 0 0)
(0 0 0)
(0 0 0)
(0 0 0)
(0 0 0)
(0 0 0)
(-4.98202697e-05 0.000542912671 1.637578961e-15)
(-0.0001133027187 0.001229288153 3.719247132e-15)
(-0.0004025177608 0.004594220851 1.390554338e-14)
(-0.0002705908517 0.00310199744 9.353628982e-15)
(-0.001592690446 0.0216402563 6.525335827e-14)
(-0.001884475774 0.02549312518 7.720213357e-14)
(-0.002431429321 0.03505969279 1.061650767e-13)
(-0.00210762043 0.03052434932 9.203748874e-14)
(-0.003340750768 0.06037067726 1.820071871e-13)
(-0.003689815062 0.06632519842 2.008254674e-13)
(-0.003895938897 0.07631627629 2.31065167e-13)
(-0.003561069153 0.07018296878 2.115807529e-13)
(-0.003547221044 0.09621957239 2.900041318e-13)
(-0.003764873746 0.101348756 3.067823773e-13)
(-0.003487711721 0.1072818731 3.247402347e-13)
(-0.003298160955 0.102157076 3.079064781e-13)
(-0.002117893911 0.1141263285 3.439748486e-13)
(-0.002184346219 0.1167879677 3.53495011e-13)
(-0.001663058031 0.1178996317 3.568673135e-13)
(-0.001624895297 0.1159704488 3.495398415e-13)
(-4.837664076e-05 0.1178056551 3.551048344e-13)
(-5.175642237e-05 0.1185201176 3.587685704e-13)
(0.0004881634787 0.1185005108 3.587130593e-13)
(0.0004849062219 0.1176416598 3.546191119e-13)
(0.002039798628 0.1143445571 3.446964936e-13)
(0.002099633058 0.1169242671 3.539946114e-13)
(0.002591646568 0.1149916718 3.481520627e-13)
(0.002501845031 0.1116461515 3.365918655e-13)
(0.003481156085 0.09639202098 2.906425101e-13)
(0.003703089935 0.1016539613 3.078509669e-13)
(0.003894836548 0.09492793648 2.875200078e-13)
(0.003624954467 0.08892217136 2.68146616e-13)
(0.003373117664 0.06206336222 1.87183602e-13)
(0.003716610936 0.06806616095 2.061684157e-13)
(0.003410411923 0.05768929988 1.747352263e-13)
(0.003059644779 0.05199598976 1.568190022e-13)
(0.001673013827 0.02313060769 6.974976152e-14)
(0.001971561991 0.02713369613 8.21842594e-14)
(0.001422647978 0.01843236523 5.583034035e-14)
(0.001165822201 0.01517414141 4.576894419e-14)
(7.70628668e-05 0.0008527399017 2.581268532e-15)
(0.0001323831684 0.001458077979 4.413136523e-15)
(3.361036355e-06 3.525318081e-05 1.110223025e-16)
(0 0 0)
(0 0 0)
(0 0 0)
(0 0 0)
(0 0 0)
(0 0 0)
(0 0 0)
(0 0 0)
(0 0 0)
(0 0 0)
(0 0 0)
(0 0 0)
(0 0 0)
(0 0 0)
(0 0 0)
(0 0 0)
(0 0 0)
(0 0 0)
(0 0 0)
(0 0 0)
(0 0 0)
(0 0 0)
(0 0 0)
(0 0 0)
(0 0 0)
(0 0 0)
(0 0 0)
(0 0 0)
(0 0 0)
(-4.741777718e-06 4.579316309e-05 1.387778781e-16)
(-1.293898699e-07 1.255246993e-06 0)
(0 0 0)
(-0.0003557419907 0.003808663508 1.168509733e-14)
(-0.0004490144942 0.004785942823 1.475208844e-14)
(-0.0009317868258 0.01044789409 3.219646771e-14)
(-0.0007949534269 0.008953382779 2.746414207e-14)
(-0.002585807762 0.03451418747 1.058736432e-13)
(-0.002814359128 0.03739451632 1.152133944e-13)
(-0.003421228673 0.04844741996 1.492556079e-13)
(-0.003242114212 0.04612472693 1.414840467e-13)
(-0.00449751425 0.07971956477 2.445127434e-13)
(-0.004680573491 0.08256620668 2.543520949e-13)
(-0.004810509026 0.09241804923 2.846889391e-13)
(-0.004645867679 0.08969193537 2.750993877e-13)
(-0.004215007395 0.1110799231 3.406719351e-13)
(-0.004296656336 0.1125880594 3.468197951e-13)
(-0.003873635672 0.1155098049 3.558126016e-13)
(-0.003827049004 0.1148733886 3.523015213e-13)
(-0.002258609762 0.117007816 0)
(-0.002283193591 0.1164843595 0)
(-0.002011188088 0.1164874431 0)
(-0.001724495442 0.1165022689 0)
(-0.001709917961 0.1167613768 0)
(-0.001705946342 0.117014262 0)
(-6.117900538e-05 0.1170148342 0)
(-6.267747059e-05 0.1167633585 0)
(0.0002128249173 0.1167619373 0)
(0.000212831161 0.1170133982 0)
(0.002154080015 0.116981024 0)
(0.002160763315 0.1167226973 0)
(0.002169376778 0.1164603576 0)
(0.002443391278 0.116450824 0)
(0.002713457034 0.1164462922 0)
(0.002704622263 0.1169650257 0)
(0.004138212324 0.1118063131 3.430450368e-13)
(0.004208238436 0.1132185533 3.488875855e-13)
(0.004540587338 0.1086755068 3.348987754e-13)
(0.004437351955 0.1066667525 3.272798699e-13)
(0.004516296834 0.08158345011 2.503275365e-13)
(0.004681655879 0.08416208609 2.593897319e-13)
(0.004451760244 0.07390776195 2.277900091e-13)
(0.004248092714 0.07086728855 2.174510572e-13)
(0.002752910897 0.03735254499 1.146166495e-13)
(0.003010922381 0.04066824498 1.253303017e-13)
(0.002374571723 0.0301972084 9.306444504e-14)
(0.002138635264 0.02732004765 8.382183836e-14)
(0.0004770611389 0.005183480924 1.590394483e-14)
(0.0005962839626 0.006449888021 1.987299214e-14)
(0.000213680689 0.002201491327 6.786238238e-15)
(0.000145390086 0.001504626166 4.62130334e-15)
(0 0 0)
(0 0 0)
(0 0 0)
(0 0 0)
(0 0 0)
(0 0 0)
(0 0 0)
(0 0 0)
(0 0 0)
(0 0 0)
(0 0 0)
(0 0 0)
(0 0 0)
(0 0 0)
(0 0 0)
(0 0 0)
(0 0 0)
(0 0 0)
(0 0 0)
(0 0 0)
(0 0 0)
(0 0 0)
(0 0 0)
(0 0 0)
(0 0 0)
(0 0 0)
(0 0 0)
(0 0 0)
(-4.27261602e-05 0.0004052514319 1.276756478e-15)
(-2.434836844e-05 0.0002319823718 7.21644966e-16)
(-1.9919087e-05 0.00019062771 5.967448757e-16)
(-0.000645153632 0.006782969434 2.117750419e-14)
(-0.0006690658427 0.007002460624 2.195466031e-14)
(-0.00123903943 0.01364071116 4.277134202e-14)
(-0.001206409238 0.01334231062 4.1661119e-14)
(-0.003249243429 0.04256912668 1.32893696e-13)
(-0.003300087754 0.04303537695 1.349476086e-13)
(-0.003931121256 0.05462697619 1.712935349e-13)
(-0.003877458939 0.05413065148 1.689759443e-13)
(-0.005045156249 0.08767759558 2.736838534e-13)
(-0.005092735633 0.08808817991 2.761818552e-13)
(-0.005163983107 0.09724364422 3.048949981e-13)
(-0.005122608205 0.09692874599 3.025635298e-13)
(-0.004411217038 0.1137103041 3.54938301e-13)
(-0.00442539811 0.1134828552 3.558126016e-13)
(-0.003925119159 0.1144268475 0)
(-0.003921378719 0.1149373564 3.587685704e-13)
(-0.002310447088 0.1149352547 0)
(-0.002313480602 0.1146757788 0)
(-0.002045153776 0.1146757557 0)
(-0.002042146206 0.114934823 0)
(0.002178146416 0.1149165566 0)
(0.002178164207 0.1146595798 0)
(0.002446405019 0.1146569408 0)
(0.002446667454 0.1149135355 0)
(0.004306018201 0.1143279585 3.570199691e-13)
(0.004313767441 0.1140971355 3.57880392e-13)
(0.00475075154 0.1117749484 3.506084312e-13)
(0.004726294686 0.1116322662 3.486100297e-13)
(0.005145718872 0.09131858351 2.851885395e-13)
(0.005210993972 0.09210178496 2.889077866e-13)
(0.005035706082 0.08218979587 2.578215419e-13)
(0.004961684359 0.08131645519 2.539496391e-13)
(0.003536447525 0.04714155359 1.472155731e-13)
(0.003617210166 0.04801242291 1.506017533e-13)
(0.002938906279 0.03672134879 1.151856388e-13)
(0.00286279349 0.03592553176 1.121880366e-13)
(0.0008651628523 0.009233129595 2.882416528e-14)
(0.0009769943993 0.01038016122 3.25572902e-14)
(0.0004660448986 0.004716167493 1.47937218e-14)
(0.0003836560038 0.0038998102 1.21846977e-14)
(0 0 0)
(0 0 0)
(0 0 0)
(0 0 0)
(0 0 0)
(0 0 0)
(0 0 0)
(0 0 0)
(0 0 0)
(0 0 0)
(0 0 0)
(0 0 0)
(0 0 0)
(0 0 0)
(0 0 0)
(0 0 0)
(0 0 0)
(0 0 0)
(0 0 0)
(0 0 0)
(0 0 0)
(0 0 0)
(0 0 0)
(0 0 0)
(0 0 0)
(0 0 0)
(0 0 0)
(0 0 0)
(-7.013689586e-05 0.0006533519192 2.095545959e-15)
(-6.33478483e-05 0.0005927906503 1.887379142e-15)
(-5.557419554e-05 0.0005224011126 1.665334537e-15)
(-0.0007948812597 0.008207148751 2.609024108e-14)
(-0.0008218993381 0.008448163218 2.69784195e-14)
(-0.001433339585 0.01549749581 4.947431353e-14)
(-0.001399619296 0.01520108776 4.832245715e-14)
(-0.003502770752 0.04505824236 1.432048924e-13)
(-0.003543863714 0.04537890109 1.448702269e-13)
(-0.004167126155 0.05685062593 1.814798312e-13)
(-0.004127535808 0.05657073291 1.797728633e-13)
(-0.005228341227 0.08915188212 2.833011603e-13)
(-0.00525530255 0.0891863374 2.846889391e-13)
(-0.005292621608 0.09776159905 3.120559366e-13)
(-0.00527135435 0.09783863374 3.109040803e-13)
(-0.004450493527 0.1124015732 3.571865026e-13)
(-0.00445550391 0.1119646475 3.574085472e-13)
(-0.00393573712 0.1123905698 0)
(-0.003933407858 0.1128983741 0)
(-0.002325052973 0.1128893211 0)
(-0.002326371644 0.1126352433 0)
(-0.002058724205 0.1126337742 0)
(-0.002057370225 0.1128878518 0)
(0.00217216651 0.11286641 0)
(0.002170721349 0.1126108382 0)
(0.002438320188 0.1126091104 0)
(0.002439811664 0.1128645524 0)
(0.004314996301 0.1128355749 3.58726937e-13)
(0.004311895165 0.112339031 3.587685704e-13)
(0.004792715389 0.1110453241 3.546607452e-13)
(0.004788995319 0.1113786909 3.541056337e-13)
(0.005380459717 0.09394313536 2.986777492e-13)
(0.005410726307 0.09409265734 3.005096172e-13)
(0.005286055821 0.0848630912 2.710470737e-13)
(0.005246749227 0.08457715912 2.689098944e-13)
(0.003906974334 0.05119451653 1.627586954e-13)
(0.003964963716 0.05173229099 1.652150639e-13)
(0.003291281695 0.04041934823 1.290911822e-13)
(0.003231539255 0.03985733024 1.267042027e-13)
(0.001120495174 0.01174973829 3.734512699e-14)
(0.00116612366 0.01217437895 3.887168365e-14)
(0.0006013837423 0.005979616505 1.909583602e-14)
(0.0005669294963 0.005662067098 1.799949079e-14)
(0 0 0)
(0 0 0)
(0 0 0)
(0 0 0)
(0 0 0)
(0 0 0)
(0 0 0)
(0 0 0)
(0 0 0)
(0 0 0)
(0 0 0)
(0 0 0)
(0 0 0)
(0 0 0)
(0 0 0)
(0 0 0)
(0 0 0)
(0 0 0)
(0 0 0)
(0 0 0)
(0 0 0)
(0 0 0)
(0 0 0)
(0 0 0)
(0 0 0)
(0 0 0)
(0 0 0)
(0 0 0)
(-0.0001034595223 0.0009463074292 3.094746681e-15)
(-9.327622567e-05 0.0008570852263 2.789435349e-15)
(-8.420935804e-05 0.0007773338721 2.511879593e-15)
(-0.0008891158144 0.009016129315 2.918498776e-14)
(-0.0009163419479 0.009249972945 3.008704397e-14)
(-0.001549952634 0.01645682693 5.351274979e-14)
(-0.001516553582 0.01617599448 5.234701561e-14)
(-0.003644163739 0.04602302347 1.489364188e-13)
(-0.003683863721 0.04630859931 1.505462421e-13)
(-0.004301668992 0.05760404553 1.872668687e-13)
(-0.004263624333 0.05736271959 1.856154119e-13)
(-0.005320913355 0.0890140919 2.880196082e-13)
(-0.005346319527 0.08900894991 2.893241202e-13)
(-0.005364204544 0.0971827647 3.159139617e-13)
(-0.005344379214 0.0972963492 3.148314942e-13)
(-0.004467679539 0.1105943659 3.57880392e-13)
(-0.004471684602 0.1101377916 3.580330477e-13)
(-0.003944252248 0.1103636203 0)
(-0.003942201577 0.1108700845 0)
(-0.002334893887 0.1108610847 0)
(-0.002336053739 0.1106079946 0)
(-0.002068770803 0.1106065865 0)
(-0.002068167269 0.1107331432 0)
(-0.002067564359 0.1108595939 0)
(0.002157676043 0.110824089 0)
(0.002155459785 0.1105694868 0)
(0.002422755113 0.1105681845 0)
(0.002425006195 0.1108227041 0)
(0.004298751335 0.1108025834 3.587408148e-13)
(0.004293257475 0.1102752796 3.586853037e-13)
(0.004764228168 0.1087771765 3.538280779e-13)
(0.004775172517 0.109423347 3.542860449e-13)
(0.005379120524 0.09243299477 2.992744941e-13)
(0.00535618639 0.09167578004 2.982059044e-13)
(0.005225104976 0.08253768005 2.684796829e-13)
(0.00525026464 0.08327117884 2.696176615e-13)
(0.003921764522 0.05052053845 1.635636071e-13)
(0.003895812076 0.04997299065 1.625366508e-13)
(0.003223891588 0.03891575925 1.265654248e-13)
(0.003248234479 0.03937909137 1.274813588e-13)
(0.001134800228 0.01169160958 3.784472735e-14)
(0.001120031847 0.01148848713 3.735900478e-14)
(0.0005673373683 0.005541807712 1.801336857e-14)
(0.0005777996626 0.005669189018 1.834643548e-14)
(0 0 0)
(0 0 0)
(0 0 0)
(0 0 0)
(0 0 0)
(0 0 0)
(0 0 0)
(0 0 0)
(0 0 0)
(0 0 0)
(0 0 0)
(0 0 0)
(0 0 0)
(0 0 0)
(0 0 0)
(0 0 0)
(0 0 0)
(0 0 0)
(0 0 0)
(0 0 0)
(0 0 0)
(0 0 0)
(0 0 0)
(0 0 0)
(0 0 0)
(0 0 0)
(0 0 0)
(0 0 0)
(-0.0001481573822 0.001330272816 4.427014311e-15)
(-0.0001360495933 0.001227269547 4.066191828e-15)
(-0.0001243385585 0.001126845634 3.705369345e-15)
(-0.001001445904 0.00997026298 3.286260153e-14)
(-0.001031420885 0.01022096467 3.386180225e-14)
(-0.001689576194 0.01760967175 5.832834216e-14)
(-0.00165344618 0.01731386035 5.707934125e-14)
(-0.003805158408 0.0471631398 1.55458979e-13)
(-0.00384693006 0.04745464192 1.571520691e-13)
(-0.004457251932 0.05856328065 1.939420846e-13)
(-0.004417504598 0.05831993229 1.922351167e-13)
(-0.005422789864 0.08897266192 2.93265412e-13)
(-0.005448694852 0.08895890894 2.945838018e-13)
(-0.005443396181 0.09669215464 3.201883203e-13)
(-0.005423468953 0.09681762122 3.191197306e-13)
(-0.004482424193 0.108738695 3.584355035e-13)
(-0.004485565727 0.1082629614 3.585187702e-13)
(-0.003951920468 0.1083365834 0)
(-0.003950091683 0.1088433432 0)
(-0.002343772203 0.1088344198 0)
(-0.002344780439 0.1085810934 0)
(-0.002077956577 0.1085796762 0)
(-0.002077423036 0.1087063392 0)
(-0.002076877864 0.1088329786 0)
(0.002137974129 0.1087902023 0)
(0.002135030248 0.1085359575 0)
(0.002402068244 0.1085349274 0)
(0.002405070556 0.1087891013 0)
(0.004267298299 0.1084977877 3.578387586e-13)
(0.004253032309 0.1077730696 3.571171137e-13)
(0.004672555645 0.1051773456 3.48526763e-13)
(0.00470511466 0.1062844863 3.5055292e-13)
(0.005180059766 0.08761767315 2.889910533e-13)
(0.005075411292 0.08550980619 2.833566715e-13)
(0.004925806239 0.07656054646 2.536998389e-13)
(0.005011801811 0.07821261254 2.579741976e-13)
(0.003612672923 0.04574997688 1.50879309e-13)
(0.003522486922 0.04441626496 1.471739397e-13)
(0.002854502149 0.03386290845 1.122019144e-13)
(0.002938894495 0.03501627469 1.154770723e-13)
(0.0009155707374 0.009266670194 3.055888875e-14)
(0.0008664461274 0.008730237841 2.892130979e-14)
(0.0003851401624 0.003695143641 1.224020885e-14)
(0.0004180978302 0.004029520481 1.329492072e-14)
(0 0 0)
(0 0 0)
(0 0 0)
(0 0 0)
(0 0 0)
(0 0 0)
(0 0 0)
(0 0 0)
(0 0 0)
(0 0 0)
(0 0 0)
(0 0 0)
(0 0 0)
(0 0 0)
(0 0 0)
(0 0 0)
(0 0 0)
(0 0 0)
(0 0 0)
(0 0 0)
(0 0 0)
(0 0 0)
(0 0 0)
(0 0 0)
(0 0 0)
(0 0 0)
(0 0 0)
(0 0 0)
(-0.0001872444455 0.001649739871 5.592748487e-15)
(-0.000193642382 0.001714250214 5.787037516e-15)
(-0.0001767701394 0.001572325096 5.273559367e-15)
(-0.001129379602 0.01103469396 3.706757123e-14)
(-0.001167676119 0.01135461197 3.833044993e-14)
(-0.001851883996 0.01893863814 6.392109064e-14)
(-0.001806563252 0.01856381222 6.236677841e-14)
(-0.003980086607 0.04839326243 1.625505286e-13)
(-0.004030811974 0.04877141598 1.645905634e-13)
(-0.004631338088 0.0596770199 2.013944567e-13)
(-0.004583468828 0.05935141698 1.993544219e-13)
(-0.005529760715 0.08894434306 2.987193826e-13)
(-0.005559943254 0.08897944359 3.00259817e-13)
(-0.005528006948 0.09623683761 3.247541125e-13)
(-0.005505227435 0.09632922548 3.235189894e-13)
(-0.004493679454 0.1068066031 3.587408148e-13)
(-0.004495978376 0.1063102225 3.587685704e-13)
(-0.003958843687 0.1063101424 0)
(-0.003957121519 0.1068167851 0)
(-0.002351071625 0.1068080516 0)
(-0.002351856105 0.1065547475 0)
(-0.002085537979 0.1065533921 0)
(-0.002085121923 0.1066800911 0)
(-0.002084694652 0.1068066959 0)
(0.002112498391 0.106761187 0)
(0.002108817958 0.1065077822 0)
(0.002375763046 0.1065069645 0)
(0.002379525864 0.1067603688 0)
(0.004190838185 0.1051640336 3.534394999e-13)
(0.004159656606 0.1040521769 3.513717095e-13)
(0.004503296581 0.09996068753 3.375633106e-13)
(0.004556866928 0.101501273 3.411299021e-13)
(0.004779192503 0.07955985081 2.673972155e-13)
(0.004701158747 0.07795011385 2.632338791e-13)
(0.004448565976 0.06801132491 2.296635104e-13)
(0.004587971178 0.07043390851 2.367273044e-13)
(0.003114060423 0.03875690835 1.302430386e-13)
(0.0029189832 0.03616896687 1.221245327e-13)
(0.002260687749 0.02635002458 8.897049764e-14)
(0.002456346943 0.0287578584 9.664491429e-14)
(0.0006147156855 0.006110454815 2.053912596e-14)
(0.0005368435978 0.005312135264 1.793010185e-14)
(0.0001743113803 0.001642312591 5.551115123e-15)
(0.000219404129 0.002076614669 6.980527267e-15)
(0 0 0)
(0 0 0)
(0 0 0)
(0 0 0)
(0 0 0)
(0 0 0)
(0 0 0)
(0 0 0)
(0 0 0)
(0 0 0)
(0 0 0)
(0 0 0)
(0 0 0)
(0 0 0)
(0 0 0)
(0 0 0)
(0 0 0)
(0 0 0)
(0 0 0)
(0 0 0)
(0 0 0)
(0 0 0)
(0 0 0)
(0 0 0)
(0 0 0)
(0 0 0)
(0 0 0)
(0 0 0)
(-0.0003328521232 0.002876251526 9.950373858e-15)
(-0.0003034687589 0.002635274083 9.076073226e-15)
(-0.0002597300532 0.002266452275 7.757683385e-15)
(-0.001290694776 0.01237051031 4.235500839e-14)
(-0.001386507634 0.01322382743 4.550526622e-14)
(-0.002100884061 0.02107072122 7.249756351e-14)
(-0.001984052724 0.0199974304 6.847300504e-14)
(-0.004202241046 0.0500961426 1.715155795e-13)
(-0.004278011305 0.05074337596 1.745825706e-13)
(-0.004853383922 0.06129676825 2.108868635e-13)
(-0.004792202233 0.06083191103 2.082639616e-13)
(-0.005659312422 0.08918688026 3.053252096e-13)
(-0.005673623495 0.08894866959 3.059913434e-13)
(-0.005628363308 0.09596834182 3.301386942e-13)
(-0.005602145066 0.09602601104 3.287370376e-13)
(-0.004502280915 0.1047934762 0)
(-0.004504697198 0.1042868847 0)
(-0.003966765707 0.104283978 0)
(-0.003965605163 0.1045371857 0)
(-0.003964515096 0.1047904174 0)
(-0.002356781839 0.1047817329 0)
(-0.002357137801 0.1046552454 0)
(-0.002223943153 0.1046546146 0)
(-0.002223599168 0.1047810669 0)
(-4.611062327e-05 0.1047380985 0)
(-4.794973701e-05 0.1046750234 0)
(-4.936475259e-05 0.104611934 0)
(8.105132825e-05 0.1046126495 0)
(8.450615938e-05 0.1047387186 0)
(0.002077164587 0.1047370199 0)
(0.002071536676 0.1044846859 0)
(0.002065803256 0.1042324231 0)
(0.002601269486 0.1042306019 0)
(0.002612055573 0.1047354493 0)
(0.002344709981 0.1047362105 0)
(0.004036669887 0.1000436385 3.427258477e-13)
(0.00397209444 0.09814505618 3.378547442e-13)
(0.004213839319 0.09226947674 3.176348073e-13)
(0.004321640397 0.09494109855 3.252398351e-13)
(0.004307692227 0.07056324624 2.417371858e-13)
(0.004154033515 0.06777079274 2.332994908e-13)
(0.003841601608 0.05776629363 1.988548215e-13)
(0.004002668423 0.06043916187 2.070427163e-13)
(0.002419442399 0.02958486731 1.013356066e-13)
(0.002273814293 0.02768105501 9.528489109e-14)
(0.001660954843 0.01901620754 6.54476473e-14)
(0.001789084299 0.02057539375 7.047140649e-14)
(0.0002538119225 0.002477244311 8.479328351e-15)
(0.0002063189741 0.002004471148 6.89726054e-15)
(1.635492131e-05 0.0001512885448 5.273559367e-16)
(3.124743034e-05 0.0002903856721 9.992007222e-16)
(0 0 0)
(0 0 0)
(0 0 0)
(0 0 0)
(0 0 0)
(0 0 0)
(0 0 0)
(0 0 0)
(0 0 0)
(0 0 0)
(0 0 0)
(0 0 0)
(0 0 0)
(0 0 0)
(0 0 0)
(0 0 0)
(0 0 0)
(0 0 0)
(0 0 0)
(0 0 0)
(0 0 0)
(0 0 0)
(0 0 0)
(0 0 0)
(0 0 0)
(0 0 0)
(0 0 0)
(0 0 0)
(-0.0003156384092 0.002686492688 9.478529073e-15)
(-0.0003566905414 0.003051001613 1.071365219e-14)
(-0.0003811440422 0.003276324529 1.143529715e-14)
(-0.001534928265 0.01449646081 5.062616992e-14)
(-0.001485546285 0.01396064512 4.898859096e-14)
(-0.00221317104 0.02187522608 7.675804437e-14)
(-0.002272348265 0.02257223328 7.882583475e-14)
(-0.004463308753 0.05247033383 1.831867991e-13)
(-0.004390223684 0.05135035523 1.801753191e-13)
(-0.004953753668 0.0617102707 2.165212454e-13)
(-0.005025564299 0.06292540145 2.196992588e-13)
(-0.005765279354 0.08972753139 3.132494264e-13)
(-0.005714936785 0.08847644484 3.104183577e-13)
(-0.005622886386 0.0947371598 3.32373018e-13)
(-0.005660940618 0.09588904037 3.347599975e-13)
(-0.004452457665 0.1027617932 0)
(-0.004455439362 0.1022551227 0)
(-0.003916002918 0.1022519481 0)
(-0.003914512416 0.1025052246 0)
(-0.003913021221 0.1027586187 0)
(-0.002294735428 0.1027490953 0)
(-0.002296226622 0.1024957012 0)
(-0.002026520169 0.102494114 0)
(-0.002025774226 0.1026208699 0)
(-0.002025028975 0.1027475081 0)
(-0.002159882201 0.1027483017 0)
(-0.0001370253462 0.1027363974 0)
(-0.0001377703717 0.1026097592 0)
(-0.0001385162025 0.1024830033 0)
(0.0001311985374 0.1024814161 0)
(0.0001326897319 0.1027348102 0)
(0.002020685509 0.1027236996 0)
(0.002017703813 0.102217029 0)
(0.002547581248 0.1018230263 3.574085472e-13)
(0.002558140756 0.1026393082 3.584910147e-13)
(0.003781353296 0.09263810997 3.236022561e-13)
(0.003691554383 0.0902163373 3.1667724e-13)
(0.003848714874 0.08324119011 2.922107001e-13)
(0.003958148381 0.08586139337 2.999267501e-13)
(0.003618054684 0.05831968924 2.03725925e-13)
(0.003472372001 0.05575142791 1.957045637e-13)
(0.003084038691 0.04559660841 1.600525268e-13)
(0.003295650257 0.04893705148 1.709465902e-13)
(0.001715385164 0.02060479829 7.197020757e-14)
(0.00149448434 0.01787066428 6.272760089e-14)
(0.001014074339 0.01140108236 4.002354004e-14)
(0.001155738145 0.01305325661 4.560241074e-14)
(4.24705081e-05 0.0004069490842 1.429412144e-15)
(1.918300683e-05 0.0001829627318 6.383782392e-16)
(0 0 0)
(0 0 0)
(0 0 0)
(0 0 0)
(0 0 0)
(0 0 0)
(0 0 0)
(0 0 0)
(0 0 0)
(0 0 0)
(0 0 0)
(0 0 0)
(0 0 0)
(0 0 0)
(0 0 0)
(0 0 0)
(0 0 0)
(0 0 0)
(0 0 0)
(0 0 0)
(0 0 0)
(0 0 0)
(0 0 0)
(0 0 0)
(0 0 0)
(0 0 0)
(0 0 0)
(0 0 0)
(0 0 0)
(0 0 0)
(-7.374348966e-05 0.0006151967245 2.220446049e-15)
(-0.0001337977129 0.001121837982 4.024558464e-15)
(-0.0001987655686 0.001674955736 5.967448757e-15)
(-0.001138596879 0.01054168135 3.755329381e-14)
(-0.0009729850389 0.008963563803 3.208544541e-14)
(-0.001582825845 0.01533656763 5.490052857e-14)
(-0.001790065565 0.0174310411 6.208922265e-14)
(-0.003846842315 0.04432245976 1.578737141e-13)
(-0.003567419612 0.04089976683 1.464106614e-13)
(-0.004128785687 0.05040999798 1.804528749e-13)
(-0.004411849459 0.05413412946 1.92804106e-13)
(-0.005301771337 0.08081418603 2.878114413e-13)
(-0.005068769323 0.07687341781 2.751687767e-13)
(-0.005089199589 0.08397509101 3.005790061e-13)
(-0.005288306438 0.08770735556 3.12361248e-13)
(-0.004415452464 0.09964645667 3.549105454e-13)
(-0.004344321682 0.09750783805 3.490541189e-13)
(-0.003894075928 0.09937572067 3.557432127e-13)
(-0.003922574904 0.1006717606 3.585742814e-13)
(-0.002306663599 0.1007221776 0)
(-0.002309645988 0.1002153894 0)
(-0.001770221313 0.1002122149 0)
(-0.001767238924 0.1007190032 0)
(-0.002036957146 0.1007205904 0)
(-0.0001489531303 0.1007094798 0)
(-0.0001519355194 0.1002026915 0)
(0.0003874926862 0.100199517 0)
(0.0003904750752 0.1007063053 0)
(0.001991436654 0.09979908971 3.55590557e-13)
(0.001958623141 0.09775241524 3.500533197e-13)
(0.002410747047 0.0947540201 3.393257897e-13)
(0.002469715391 0.09751230094 3.474442956e-13)
(0.003388493557 0.08164019124 2.90906188e-13)
(0.00324206473 0.07771928054 2.783329123e-13)
(0.003286175298 0.06968818673 2.495781359e-13)
(0.003456934167 0.07368481159 2.625677453e-13)
(0.002870781003 0.04544439579 1.619260281e-13)
(0.00266597311 0.04198443492 1.503519531e-13)
(0.002253340766 0.0326825487 1.170452624e-13)
(0.002453234255 0.03576635298 1.274397254e-13)
(0.0009555725438 0.01126644391 4.013456234e-14)
(0.0008208116685 0.009628089287 3.447242491e-14)
(0.0004194428931 0.004626131299 1.657007864e-14)
(0.00056992863 0.006318282295 2.250977182e-14)
(0 0 0)
(0 0 0)
(0 0 0)
(0 0 0)
(0 0 0)
(0 0 0)
(0 0 0)
(0 0 0)
(0 0 0)
(0 0 0)
(0 0 0)
(0 0 0)