/*--------------------------------*- C++ -*----------------------------------*\
| =========                 |                                                 |
| \\      /  F ield         | OpenFOAM: The Open Source CFD Toolbox           |
|  \\    /   O peration     | Version:  v1912                                 |
|   \\  /    A nd           | Website:  www.openfoam.com                      |
|    \\/     M anipulation  |                                                 |
\*---------------------------------------------------------------------------*/
FoamFile
{
    version     2.0;
    format      ascii;
    class       volScalarField;
    location    "0.44";
    object      omega;
}
// * * * * * * * * * * * * * * * * * * * * * * * * * * * * * * * * * * * * * //

dimensions      [0 0 -1 0 0 0 0];


internalField   nonuniform List<scalar> 
12556
(
31.93116652
31.93202278
31.9328956
31.93364759
31.96679386
31.96728313
31.96770618
31.96855279
31.97021917
31.97301819
31.97699741
31.98123874
31.9841009
31.9838374
31.98078155
31.97672902
31.97305961
31.97002448
31.96872293
31.96753632
31.9338561
31.93278148
31.93172156
31.93075469
31.79509585
31.79773467
31.80032022
31.80237422
31.83596295
31.8376353
31.83994547
31.85942085
31.86696419
31.87986666
31.8983959
31.91876217
31.93292869
31.93344117
31.92046892
31.90149491
31.88359561
31.87032972
31.84589657
31.84000703
31.80350969
31.80032092
31.79726834
31.79444316
31.66092233
31.66539954
31.66963407
31.67276068
31.70678033
31.71013478
31.71546743
31.73958388
31.75748505
31.78755642
31.82920364
31.87196288
31.90282417
31.90430839
31.87635118
31.8363066
31.79605916
31.7656677
31.72898663
31.71632099
31.67628685
31.67073562
31.66535005
31.66064053
31.5280712
31.53401669
31.53962869
31.54387961
31.57883409
31.58495798
31.59597001
31.62963091
31.66666749
31.72746434
31.81025916
31.89896761
31.95627262
31.95706437
31.89842436
31.81833572
31.73963926
31.67950962
31.62297135
31.59942282
31.55239642
31.54369455
31.53595267
31.52928092
31.39751474
31.40492722
31.41180011
31.41740146
31.45344553
31.46339092
31.48284511
31.53224014
31.60431075
31.72023042
31.90144831
32.1393221
32.28250213
32.27401497
32.0953489
31.89942363
31.73627751
31.62496858
31.53407104
31.49135936
31.4330231
31.41979695
31.40897234
31.39996841
31.26787171
31.27653132
31.28472444
31.29198676
31.33082103
31.34705935
31.3811747
31.45396577
31.57180812
31.80133336
32.249269
33.08987995
33.75610172
33.54636618
32.76543572
32.20435908
31.83312165
31.61388743
31.46617675
31.39426981
31.31794029
31.29779426
31.28322109
31.27191881
31.14037509
31.15043662
31.1602172
31.16964946
31.21102731
31.23560742
31.28966238
31.39472105
31.58476163
32.01726454
33.12034649
37.00021835
42.7122823
39.74825807
34.73029635
32.93784558
32.0886164
31.6616028
31.42076508
31.31018323
31.20838017
31.17873766
31.15931843
31.14527418
31.01427411
31.02556886
31.03697392
31.04910193
31.09494845
31.12980627
31.20825859
31.34759261
31.63414463
32.341994
34.51828252
46.4681801
61.16017185
39.45786981
34.32931962
32.54629454
31.78676306
31.39965926
31.23802377
31.10405569
31.06174972
31.0363185
31.01928947
30.89112631
30.90404645
30.91771782
30.93326225
30.98346674
31.03014812
31.1349359
31.30805921
31.69754135
32.65055532
35.56960088
53.51030821
109.2113484
46.61170781
36.31019352
33.18822135
31.97711354
31.40210781
31.17621156
31.005432
30.94864175
30.91597703
30.89551434
30.77020346
30.78455684
30.80045726
30.81984435
30.87684252
30.93595141
31.06668065
31.27289756
31.75457968
32.87894085
36.16695538
59.92985531
135.9095725
52.92746688
38.35836287
33.89233561
32.2027514
31.41798027
31.12254552
30.91237071
30.83915411
30.79841569
30.77432216
30.6538005
30.66999157
30.68865395
30.71286275
30.77447212
30.84650939
31.0014899
31.23953952
31.80056019
33.05681364
36.72327511
67.49918442
136.5521749
56.55903107
39.94401486
34.51458134
32.42206721
31.44029935
31.07444141
30.82527986
30.73582785
30.6864198
30.65820115
30.54008639
30.55772189
30.57878264
30.60786741
30.67579452
30.76081331
30.93792129
31.2074381
31.84045327
33.22519561
37.47175553
77.99966497
126.8529986
57.76588962
40.88762896
34.96762254
32.60170488
31.45718459
31.02882112
30.74310347
30.63699355
30.5790655
30.54676383
30.43140289
30.45092899
30.47519524
30.50966101
30.57985951
30.6775457
30.87411025
31.17692796
31.87753505
33.40737746
38.5470379
88.33612969
543.0292696
109.871846
57.42771009
41.26156898
35.22081817
32.71912545
31.45834116
30.9819023
30.66505373
30.54430423
30.4779501
30.44142579
30.3248261
30.34598804
30.37321832
30.41211701
30.4894455
30.60386369
30.82423778
31.15709277
31.93820342
33.68134189
40.39767274
138.7143454
341.1210373
102.2411084
56.40870293
41.20105332
35.30902245
32.77211074
31.44428518
30.93113171
30.58681103
30.45422269
30.38020289
30.33994232
30.22212812
30.2449557
30.27486982
30.31729649
30.39838513
30.52388108
30.76017836
31.12585447
31.97502479
33.91924444
42.55652036
511.971256
243.7694002
94.69174502
54.70666821
40.86261074
35.26552823
32.76957994
31.40847536
30.87380733
30.50907828
30.36714076
30.28579026
30.24204198
30.11945731
30.14383108
30.1762725
30.22249216
30.30800041
30.44209677
30.69145108
31.0884805
32.01016387
34.21174037
46.11817652
797.0337195
210.7378699
88.01055481
52.97611986
40.38447712
35.13756757
32.71320733
31.35508839
30.80810821
30.42739897
30.27805304
30.19148088
30.14470288
30.01935725
30.04535216
30.07994137
30.12871247
30.21703826
30.35741918
30.61663374
31.03868447
32.03617309
34.62338702
52.2374668
876.9325733
183.7790092
82.04604142
51.3079732
39.89877032
34.99110895
32.63115478
31.2839779
30.73421094
30.34343814
30.18903584
30.09736981
30.0479074
29.91698266
29.9444226
29.98108033
30.03281559
30.12470911
30.26923396
30.53548376
30.97404673
32.03233091
35.11852015
61.95993068
788.9341194
163.6433098
77.33741388
49.98402557
39.50678956
34.83332772
32.52873687
31.19903394
30.64994011
30.25274036
30.09445758
29.99983013
29.94821936
29.8164125
29.84529427
29.88372628
29.93710774
30.03043513
30.17744771
30.44840919
30.89954445
31.99685695
35.58257644
72.94276741
688.1997196
151.2934549
74.53802209
49.17697842
39.21232887
34.67124464
32.41526991
31.10528972
30.55839192
30.15830504
29.99771364
29.9007489
29.84785283
29.71178971
29.74179182
29.78200803
29.83791673
29.93408394
30.08239227
30.35642569
30.81767427
31.95570576
36.02096127
80.24490062
609.8411356
145.2302434
73.36483291
48.63761927
38.95530466
34.51525477
32.29781273
31.00592196
30.46106724
30.05790249
29.89504803
29.79633672
29.74262741
29.6093953
29.64035663
29.68197197
29.73897843
29.83552653
29.98458125
30.26077784
30.73097715
31.91598221
36.51519632
85.28716396
546.7158074
140.6726687
72.53223879
48.25374603
38.73910613
34.37146063
32.18143597
30.90326762
30.35939604
29.95516309
29.79120886
29.69132735
29.63710247
29.50166301
29.53316342
29.57615797
29.63552504
29.73491416
29.88454772
30.16272291
30.64187615
31.88252354
37.10119599
88.39933794
494.5767655
136.8878075
71.8822096
48.03606598
38.57059553
34.24423493
32.06970309
30.79946138
30.25478417
29.84723578
29.68137206
29.58046492
29.5260723
29.39777041
29.42960288
29.47342765
29.53326986
29.63225421
29.78273829
30.06330616
30.55260326
31.86045024
37.85017567
90.18859903
450.9809706
133.7182603
71.38059928
47.9540523
38.45964445
34.13812212
31.96568283
30.69652185
30.14852124
29.73937011
29.57266318
29.4710457
29.4166169
29.28717515
29.3189926
29.3637248
29.42577617
29.52799218
29.67960351
29.96343248
30.46521941
31.85687739
38.74313132
91.03525664
414.1326035
131.0486928
71.01923008
47.97147181
38.41104497
34.05759515
31.87210147
30.59613154
30.04183594
29.62710456
29.45792256
29.35534063
29.30101992
29.18310574
29.21477819
29.2598199
29.32165342
29.42238348
29.57569817
29.86404174
30.38186812
31.8823277
39.64651073
91.1936009
382.6450337
128.7880109
70.79394538
48.06400735
38.42186088
34.00525471
31.79074531
30.4995591
29.93573722
29.51778849
29.34748176
29.24415273
29.18992867
29.07020431
29.10152694
29.14718812
29.21136743
29.31622076
29.47165815
29.76611994
30.30464852
31.9474291
40.45732229
90.85326626
355.5033592
126.8791496
70.69904876
48.22443939
38.48573076
33.98120156
31.72229973
30.40757743
29.83107995
29.40392834
29.23002558
29.12540684
29.07126552
28.96777734
28.99871274
29.04439075
29.10781952
29.20975789
29.36813697
29.6705773
30.23537257
32.05212159
41.14317073
90.1068143
331.9242577
125.2851087
70.72702769
48.44811315
38.59578702
33.98278366
31.66639698
30.32047919
29.72836496
29.29636506
29.12094214
29.01531665
28.96118103
28.85286815
28.88332827
28.92956221
28.99587758
29.10389435
29.26569551
29.578107
30.17530195
32.18651242
41.70300782
89.02404131
311.2630674
123.9817191
70.87882117
48.7298456
38.74447161
34.00731625
31.62174065
30.23812374
29.62799718
29.18236574
29.00199873
28.89462823
28.84039391
28.75414614
28.78416248
28.83034189
28.89554135
28.998546
29.16479288
29.48920178
30.12491649
32.33568033
42.14283221
87.66523265
293.0471912
122.9393765
71.13341141
49.05961181
38.92274125
34.04944144
31.58641461
30.1600576
29.52996127
29.07907731
28.89699837
28.78833814
28.7339391
28.63683217
28.66638673
28.71319856
28.78208132
28.89470646
29.06579033
29.40419738
30.08392317
32.48585468
42.46896832
86.07896767
276.8447808
122.1286919
71.46517799
49.42031283
39.11982662
34.10396834
31.55820882
30.08562918
29.43434756
28.96474061
28.77639129
28.66556933
28.61084867
28.54420822
28.57338051
28.62023411
28.68781427
28.79181502
28.96897309
29.32335508
30.05146076
32.62743466
42.68827944
84.27121408
262.1739259
121.484801
71.83574572
49.79163881
39.32436604
34.16538191
31.53489018
30.01414301
29.34077964
28.86809432
28.67813158
28.56582316
28.51077398
28.42311361
28.45191034
28.49951144
28.57148205
28.69118482
28.87459514
29.24693008
30.02668772
32.75775941
42.82559316
82.37624135
248.6404985
120.913016
72.20534321
50.15289814
39.52518698
34.22843784
31.5143542
29.9449499
29.24936376
28.75134923
28.55405094
28.43926652
28.38367937
28.3396403
28.36817719
28.41603266
28.48699602
28.59164364
28.78290088
29.17523093
30.00935938
32.88082021
42.92496955
80.61195999
236.1486071
120.3086205
72.52294463
50.4808626
39.71156096
34.28848905
31.49476492
29.8775121
29.15955395
28.66460337
28.46577676
28.34939943
28.29337947
28.21203814
28.24030335
28.28899869
28.36420009
28.49536188
28.69426657
29.10866342
29.99978792
33.00340815
43.0273891
79.12503874
224.6801655
119.5428267
72.73194514
50.75314334
39.87446407
34.34182435
31.47466774
29.81150292
29.07188486
28.54072569
28.33437291
28.21527722
28.15851786
28.14179366
28.16995686
28.219153
28.29517405
28.40066981
28.60934794
29.047962
29.99866684
33.13209388
43.16070786
77.97613783
214.1673701
118.4942346
72.78903152
50.95422602
40.0079706
34.38590738
31.45296313
29.74699188
28.98606657
28.46967907
28.26072284
28.14007483
28.08284958
27.98073135
28.00874479
28.05927172
28.14021915
28.31228255
28.52963053
28.9947568
30.00632347
33.27107138
43.33929637
77.17779302
204.5917111
117.092993
72.68808915
51.07734771
40.10920963
34.4193051
31.42900348
29.68487642
28.90451627
28.31119602
28.09330461
27.96903485
27.91070619
52.98132431
126.4070552
67.80441839
59.09644965
161.4138763
131.1496955
66.42065988
160.7738189
162.8871469
76.69429618
146.2674081
159.0645961
87.25182207
666.5461866
568.0414601
131.9788059
144.1028006
117.4044054
421.4932065
653.1578357
355.6261142
128.2581451
130.5748213
44.95885742
41.69194146
63.10378437
39.72670581
329.4462625
125.671897
103.7954914
49.99579186
42.17913733
36.03891741
51.25109899
47.66560349
1052.013383
732.6889918
134.3651645
59.51861106
52.66335544
36.59316291
56.57823717
51.89226297
62.54902322
185.8896383
161.297061
645.3271327
851.6918785
137.4089824
64.77127833
61.2752304
37.31615659
63.31591697
57.29303017
71.04373884
293.7542922
223.5917505
386.4306439
498.5252337
38.31262823
73.04179602
64.2506277
80.27506418
491.466195
376.3691042
1462.990347
254.8118486
296.011663
40.07206942
94.31146668
74.57998041
97.14654822
1180.420216
743.1773452
149.5272936
322.2394672
415.0816461
119.2520689
147.042118
78.92854676
115.0435582
711.5727727
344.9928197
100.2084859
285.5270744
513.781735
158.2568177
138.3823992
56.31717769
184.8362696
203.5341172
152.1643925
181.4033827
859.443318
1054.118489
148.4838531
754.9205619
680.8933392
530.1272541
751.0252834
146.4032672
219.9506654
189.9484208
63.47003039
250.2191934
298.8093542
205.8361223
246.7582173
518.674977
632.8913404
163.6866943
494.0642027
397.1191396
675.2581778
509.9197406
164.1143066
371.4519649
297.4863807
72.32491177
373.52334
487.8469061
302.0458163
368.9147146
304.6913721
373.463583
730.5353602
502.5081115
80.71184306
2173.883062
707.6096887
1127.13961
493.89621
688.7250159
2575.12373
235.5625557
250.7309836
1293.560337
8551.948624
1193.290078
98.65297658
481.7544729
1889.531126
7771.424078
1137.931869
1853.57906
494.8706918
35.37180169
47.28800445
42.47518248
50.15616854
95.64501168
70.060603
1724.48901
308.9559098
55.57115495
135.9610856
117.0718439
4318.534584
128.4310669
66.24181965
65.4467318
4794.474267
552.4158096
613.4230819
431.8934228
210.4874432
228.0049276
113.6701185
98.04134063
51.0156148
1167.803297
162.2865941
380.620038
107.4924594
254.4413627
92.96621484
627.579076
796.6904746
151.810468
308.0805772
263.5536398
384.9259129
316.3995511
153.9046961
912.6463623
3673.999925
577.1111226
61.58639722
51.24319816
73.49028935
112.5056101
59.28618217
62.84944319
2277.25709
234.3588952
1621.025136
241.9161159
1201.651723
212.0753048
855.9191962
843.7039239
729.6015877
743.8533672
1485.856627
3491.328085
429.0703467
1768.192205
986.6336421
3972.150313
2092.252788
445.389418
418.3446502
145.2517563
153.3973505
464.4581222
526.6090861
4218.902353
814.141745
201.6174676
216.8462955
183.7702087
195.9758334
810.1368007
963.0319161
1165.390843
128.9270182
695.6832493
524.4113936
1182.690666
699.7313984
132.2519791
96.39153908
264.1742491
130.5566594
449.8496628
288.3897653
102.2423371
402.4492146
667.6722231
508.4520719
484.161332
188.4384269
1426.597212
189.2042988
164.505757
1317.787307
1209.327346
1413.13883
1331.982135
168.5999696
899.0254294
906.4415255
710.5358656
262.6845742
255.8146821
265.0616408
263.9485351
706.9319244
629.9050653
233.8645099
215.1699076
252.4863912
239.3570315
642.9174192
272.2513448
275.386106
223.2409577
225.7656634
547.6248079
4129.577272
557.1886362
408.3989298
416.0190438
334.1148013
338.7317587
933.5221066
690.7189908
340.3430387
841.9728935
1380.796216
564.5978736
168.9183686
179.6527644
156.3461671
165.6167873
554.3154626
996.9555341
763.2541916
778.5310693
538.160903
543.7022468
5050.709843
775.8757677
402.4542426
446.6070852
223.5246563
237.6503146
1503.691669
3037.857594
1050.268745
1793.400041
1186.203833
5922.992959
2058.350548
4978.153184
1182.306008
550.9315983
3249.73198
1309.325125
1976.090319
1414.804035
1916.277321
41.95525204
106.826855
97.67642986
160.2826187
4169.866964
7732.135878
255.1263285
117.0106921
125.55038
561.1870091
2238.102055
3344.353547
356.8555662
388.6591682
729.9999695
194.6329092
204.8455536
420.7169369
110.2044195
80.94938055
149.9357454
256.5443216
100.6436364
114.1922271
988.7693864
2262.816536
2364.312737
787.425182
682.3706359
1861.276307
1379.075685
3076.090552
3077.482305
818.6961465
265.0727572
113.3566126
118.3343257
107.2516236
111.7744295
259.1010837
135.809024
142.8500777
412.951033
1079.661709
395.8805968
418.4465022
6437.498601
2877.224571
386.6016057
618.4832762
2047.040109
2251.239495
371.637286
175.2557481
148.8145996
207.6696659
184.178045
386.7307707
878.1655365
2986.76215
3074.542988
1009.429813
206.2328541
101.6886157
105.827215
667.8649231
650.4534572
288.395994
1307.747037
1210.430228
600.9267725
450.1564143
242.6865835
250.5141043
614.7268711
261.3882381
264.6822828
253.2522818
259.4893976
605.2129935
329.9448736
127.4791167
133.6522881
120.0680819
125.5405597
325.061251
387.3922799
1033.886285
1020.196899
1715.122963
1659.128804
463.5947133
314.4199039
711.9071443
670.8395855
1014.166216
1003.468417
355.7800129
330.111825
666.5038715
537.650171
5343.679166
1466.206861
735.6741038
937.9798806
512.2358731
1755.197993
1723.863632
1769.96758
593.8358636
4104.772173
8964.06503
311.0642217
370.564267
427.1205678
448.197719
1208.744183
1199.804063
803.6114719
446.6662368
1915.550957
7512.365511
1132.816798
999.2298398
16253.13444
1152.879451
1758.425287
1015.005088
1177.252893
913.7659547
4269.63207
4351.267854
971.2733208
1261.188496
5007.144863
1252.323876
1185.002481
243.2574714
847.1133642
349.0557541
845.5639145
264.6207542
3261.525171
2114.044134
706.1064553
3985.624147
4720.018829
3844.506652
2445.742863
777.0225659
4019.815838
5212.620525
2405.431858
3786.288308
5618.794543
1350.334896
2047.903111
961.5873964
1207.823805
5001.714405
2338.102513
704.2989317
449.5227834
1123.54836
771.1370977
408.7428429
264.8938888
686.3232927
2489.04639
3154.976292
942.1539467
800.8046989
2390.729191
2493.695816
2028.967851
1930.706098
696.8579361
3444.677538
3346.622524
2448.788075
3368.772803
3299.245353
799.4968185
3191.326626
2086.07484
2207.054988
2520.183317
1338.907684
631.0367712
679.6776216
2846.227668
788.2702656
888.7968701
699.4832685
759.6641742
2638.362381
2850.850004
761.8591392
897.3960222
364.2716513
388.0504722
974.788783
776.0125654
341.200677
358.2642714
1082.845789
1102.960622
671.3784313
221.5744603
245.1903285
196.3196345
215.0130437
662.5339832
763.1045168
284.3271274
316.6039763
253.2408398
275.9898995
767.3133532
387.4628122
174.9985373
190.9922154
573.5427485
605.7032518
1481.439398
1552.563055
587.5624022
2172.904765
2186.200807
2730.97987
1500.917139
1247.094822
2116.801518
1486.664111
416.3233796
1063.419486
1415.095167
1489.866718
438.2791231
505.2720661
409.9745326
426.5704215
1442.04145
562.5673742
577.6759265
528.0242965
557.2365254
1277.281659
349.1533355
364.5745
325.2127032
343.8016973
1261.492528
1379.253125
389.681465
404.3527209
369.659642
384.6522721
1371.039231
2838.390885
2931.751047
883.7055908
972.4659858
2898.091911
2810.837782
938.4411193
947.6634957
904.6335325
935.4506887
967.49658
985.499602
950.8389996
963.5935751
601.5579267
615.9394488
582.4645162
596.5660805
665.20766
855.7369253
622.7827806
639.3690935
1151.505959
1337.866236
923.8668239
1073.353837
4363.093444
2097.733826
2279.634996
1425.486455
2003.895424
1052.737173
1041.853607
392.4171912
1740.206372
1747.162436
1697.753873
1727.646873
1801.694061
451.2663664
1617.341454
1115.21782
963.9105193
735.4124084
318.9504127
1045.529342
1574.476067
987.0447795
1056.611453
1650.908255
1682.161803
1598.566025
1637.693525
351.50849
999.91423
985.6116157
4790.623024
996.7014298
4626.548903
3896.045413
4610.489693
1065.12476
5599.318138
1303.566237
5263.668229
4398.014777
744.2017612
841.0532493
1797.202509
1761.521491
517.9558844
575.4202966
1875.01133
1801.000015
5001.556072
1258.476335
462.9866084
515.8754546
5391.714112
6204.278698
2005.902678
6780.739037
4688.687859
1336.485109
1155.39445
5927.574465
3003.940283
6543.497895
3494.099667
1691.597681
57.60569758
40.00935687
35.47314982
4852.227156
4828.965062
120.0129998
65.53524597
66.20469346
5073.267614
745.0774242
2123.983182
1409.498703
257.3067303
219.0880046
138.7919913
219.5748414
163.397951
306.159348
1019.952671
218.6060661
237.7992453
48.9299511
56.1798509
97.16187719
288.9063458
517.5224414
740.9800948
174.5493794
91.8275781
95.34516371
87.44721154
90.70078376
171.0854306
655.2942938
728.0479383
2398.623585
513.6043483
453.508922
276.3786655
320.854167
336.1340669
769.7176808
802.6772445
1021.665634
395.1512957
96.56358389
100.3733286
202.1251261
259.7798436
605.9953861
575.8975806
551.8595419
481.1784305
236.8046661
640.0140324
300.3651105
315.8672905
3798.602825
3502.979058
1900.376298
1788.363726
1763.298369
1100.453127
3062.439946
5016.719475
4395.001961
985.509763
577.7701253
638.0954178
1892.566003
1144.965235
1827.557834
1812.742
1853.182668
1813.531143
4148.849491
2799.835161
3198.356807
4729.412547
1160.91308
940.3236987
559.0229156
1203.433114
139.3691888
112.1265716
184.6736513
682.5836664
1797.889231
1280.716366
5417.207888
5794.334235
5926.55841
4731.492913
5589.902269
78.09501909
97.16125911
210.5659752
1869.64178
1230.268217
957.1788524
2451.35143
1926.484024
1624.427351
3101.218847
2792.06756
4683.776474
4383.063803
2969.975914
574.1254471
616.4217207
1234.893521
4136.109144
2016.911566
2256.545288
3575.450541
1952.75369
2319.144635
1008.536566
1371.920344
1142.006175
686.2575828
455.6424089
463.5528125
1140.01037
672.1280564
714.3803884
469.375388
481.4617487
717.5267085
153.4897678
170.4893444
361.6795492
461.822778
835.9197773
587.274042
1037.346458
1084.012186
667.6969478
1826.877694
1285.713247
1344.287432
839.410667
843.116154
1433.77902
1477.376799
1495.197913
1381.285187
1407.896683
1302.058562
769.2368111
775.6772721
733.3415744
741.5514569
1228.522023
1403.062698
823.897061
829.7820349
782.5110348
789.355615
1345.355232
625.978515
611.3948754
262.8880983
285.2110667
645.6890986
630.6804402
446.544746
432.475517
215.5662251
1549.311361
1552.883251
1503.169543
1510.193058
1958.363923
1563.88002
1565.59888
233.9371271
468.9465405
452.185243
3975.106649
3924.643894
2380.024882
2517.411164
4102.445759
3961.956904
4137.699229
590.1475989
1169.257307
981.1399705
282.4291777
295.541304
608.635228
533.6140665
268.1511434
278.7483923
1128.968734
1128.476502
759.3539532
781.6177862
1138.928793
1143.479036
4998.258069
1586.391096
1020.694605
1006.512642
12382.09919
2503.430352
1226.048498
4104.973104
3176.590931
1907.351336
1882.413026
1168.5307
5694.499244
6249.474127
5931.989117
4519.266887
1248.672308
1959.089974
1894.981835
2110.332001
785.5566304
905.3296783
4759.431929
4676.012284
3469.3741
3189.888362
1720.964646
827.9310752
865.796431
943.0349963
2654.861774
4736.139758
3972.744058
4793.625094
4565.456525
3070.389417
149.1496703
195.8242673
550.7009732
2446.126012
2381.788315
2522.816754
2496.754359
2311.426467
1533.32634
1518.524982
1550.764241
1537.123261
2319.729112
3124.596284
1743.255755
1753.012667
1681.160441
1727.043159
3181.410579
2135.380679
1390.57611
1259.057615
1506.355989
1466.16425
2191.578532
2982.211497
1771.657381
1780.417503
1762.518692
1765.988033
3023.5863
2598.637228
2544.457035
2664.980646
2557.937265
1031.377108
692.8485971
697.2628837
1697.872977
1050.595071
1055.873303
1019.100727
1042.757438
1684.770867
4959.77266
5190.411437
4433.746517
5044.182064
1781.250496
1796.832864
1748.574894
1765.373673
2277.872901
1039.689538
1712.506861
1642.223038
1743.165104
1064.403225
1069.196959
1058.429496
1062.064466
1735.462519
1678.189229
1724.806576
1156.150643
1609.150489
2247.47609
5359.988002
4953.935449
3582.282503
5242.896321
875.5001554
1256.503848
12941.02587
1209.688826
813.9953796
818.62756
1917.657597
7103.187371
7330.258294
9229.75027
5487.197094
4960.97563
1845.190731
1832.243104
1146.533434
1812.035578
1542.966206
2219.123803
1529.193895
2005.286358
1495.521838
591.0541894
2176.754957
1483.56185
4319.386564
4530.932027
4950.722712
3524.870844
4153.772577
1204.720798
1554.886729
687.3590874
367.6367024
508.5771363
824.5173611
935.7834879
534.8437544
797.6130089
1066.278791
4572.997216
4867.598259
4488.972979
4674.277529
5541.499856
5475.802147
5273.204851
2870.928206
4576.447128
4084.745906
5260.380433
5479.132845
3325.7639
3689.024271
4174.685319
5550.379822
4354.002667
2820.115422
3193.83614
1763.853907
1273.153833
1786.3976
958.9373595
1376.543062
1839.49324
2013.209278
1849.347026
2594.115445
1672.131769
1584.745833
2254.281674
1653.713432
2437.253347
2425.612563
1569.003139
1554.502269
1591.681535
1569.648824
2440.700083
1997.607877
1202.254081
1219.44683
3400.14744
3381.202346
2881.581122
3803.261744
3668.790029
3497.200936
3329.599205
3479.089482
2628.558579
1417.839911
1574.957594
1247.930798
1305.728405
2238.356872
4424.241746
3614.775022
1852.284414
4781.001172
4532.724676
4518.763523
2675.974894
4399.689358
4241.268833
1537.323285
1726.559325
3392.748561
1051.540335
1130.230285
530.0327983
601.7920245
1091.331679
718.2940584
486.7368937
510.5230871
948.3437924
908.2571845
536.2452987
892.1347706
1214.570812
612.6679197
1017.5216
993.3644404
1484.349903
1029.046266
1011.03868
1133.500997
1096.022794
1568.890682
2287.539238
2158.483326
1401.778416
2060.169129
2161.325923
1931.883276
2036.085814
1375.067775
2067.958815
2041.184574
2600.110505
1941.517039
910.7295859
903.4300077
1405.25441
1449.828628
858.2203174
855.6636292
1451.560825
1467.150046
1423.722836
1439.490357
758.1115621
764.0328783
1293.752275
1244.633735
747.0979389
752.5152369
809.5460566
815.7376538
1389.169719
1359.888102
796.5804343
803.0625572
2893.545032
1800.026395
1807.80284
1783.751094
1790.55952
2894.059799
2802.179519
1974.745557
2270.053197
1826.529105
1868.645719
2810.695907
941.6880201
1560.296814
1547.39612
1578.467287
1569.950835
944.5253938
924.3503044
1505.151322
1484.951687
1535.504605
1521.342326
931.4933241
974.087123
1635.642389
1623.161385
1654.321496
1642.229861
977.4169693
954.5932336
1595.255877
1587.654446
1615.43998
1603.897776
958.2557881
1534.193217
1539.626183
606.1940691
907.7620948
903.94358
916.8655369
913.7018992
611.7199571
1519.387049
1525.706592
1618.930435
1526.702291
687.695736
982.883418
992.8652056
1445.651686
1387.158862
770.6155405
625.800215
926.455906
924.5982924
936.5117553
940.0618903
637.1981367
1580.198159
1572.345861
3961.964346
3820.782923
4187.379552
2715.661659
3237.960813
2152.27919
3696.58168
3750.634799
3671.902654
3688.100127
2205.824058
1583.796146
3090.537656
2591.614327
3642.285284
3781.875347
1822.618945
1057.145364
720.6735995
722.9001151
704.9250153
707.9983333
1042.909029
1740.795272
1757.251152
1704.67986
1724.398433
1697.109879
2175.013211
1545.2197
867.2741684
963.9734019
751.8959014
776.7053365
1103.300693
1469.204483
2069.68521
1615.229096
1533.980893
1001.150377
1672.087484
1655.663662
1714.017666
1663.692037
997.2290582
1659.924897
1674.00303
1613.11076
1627.144351
4430.913233
2706.667681
2893.555269
1957.895556
2371.898971
4535.537474
4536.10986
4360.587252
3203.906385
3739.834096
4876.061171
5057.635093
3563.836125
3807.012138
2652.784704
3118.104087
5256.618384
1832.242125
1833.319755
1813.464225
1817.015083
1190.043293
1202.949986
814.3108076
1900.868441
1795.143482
1853.19747
1842.872019
1780.251566
1080.752459
1090.053416
1071.739859
1078.437709
1775.812894
1822.480059
1106.092508
1169.267815
1092.142859
1109.070487
1826.025875
4786.947513
851.355908
858.2109183
1263.575241
5206.150494
8336.048604
8719.489938
8001.280295
8093.638626
5850.393731
1953.242486
5810.868811
3933.332056
4345.670276
1165.488746
1872.486452
1854.083026
5883.051689
6450.175336
6188.013558
4950.501617
5443.548418
6839.963726
6480.374911
3924.7413
6146.745818
5207.018764
2327.851402
1865.328571
1236.614548
31.76882444
31.77914974
31.86438759
31.78341678
31.80138288
31.87564209
31.80816507
31.83421816
31.89275505
31.84297271
31.87187174
31.91327504
31.88007165
31.90059882
31.93010842
31.90417488
31.907314
31.9348261
31.90561967
31.89096645
31.92507176
31.88430454
31.85792174
31.90698494
31.84961631
31.82307584
31.88821584
31.815779
31.7954867
31.87344383
31.6560822
31.67757647
31.75218354
31.68706965
31.72402898
31.77916852
31.73875026
31.78812872
31.81870967
31.80770392
31.86432976
31.86291315
31.88097987
31.92077352
31.89774255
31.93011078
31.93600661
31.90688014
31.92999522
31.89861453
31.88443822
31.88398198
31.83381633
31.84650134
31.8159764
31.76522407
31.80499997
31.75007691
31.70976802
31.77170557
31.55557557
31.59839038
31.65532246
31.61703782
31.68554455
31.71044201
31.715638
31.82010272
31.78836367
31.8612495
32.00055838
31.87691734
32.03179875
32.13135064
31.95053112
32.16664769
32.17130737
31.96072118
32.1405862
32.0617858
31.91583294
32.02271217
31.9028759
31.83881061
31.86388034
31.75986372
31.75721217
31.73046423
31.65621012
31.69231109
31.47158076
31.5445847
31.58252502
31.57609932
31.70845567
31.686276
31.77014237
32.01832489
31.84984476
32.12685974
32.56347363
32.06443412
32.6682606
33.07068729
32.28214463
33.21613761
33.15184559
32.27650248
32.97966038
32.6581686
32.13962477
32.52581616
32.19164034
31.94779099
32.09599794
31.85967086
31.77186633
31.79660122
31.64975092
31.64887244
31.40811446
31.52221144
31.53592754
31.57736709
31.82733823
31.72852006
31.95037095
32.53052637
32.11007612
32.83509185
34.53247595
32.78514926
35.23802109
40.02318034
33.736615
40.00819162
38.15571214
33.61073684
36.65508398
34.57582155
32.92889476
34.04440782
32.95023624
32.32700783
32.69580372
32.14066928
31.90988989
32.00701681
31.7128997
31.65732284
31.35823857
31.53028266
31.52235229
31.61858186
32.03624103
31.87325255
32.25483273
33.43032542
32.72702451
34.16246619
41.41622608
35.28346154
39.41056599
44.84795909
38.37230849
54.95352149
53.58031153
42.08574418
44.43076273
39.90925765
37.88258944
37.95026831
34.54691102
33.26336293
33.90534964
32.67772292
32.24942215
32.41288305
31.86891045
31.74281303
31.31737073
31.55751584
31.53650055
31.68173599
32.27017056
32.09775749
32.58083145
34.28457679
33.67637301
34.84877379
36.2865342
35.80201331
47.86684514
53.76135603
51.76231948
79.15354745
58.61804785
50.02776425
44.77546774
37.05982028
35.11222602
35.76796925
33.47421284
32.85579968
33.01490084
32.11556327
31.92345411
31.28155807
31.58642799
31.56502858
31.74151132
32.45822535
32.3221397
32.82862552
34.80202395
34.43792515
35.74432135
37.54564464
37.31052833
54.12402435
63.46478011
62.52588518
123.030143
79.15828172
71.77794979
51.57173582
39.81894155
37.77717113
37.84769267
34.39373378
33.70406893
33.71717288
32.41670325
32.18791081
31.24796744
31.60955944
31.5927269
31.79015917
32.60336498
32.4973144
33.01518837
35.18796523
34.89887168
36.3088311
38.37404139
38.15063175
60.78174189
79.00638715
76.5525486
138.433247
90.38027418
87.44507266
55.90229011
42.02333288
40.4628744
39.58808563
35.23195847
34.62327152
34.37227579
32.71606937
32.49313106
31.21602984
31.62783622
31.61415177
31.83142111
32.73239525
32.63552344
33.18411243
35.61155522
35.27687476
36.92205747
39.52311549
39.13877143
68.62801258
94.61036441
91.284289
133.6141482
92.13074141
92.29579623
57.6196918