/*--------------------------------*- C++ -*----------------------------------*\
| =========                 |                                                 |
| \\      /  F ield         | OpenFOAM: The Open Source CFD Toolbox           |
|  \\    /   O peration     | Version:  v1912                                 |
|   \\  /    A nd           | Website:  www.openfoam.com                      |
|    \\/     M anipulation  |                                                 |
\*---------------------------------------------------------------------------*/
FoamFile
{
    version     2.0;
    format      ascii;
    class       surfaceScalarField;
    location    "0.44";
    object      phi;
}
// * * * * * * * * * * * * * * * * * * * * * * * * * * * * * * * * * * * * * //

dimensions      [0 3 -1 0 0 0 0];
oriented        oriented;


internalField   nonuniform List<scalar> 
25162
(
0.0004452082309
0.9162047918
0.0005584659566
0.9165867423
0.0006626601135
0.9165458058
0.000320858168
0.9165732822
0.0004185197529
0.4583394479
0.0003314102391
0.4583055581
0.0004075801342
-0.000413138276
-0.0005131884539
0.4582813664
0.0005818220326
-0.0006471825447
0.4582305188
0.0007516637479
-0.0008644281332
0.4582093089
0.0009851192465
-0.001121576762
0.4581910004
0.001265576313
-0.001407174584
0.4581983815
0.001543793063
-0.001672585181
0.4582352616
0.001768823618
-0.001837395878
0.4583016702
0.001869225699
-0.001858277043
0.4583825358
0.001810741283
-0.00173230109
0.4584381906
0.001624110468
-0.001504684852
0.458463309
0.001376375806
-0.001235711544
0.4584621222
0.001108589302
-0.0009833384008
0.4584646979
0.0008336404555
-0.0007828247621
0.4584374635
0.0006953613066
-0.0005716843328
0.4584526605
0.0004690238658
-0.001824442602
0.9185774975
0.0003136779456
-0.000416732884
-0.001135980463
0.9186615379
-2.83316235e-05
0.9157423512
0.9137716684
0.001225708313
0.9149790835
0.001953850454
0.9158586001
0.00224481221
0.9162548441
0.000674840695
0.9170436201
0.001099633628
0.4580565522
0.0008042237897
-0.4581859353
-0.4581703829
-0.0009810430524
0.4579497272
0.00120169868
-0.4580235824
-0.001473255324
0.4576985503
0.0008447353116
0.0009535521309
-0.2289515908
-0.001020014834
0.2288668227
0.001104782921
-0.001465296341
-0.2288940254
0.2287833752
0.001575946532
-0.00201947585
-0.2288526086
0.2287119467
0.002160137759
-0.0026472162
-0.2288617184
0.2287112784
0.002797656232
-0.003229034035
-0.2289379379
0.2288000064
0.003366980344
-0.003699010009
-0.2290857931
0.2290291749
0.003755601532
-0.003672283187
-0.229239814
0.2292585096
0.003653587567
-0.003397854326
-0.2293389395
0.2294423942
0.003294399631
-0.002900580627
-0.2293894682
0.2295377125
0.002752336383
-0.002321669002
-0.2293870552
0.2295419657
0.002166758573
-0.001776993093
-0.2293534214
0.2294889832
0.001641431358
-0.4588022513
-0.002424712499
0.4601397542
0.001087209559
0.0001383117644
0.4608191359
-0.001754814086
-0.4592026336
-0.002027473418
0.9178770342
0.0007931472771
0.001934789487
-0.001232851525
0.917866916
0.0002425741281
0.9142669255
0.9140142425
0.001562522635
0.9134165608
0.004154352691
0.9132667701
0.007010610287
0.9133985865
0.002907079878
0.9147733733
0.006373777189
-0.4580059582
0.4578151845
0.003097853528
-0.4577506819
-0.00309916799
0.4583795629
0.002470286911
-0.4572550223
-0.002574633073
0.457000819
0.001368481475
0.001460354868
-0.2284543359
-0.001687100028
0.228274778
0.001866657899
-0.2282292425
-0.002507915988
0.2279817546
0.002755403904
-0.2280340749
-0.003719509629
0.227085729
0.004671616352
-0.2268675721
-0.007921701949
0.2259098573
0.0088972174
-0.22734139
-0.01130494683
0.2267688353
0.01189071431
-0.2289410044
-0.01291181838
0.2288747138
0.01297634571
-0.2305429049
-0.01232700051
0.2310327696
0.01182187485
-0.230960354
-0.009582337898
0.2318995161
0.008627334383
-0.2302009261
-0.005556306299
0.2306375418
0.005119041048
-0.2301957933
-0.004232773865
0.2304873581
0.003941209042
-0.002852213162
-0.2301033362
0.2307278846
0.002227664723
-0.4626367855
0.001037346934
0.4613021175
0.0002973209927
-0.4598177817
-0.0005803144329
0.4596853771
0.0007127189466
-0.000426901187
0.9193225079
-0.0006501969227
-0.0003683755661
0.001270686743
0.916169328
0.0005931295359
0.9149444827
0.914607372
0.0005780715563
0.9128384893
0.001254840324
0.9125900013
0.002537878665
0.9121155482
0.003286470924
0.911757784
0.002266997025
-0.4570373562
0.4565862962
0.00373753087
-0.4599023188
-0.00496670592
0.45683376
0.008035264675
-0.4584468545
-0.009314764576
0.4599811534
0.002208979612
0.005571486006
-0.2276139813
-0.002204646221
0.2274045752
0.002414052293
-0.2267032525
-0.003591809037
0.2254295059
0.00487534332
-0.2233628688
-0.008939706086
0.2220712985
0.01027493113
-0.2228370926
-0.01398664522
0.2217784724
0.01509154667
-0.2248349882
-0.01788452375
0.2241288048
0.01861635342
-0.2284796369
-0.02010122625
0.2282591701
0.02031761515
-0.2324456981
-0.01999201892
0.2328720916
0.01953321448
-0.2349464244
-0.01715226352
0.2359896051
0.01606089877
-0.2344768545
-0.01212662028
0.2359078499
0.01065773139
-0.233900331
-0.00146262996
0.2380642803
-0.002703136653
-0.00276731029
-0.231416704
0.2313602596
0.002823754723
-0.4610926402
-0.0042492475
0.462073071
0.003268816684
-0.4602657483
-0.002253148099
0.4610911379
0.001427758522
0.002278627223
0.9188952248
-0.001003599115
-0.0008477450396
0.001672285825
0.9167756694
0.0007740488994
0.9158427196
0.9153814209
0.0002042560995
0.9126342332
0.0004647988684
0.9123294585
0.0008929472615
0.9116873998
0.001440560603
0.9105976951
0.0006124755719
-0.4562907233
0.4554861459
0.002245138072
-0.4553842453
-0.002689426052
0.4547306915
0.003342979843
-0.4538608819
-0.004234202297
0.4530571818
0.002658233135
0.002379669355
-0.2280190022
-0.004516584232
0.2260469842
0.006489404777
-0.2222477041
-0.0121034174
0.2231514756
0.01125252348
-0.2182907351
-0.01162003645
0.2171750592
0.01281290625
-0.2186535673
-0.01630180148
0.2176461044
0.01737111812
-0.2217752565
-0.02034463131
0.2208775711
0.02127037614
-0.2271857413
-0.02363067954
0.2266381703
0.02417356845
-0.2339203545
-0.02457000963
0.2343682199
0.02408406871
-0.2391435317
-0.0205104016
0.2403800567
0.01920467792
-0.247180842
-0.008053244205
0.2449749993
0.01018018866
-0.2365355559
-0.009456009007
0.2379906346
0.007957823793
-0.004303263411
-0.2325125181
0.2329635185
0.003852262938
-0.4634760135
-0.004964950215
0.4647930282
0.00364793555
-0.4618461739
-0.002743801827
0.4626132555
0.001976720243
0.003028184374
0.9203455638
-0.002603977071
-0.001874546269
0.001651233033
0.9181526208
0.0007497163976
0.9167442363
0.9161311373
-6.58432307e-05
0.9127000764
-3.013663944e-05
0.912293752
0.0002541310182
0.9114031321
0.0003940305909
0.9100662282
0.0003915673829
-0.4545834819
0.4542462886
0.0007312239724
-0.4541956226
-0.001720417954
0.4534030412
0.002512999366
-0.452201483
-0.003093657946
0.451145351
0.002050398477
0.002099391509
-0.2228361228
-0.003142504032
0.2219006248
0.004106242781
-0.2162939591
-0.007387454175
0.2152268398
0.008542418569
-0.2159178613
-0.01396901319
0.2133892576
0.01659449771
-0.2167259059
-0.02030506747
0.2173094899
0.01977771938
-0.2180033337
-0.02167854383
0.2181612429
0.021533975
-0.2240908201
-0.02585019115
0.2229514025
0.0269886131
-0.2372096392
-0.02535148566
0.2371224948
0.02541662969
-0.2501455092
-0.01674249034
0.2474567731
0.01936020463
-0.2456108203
-0.01790455452
0.2471541931
0.01626291647
-0.242608799
-0.01123035611
0.2442131584
0.009546412317
-0.004371796441
-0.235445598
0.2364045159
0.00340254951
-0.4659030695
-0.005204286334
0.4670277685
0.004079587337
-0.4629869251
-0.003276811526
0.4633137445
0.002949992096
0.002487918654
0.9222022246
-0.002093629432
-0.002250950021
0.001352207866
0.9192883316
0.0005480019713
0.9175484422
0.9166791393
-0.0004731826912
0.9131732591
-0.0008134090863
0.9126339784
-0.0009953633025
0.9115850863
7.006494343e-05
0.9096719646
-0.0006711646457
-0.4540951652
0.4537680214
0.0003972087136
-0.4523294735
-0.0006558030478
0.4519367574
0.001048519157
-0.4507318804
-0.002044740751
0.4502505314
0.0011979942
0.001328694334
-0.2195224271
-0.002490084145
0.2188358178
0.003230771726
-0.2122924153
-0.005704113193
0.212234476
0.005872270143
-0.2103913624
-0.008161216409
0.209850538
0.008797576066
-0.2118132265
-0.01157954506
0.2101753715
0.01324987957
-0.2130828682
-0.0257832851
0.1084628435
0.1028997907
0.01169997912
0.01580353993
-0.01980063613
-0.1088254274
0.1082126391
0.02041342445
-0.01626459892
-0.2450114095
0.03127194342
-0.01660732865
0.1228341277
0.1237772659
-0.02541568591
-0.2492638482
0.2517160811
0.02291609771
-0.2524445657
-0.01550983428
0.2536871916
0.01416382246
-0.2482301594
-0.01080740536
0.2495902357
0.009342162168
-0.005373324159
-0.2397870666
0.2408751284
0.004244799466
-0.4681527169
-0.004470471522
0.4687527523
0.003870436129
-0.464098697
-0.002888529957
0.4648875458
0.00209968111
0.001374890801
0.9235102585
-0.001254597048
-0.001428327682
0.0006088382499
0.9200543841
0.0002097239485
0.9179475565
0.9168888633
-0.0009008359979
0.9140740951
-0.001746041571
0.9134791839
-0.002392042563
0.9122310873
-0.001199473754
0.9102437135
-0.001764317734
-0.453723541
0.4537100215
-0.001185954231
-0.4517525711
0.001222922273
0.4516402427
-0.00111059384
-0.4488011143
0.0009314119263
0.448305365
-0.0002165722564
-0.0002119140286
-0.2174551877
-0.0006440978224
0.2172398602
0.0009263758306
-0.2107636107
-0.001768451145
0.210727795
0.001921734587
-0.208913509
-0.002769774755
0.2086623023
0.003114451763
-0.2084459334
-0.003963093785
0.2083470952
0.004073035411
-0.0976780631
-0.002897092674
0.09783151664
0.002743639127
-0.02457084231
-0.1336131116
0.1361191296
0.02206482435
-0.02350938894
-0.260098556
0.2631392084
0.02044260547
-0.2586754104
-0.01363538858
0.2603092452
0.01189806088
-0.2535103782
-0.007719310859
0.2545565172
0.006556373095
-0.00436054262
-0.2435734208
0.2443744306
0.003497481682
-0.4697407138
-0.00272698326
0.4705507409
0.001916956195
-0.4655195537
-0.001342615776
0.4660592108
0.0008029586837
-0.0004310268162
0.9241088131
0.0001461165552
-0.0003136443678
-0.0004929938347
0.9201163511
-0.0002914565622
0.9177460192
0.9165974067
-0.001321897956
0.9153959931
-0.002571196684
0.9147284827
-0.003889723604
0.9135496143
-0.002249847426
0.9114097508
-0.002805913444
-0.4539028934
0.4540870174
-0.002433971449
-0.4517096195
0.002652189055
0.4519149519
-0.002857521377
-0.4480821546
0.003045586946
0.4481349162
-0.001423724195
-0.001659828058
-0.2169901867
0.001398042596
0.2169387628
-0.001264678762
-0.2104503943
0.0008576218688
0.2104697985
-0.0007437717318
-0.2088053826
0.0006383636165
0.2089932543
-0.0007267687877
-0.2094214171
0.001581683259
0.2099741724
-0.00212908363
-0.1013536035
0.002442743342
0.1017776931
-0.002866832955
-0.0111117779
-0.1490072214
0.1497573637
0.01036163559
-0.01145363227
-0.2702190248
0.2715679929
0.01008873776
-0.2639736246
-0.006850535411
0.2647212712
0.005994143494
-0.2567411001
-0.003747287512
0.2571709619
0.003183943178
-0.001604275049
-0.2459322714
0.2463068845
0.001156727358
-0.4716419622
-0.0002343072515
0.4725549761
-0.0006787066947
-0.466327861
0.001087816244
0.4664856166
-0.001245571877
-0.002602589546
0.923568565
0.001761088934
0.001381748716
-0.001841350704
0.9193551123
-0.0009572501104
0.9168619186
0.9156401566
-0.00170481328
0.9171008064
-0.003520744718
0.9165444141
-0.005274151199
0.9153030207
-0.003291652665
0.9132825215
-0.003855269231
-0.4544813551
0.454871443
-0.003681740569
-0.4522065528
0.004134298723
0.4527291307
-0.004656876584
-0.4483759672
0.005156310792
0.4488480915
-0.002620158406
-0.002984159591
-0.2170263758
0.002815186933
0.2170955026
-0.002789247485
-0.2107962163
0.002756484788
0.2109802479
-0.002791574007
-0.2098334467
0.003173552331
0.2102025897
-0.003434992892
-0.2116771422
0.004715119284
0.2122321489
-0.005266785018
-0.1034640062
0.003455781692
0.103611161
-0.001791471976
-0.001811464483
0.005291496399
-0.1488382809
0.1480619184
-0.004515133909
0.004129843037
-0.2724112292
0.2716711137
-0.003408020102
-0.2654691066
0.00225983991
0.265197723
-0.002105033505
-0.257693262
0.001936079046
0.2575426694
-0.001926834794
0.001849698222
-0.2464588171
0.2463462583
-0.001813354027
-0.472540863
0.003483122372
0.4721085558
-0.003050815259
-0.4663219966
0.00296782077
0.4666958348
-0.003341658939
-0.005016722451
0.92183863
0.003634940925
0.003111716598
-0.00330408495
0.9176424748
-0.001676561232
0.9152343949
0.9139635954
-0.002169729164
0.9192705355
-0.004330261807
0.9187049468
-0.006634502275
0.9176072612
-0.004293807959
0.9157814734
-0.004839646223
-0.4554567586
0.4560390357
-0.004876085125
-0.4533266844
0.005592082722
0.4539906298
-0.006256028163
-0.4496662116
0.007030772968
0.4507048424
-0.003915174501
-0.004115987602
-0.2174607939
0.004026542485
0.2176238432
-0.004079696211
-0.2117027812
0.004300809525
0.2119931849
-0.004426007134
-0.2114639511
0.005112709932
0.211933393
-0.005467139961
-0.2138279966
0.006936429464
0.2143499692
-0.007457016415
-0.1044650515
0.00434530453
0.1045541968
-0.002205656831
-0.002228792959
0.01466235653
-0.1406945464
0.1394888862
-0.0134566963
0.01615832241
-0.2674651084
0.2656056085
-0.01433240511
-0.2633158206
0.01082619727
0.2617356449
-0.009372186014
-0.2562982874
0.007203036658
0.2555229064
-0.006575593466
0.005047636179
-0.2450402738
0.244551817
-0.004630563779
-0.4713735826
0.007059242485
0.4703704175
-0.006056077376
-0.4669612418
0.005156226052
0.4661428448
-0.004337828969
-0.007253014016
0.9191230079
0.005155232079
0.004813403986
-0.004728419172
0.91511788
-0.002329334145
0.9128353099
0.9116342612
-0.002589440769
0.9218599763
-0.005197662591
0.9213131686
-0.007937102334
0.920346701
-0.005193623008
0.9185745129
-0.00553651884
-0.4567796117
0.4575106168
-0.005924628131
-0.4548583556
0.006772103527
0.4557713714
-0.007685119288
-0.451681444
0.008682689888
0.4529804806
-0.00477365607
-0.005152340237
-0.218207782
0.004952375984
0.218426813
-0.005045047863
-0.2129998983
0.005408746778
0.2133803712
-0.005607492801
-0.2134991455
0.006550401229
0.214082802
-0.007013026925
-0.2159989693
0.008853499176
0.2166042865
-0.009458669743
-0.1051576129
0.005470187914
0.1052579592
-0.002767466356
-0.002803067812
0.01811444944
-0.131200786
0.1299886241
-0.0169022875
0.02233757745
-0.2594293401
0.2574204239
-0.02038868706
-0.2580405232
0.01493606889
0.2574893728
-0.01453142917
-0.2525802517
0.01185037973
0.2514008707
-0.01081643884
0.007581947472
-0.2420218526
0.2410448144
-0.006662553737
-0.4691403088
0.01007602414
0.4676865174
-0.008622232756
-0.4652769401
0.007349942759
0.4641908864
-0.006263889046
-0.009270577038
0.9171172602
0.005882423818
0.005393900941
-0.005977190031
0.911824493
-0.002902564263
0.9097606841
0.908731697
-0.006639358142
0.9284993345
-0.01345305758
0.9281268681
-0.02036192426
0.9272555677
-0.00616495887
0.9259046041
-0.02152705659
-0.4584006062
0.4593119701
-0.007076322766
-0.4567176187
0.008074013404
0.457845359
-0.009201753671
-0.4536706253
0.01031765762
0.4539992793
-0.005168288539
-0.00537602058
-0.2192608577
0.005101051033
0.2193452322
-0.005037117594
-0.2146163174
0.005923535238
0.2151841215
-0.006293802236
-0.2160163471
0.007856508575
0.2163796435
-0.008093248789
-0.2186954255
0.01041869152
0.2195053342
-0.005579942164
-0.005648658063
-0.05320481222
0.003408066309
0.053248841
-0.003452095084
-0.05777679504
0.006592391591
0.05729458701
-0.01285498992
0.006744806355
0.01671893846
-0.1227092613
0.2420234017
-0.02975465382
0.01636711322
-0.1226455383
-0.251577394
0.02372095849
0.2499482349
-0.0221839655
-0.2528918485
0.01780515234
0.2512909116
-0.01637279435
-0.2478703951
0.01276011081
0.2466170458
-0.01165490925
0.008588902065
-0.2375556547
0.2365682397
-0.007635337453
-0.4659196157
0.01211225128
0.4641586677
-0.01035130317
-0.4630729229
0.009033966253
0.4618476223
-0.007808665608
-0.01086298843
0.9140181376
0.007188178685
0.006773932427
-0.007002490564
0.9079639951
-0.003449065157
0.9062072588
0.9052826318
-0.003078557301
0.9315778918
-0.006249605026
0.9312979158
-0.009610099705
0.9306160623
-0.00656158953
0.9295684807
-0.006712386764
-0.4622378215
0.4631964466
-0.007520214552
-0.4607681706
0.008595181847
0.4619263879
-0.009753399154
-0.4554933214
0.01101562754
0.4574487372
-0.006322652903
-0.006532135502
-0.2201219148
0.007057307346
0.2206147303
-0.007395177613
-0.2165495551
0.008306452437
0.21704748
-0.008602816122
-0.2191773823
0.009581653678
0.2196814627
-0.009965514227
-0.2226905288
0.01151849297
0.2236934026
-0.006258419168
-0.006262947618
-0.05490307054
0.008279655391
0.1102242218
-0.05483894471
-0.004362808061
-0.004399053876
-0.1111820751
0.009104932995
0.1111110927
-0.01788795193
0.00885400133
0.02928017508
-0.2355411333
0.2339870625
-0.02773049287
-0.2447852054
0.02031758249
0.2437085612
-0.01936898046
-0.2472831846
0.0165864269
0.2475977893
-0.01708025406
-0.2430264086
0.01384204117
0.2412548428
-0.01219475099
0.008705794112
-0.2331914083
0.2323856475
-0.007904922552
-0.4626489326
0.01288182888
0.4613277486
-0.01156064482
-0.4606051846
0.01026450111
0.4591250383
-0.008784354722
-0.01025496847
0.9100966927
0.007010866714
0.007165546671
-0.007652677902
0.9053617046
-0.003744573127
0.902299154
0.9015380587
-0.003222858376
0.9348007502
-0.006537388098
0.9346124455
-0.01003727291
0.9341159472
-0.006857671353
0.9333515979
-0.006962718693
-0.4642405187
0.465268813
-0.007885965667
-0.4631043222
0.009000992582
0.4642920414
-0.01018871168
-0.4599069192
0.01147446298
0.462463651
-0.006995599535
-0.006995820278
-0.2227011417
0.008635712458
0.2235996614
-0.009404280085
-0.2188124013
0.01136519593
0.219520077
-0.0118839589
-0.2207876716
0.01295903141
0.221114776
-0.01314981318
-0.2256376502
0.01329561186
0.2256330134
-0.01326304506
-0.1132862413
0.01582192145
0.2254579915
-0.01533180601
-0.1126618656
-0.2248567909
0.02113571057
0.2254598128
-0.02173873245
-0.2326158441
0.02291408856
0.2327698974
-0.02312188117
-0.2410594406
0.02223207809
0.240229324
-0.02156325145
-0.2430457994
0.01884192473
0.2417821077
-0.01776908724
-0.236883931
0.01429849382
0.2362260441
-0.01373786696
0.009960638872
-0.2318057568
0.2295620454
-0.007716927543
-0.4601926148
0.01457886709
0.4573935658
-0.01177981807
-0.457611251
0.01058485273
0.4558408482
-0.008814449902
-0.01061045413
0.9062694022
0.007293907752
0.007143836906
-0.007683771785
0.9024350222
-0.003937669008
0.8985530512
0.8976003897
-0.003282137885
0.9380828881
-0.006647941209
0.9379782489
-0.01018072956
0.9376487355
-0.006964452765
0.9371407467
-0.007005425608
-0.4663057266
0.4673450646
-0.008003790778
-0.4654720198
0.009109785798
0.4666370846
-0.01027485064
-0.4645203647
0.01152339933
0.4658815761
-0.00645892321
-0.00642565702
-0.2268710689
0.008787672163
0.2281348623
-0.009973203221
-0.2221384882
0.01320440437
0.2232009235
-0.01411284843
-0.2223987151
0.01618317539
0.2230023868
-0.01664575116
-0.2258833077
0.01747193679
0.2261128391
-0.01762828162
-0.2228610874
0.01782904239
0.2218607791
-0.01681536609
-0.2281330604
0.02046443461
0.2288127576
-0.02117464396
-0.2333888474
0.02266460926
0.2334646763
-0.022838764
-0.2379881998
0.02215253416
0.2372055197
-0.02153031907
-0.2378897494
0.01867007205
0.2365249983
-0.01745744123
-0.2320554186
0.01339694489
0.2305923187
-0.01198750355
0.009471817556
-0.227882153
0.2273661053
-0.008955769875
-0.4569607637
0.0150185298
0.4545523505
-0.01261011659
-0.4532340737
0.009467865946
0.4518967227
-0.008130514865
-0.009804467755
0.9009591191
0.007824025972
0.007290724875
-0.005266886666
0.8978974412
-0.003991187332
0.8972773519
0.8936092024
-0.003264484474
0.9413473725
-0.006600996016
0.9413147604
-0.01007796088
0.9411257004
-0.006903457619
0.9408321977
-0.006865954305
-0.4683505101
0.4693574057
-0.007910353207
-0.4677724629
0.008968874521
0.4688744014
-0.01007081306
-0.4671766843
0.01123596499
0.4684130996
-0.006266635857
-0.006205744444
-0.2322884151
0.006949855286
0.233522309
-0.0081736068
-0.2269582017
0.01243146539
0.2283683754
-0.01374929738
-0.2254628093
0.01714976448
0.22649146
-0.0180667877
-0.2273701952
0.02017216684
0.2279741538
-0.02070061746
-0.2193792785
0.02101331467
0.2188190851
-0.02043619693
-0.2299609525
0.0229419325
0.2301009049
-0.02312622386
-0.2329962636
0.02305258143
0.232601227
-0.02275783018
-0.2344543655
0.02090131556
0.2333889015
-0.01996032775
-0.2322040832
0.01632645798
0.2307058997
-0.01491309387
-0.2265941903
0.01055755993
0.2260955587
-0.01005936404
0.00876210113
-0.2259877179
0.2255677795
-0.008342162717
-0.451138273
0.01418538053
0.4496681204
-0.01271522798
-0.4505605505
0.0113069857
0.4492006912
-0.009947126428
-0.009020530848
0.8947326477
0.008524564582
0.006722437657
-0.00488756078
0.8937644711
-0.003633595804
0.896023387
0.8899756066
-0.003183573739
0.9445309463
-0.006425510398
0.9445566971
-0.00977688458
0.9444770746
-0.006698157001
0.9443493127
-0.006595842504
-0.4703154387
0.4712627998
-0.007645518153
-0.4699324291
0.008631738884
0.4709465314
-0.009645841203
-0.4695845221
0.01070222573
0.4706868188
-0.005946881499
-0.005857640911
-0.2346725097
0.006529114201
0.2349698077
-0.006826412175
-0.232832095
0.0083089063
0.2343195965
-0.009779919489
-0.2300380633
0.01390302733
0.2313097701
-0.01511981955
-0.2302069389
0.01815030516
0.2310427011
-0.018938664
-0.2181254073
0.01955647106
0.2181990876
-0.01961992339
-0.2300014217
0.02113906023
0.2298423991
-0.02101437706
-0.2308337103
0.01985510774
0.2301076345
-0.01919355185
-0.2298624581
0.01640264613
0.2286349772
-0.01523291389
-0.2262220117
0.01122868349
0.2252499941
-0.01026293892
-0.2249390359
0.009290919255
0.2246049983
-0.008956881716
0.007947075098
-0.2244522783
0.2241139601
-0.00760875688
-0.4483047555
0.01310235752
0.4470459064
-0.01184350841
-0.4479447424
0.010611393
0.446732231
-0.009398881648
-0.01193310314
0.890416966
0.008020901561
0.008227883301
-0.007836924246
0.8896682922
-0.001049974423
0.8892364371
0.8889256322
-0.003053186323
0.9475841326
-0.006150259148
0.9476537699
-0.009324655807
0.9476514712
-0.006381496439
0.9476397798
-0.006233626501
-0.4721565746
0.4730312796
-0.007256201439
-0.4719096682
0.008157474715
0.4728246628
-0.00907246924
-0.4717193249
0.01001183199
0.4726840768
-0.005541109918
-0.005435473969
-0.2357890814
0.00603981638
0.236039447
-0.006290182039
-0.2356018745
0.007040969151
0.2358505261
-0.007289620708
-0.2350396884
0.008022189864
0.2353712939
-0.008352889723
-0.2335927015
0.01095441149
0.2344025728
-0.0117543788
-0.2190224418
0.01280797681
0.2194076661
-0.01319067024
-0.2291766245
0.01389680604
0.2289327756
-0.01366410358
-0.2277991422
0.01219514507
0.2270556517
-0.01146317978
-0.2255031849
0.009800387035
0.2253546057
-0.009651807871
-0.2244842351
0.009095170874
0.2242679783
-0.008878914119
-0.2237304595
0.008164165674
0.2234760459
-0.007909752156
0.007118727352
-0.223217773
0.2229434155
-0.006844369942
-0.4458867935
0.01191642604
0.4448213801
-0.01085101266
-0.445623111
0.009787007865
0.444557752
-0.008721648933
-0.0111720632
0.8864858848
0.007426609881
0.00767653448
-0.007374107082
0.8858703361
-0.00366136974
0.8855236998
0.8852642624
-0.002887270865
0.9504714035
-0.005804582461
0.9505710815
-0.008769495146
0.9506163839
-0.005990701466
0.9506756908
-0.005814704719
-0.4738511335
0.4746474065
-0.006786974503
-0.4736870626
0.007599247663
0.474501439
-0.008413624101
-0.4735817128
0.009237415308
0.4744142347
-0.005084783469
-0.004985153763
-0.2367258001
0.005513881201
0.2369350684
-0.005723149582
-0.2365167688
0.006336256776
0.2367148762
-0.006534364108
-0.235989905
0.007103387528
0.2361693855
-0.007282868016
-0.2352419976
0.007770666956
0.2353624833
-0.007891152679
-0.2203485138
0.007915446522
0.2205839689
-0.008150901668
-0.2286919502
0.008613256945
0.2287183918
-0.008639698593
-0.2266698839
0.008629958887
0.2266304897
-0.008590564677
-0.2249776881
0.008367643353
0.2248708031
-0.008260758357
-0.223709588
0.007854260776
0.2235488841
-0.007693556902
-0.2228048332
0.007151388567
0.2226078115
-0.006954366831
0.00632785209
-0.2222218185
0.2219979271
-0.006103960744
-0.4438421255
0.01072874928
0.442942378
-0.009829001807
-0.4435886285
0.008915240393
0.4426589132
-0.007985525157
-0.01031577516
0.8829486736
0.006794894811
0.007058091634
-0.006840772824
0.8823953338
-0.003405618985
0.882088546
0.8818586435
-0.002699054562
0.9531704581
-0.005415957088
0.9532879841
-0.008154719462
0.9533551463
-0.005556767911
0.9534461636
-0.005368424278
-0.4753898365
0.4761090341
-0.00627596553
-0.4752652058
0.007001521654
0.4759840205
-0.00772033634
-0.4751854229
0.008437983804
0.4758992054
-0.00461883164
-0.004532934662
-0.237507768
0.004988508353
0.2376823534
-0.005163093734
-0.2372467918
0.005664409649
0.2374054267
-0.005823044601
-0.236641291
0.006269518919
0.2367792556
-0.006407483471
-0.2356571444
0.006769128708
0.2357368148
-0.006848799038
-0.221262004
0.006868772101
0.2214775848
-0.00708435286
-0.228776495
0.007394531044
0.2287899564
-0.007407992409
-0.2265264128
0.007391041636
0.2264955463
-0.00736017519
-0.2245934576
0.007191567758
0.2245130781
-0.007111188252
-0.223127787
0.006803402843
0.223004815
-0.006680430876
-0.2220835001
0.006259563919
0.2219282195
-0.006104283388
0.005602138934
-0.221413192
0.2212303751
-0.005419322052
-0.4421141554
0.009598852643
0.4413515181
-0.008836215345
-0.4418163494
0.008051976697
0.4410074509
-0.007243078239
-0.009427531949
0.879789067
0.006162619867
0.006424518607
-0.006277021203
0.879244823
-0.003132260878
0.8789437856
0.8787263826
-0.002499355166
0.9556698132
-0.005006358736
0.9557949876
-0.007514531442
0.955863319
-0.005105613771
0.9559543147
-0.00491706877
-0.4767751023
0.4774205759
-0.005751087375
-0.476656111
0.006395275932
0.4772873784
-0.007026543294
-0.4765593829
0.007649497421
0.4771698301
-0.004165952424
-0.004093992182
-0.2381601678
0.004484372165
0.2383060009
-0.004630205223
-0.2378329293
0.005041796516
0.2379609061
-0.005169773294
-0.2371448394
0.005524170301
0.2372525434
-0.00563187438
-0.2359317702
0.00590432923
0.2359842953
-0.005956854374
-0.2220907049
0.005984140031
0.2222836342
-0.006177069344
-0.2288166252
0.006388159676
0.2288216916
-0.006393226113
-0.2264118766
0.006371033725
0.2263865238
-0.00634568097
-0.2243006573
0.006212890018
0.2242380397
-0.006150272391
-0.2226784216
0.005910201568
0.2225819404
-0.005813720294
-0.221511449
0.005480179185
0.2213869851
-0.005355715323
0.004947887217
-0.2207524258
0.2206016885
-0.004797149975
-0.4406487046
0.008549400259
0.4400007754
-0.007901471075
-0.440275838
0.007227487567
0.4395724848
-0.006524134311
-0.008549386773
0.87697997
0.005554521265
0.005803962522
-0.005712060515
0.8764074968
-0.002856206411
0.8760879315
0.8758701762
-0.00229774055
0.9579675538
-0.004594948311
0.9580921954
-0.006877656123
0.9581460268
-0.004659497649
0.9582130713
-0.004476915109
-0.4780147013
0.4785913957
-0.005236192028
-0.4778768068
0.005806295171
0.4784300849
-0.006359573218
-0.4777339501
0.006900195088
0.4782563964
-0.003742988089
-0.003679653253
-0.238705641
0.004015956525
0.2388278114
-0.004138126898
-0.2383073059
0.004478000544
0.2384114544
-0.004582149057
-0.2375401456
0.004866874356
0.2376255083
-0.004952237015
-0.236112194
0.005159823419
0.2361464095
-0.005194038962
-0.2228285741
0.005233684815
0.2229991684
-0.005404279097
-0.2288279268
0.005548543382
0.2288274924
-0.005548108921
-0.2263166742
0.005522695234
0.2262952187
-0.005501239727
-0.2240701269
0.00539350837
0.2240199622
-0.005343343589
-0.2223230019
0.005151392769
0.2222456513
-0.005074042103
-0.2210501906
0.004804729451
0.2209488205
-0.004703359367
0.004367675451
-0.2202064942
0.2200808532
-0.004242034461
-0.4394023718
0.007597208688
0.4388493578
-0.007044194722
-0.4389368037
0.00646311665
0.4383244311
-0.005850744077
-0.007712047528
0.8744885964
0.004985830811
0.005217590337
-0.005167770338
0.8738632196
-0.002588715968
0.8735088772
0.8732814602
-0.002100953013
0.9600685068
-0.004195047028
0.9601862894
-0.006263336305
0.9602143161
-0.004231295083
0.9602402873
-0.004059257197
-0.4791196761
0.4796335472
-0.004745166136
-0.4789464824
0.005249033571
0.4794312329
-0.005733784105
-0.4787407424
0.006203288754
0.4791898922
-0.003356046928
-0.003296391556
-0.239163033
0.003588668129
0.2392657829
-0.003691417996
-0.2386945491
0.003973848791
0.2387800628
-0.004059362515
-0.2378549349
0.004290808083
0.2379234619
-0.004359335138
-0.236228975
0.004518666106
0.236250801
-0.004540492103
-0.2234797186
0.004593097871
0.2236299786
-0.004743357844
-0.2288202829
0.004841807608
0.2288162296
-0.004837754302
-0.2262354968
0.004810634395
0.2262169846
-0.004792122126
-0.223883942
0.004702804657
0.2238428744
-0.004661737055
-0.222036143
0.004505125274
0.2219729866
-0.004441968885
-0.220672583
0.004220981655
0.2205888465
-0.004137245144
0.003857548101
-0.2197505387
0.2196447494
-0.003751758753
-0.4383372293
0.006744809305
0.4378626146
-0.006270194651
-0.4377710152
0.00576724459
0.437236616
-0.005232845345
-0.006932967598
0.8722807026
0.00446498797
0.004675873355
-0.004657188667
0.8715874406
-0.002336626
0.8711883145
0.8709448342
-0.00191407502
0.9619825818
-0.003816573407
0.9620887878
-0.005685536045
0.9620832787
-0.003830014361
0.9620566465
-0.003671880903
-0.4801026262
0.4805599771
-0.004287365316
-0.4798837297
0.004732652741
0.4803087736
-0.005157696639
-0.4796067635
0.005565917065
0.479993934
-0.003003429309
-0.002949658192
-0.2395483271
0.003202493807
0.2396351963
-0.003289363022
-0.2390134618
0.003525649777
0.2390842975
-0.003596485522
-0.2381084943
0.003786640832
0.2381640144
-0.003842160954
-0.2363026412
0.003964996564
0.2363160591
-0.003978414482
-0.2240531917
0.004042491812
0.2241856878
-0.004174987899
-0.2288002329
0.004241810142
0.2287938381
-0.004235415405
-0.2261651113
0.004207659224
0.2261489283
-0.004191476247
-0.2237305845
0.00411622166
0.2236963994
-0.004082036561
-0.2218006349
0.003952167425
0.2217482801
-0.003899812629
-0.2203593165
0.003716000649
0.2202893086
-0.003645992781
0.003410477626
-0.2193659586
0.2192761026
-0.003320621619
-0.4374217951
0.005990006165
0.4370120582
-0.005580269353
-0.4367534139
0.005142990518
0.4362855916
-0.004675168222
-0.006222474159
0.8703226153
0.003996160309
0.004184401139
-0.004188508013
0.8695534745
-0.002104352325
0.8691041588
0.8688404819
-0.001740184991