/*--------------------------------*- C++ -*----------------------------------*\
| =========                 |                                                 |
| \\      /  F ield         | OpenFOAM: The Open Source CFD Toolbox           |
|  \\    /   O peration     | Version:  v1912                                 |
|   \\  /    A nd           | Website:  www.openfoam.com                      |
|    \\/     M anipulation  |                                                 |
\*---------------------------------------------------------------------------*/
FoamFile
{
    version     2.0;
    format      ascii;
    class       volScalarField;
    location    "0.06";
    object      k;
}
// * * * * * * * * * * * * * * * * * * * * * * * * * * * * * * * * * * * * * //

dimensions      [0 2 -2 0 0 0 0];


internalField   nonuniform List<scalar> 
12556
(
36.90870042
36.90874861
36.90882244
36.90895346
36.95444407
36.9550736
36.9562136
36.95874761
36.96372262
36.97217711
36.98408831
36.99666827
37.00431155
37.00394218
36.99544128
36.98349399
36.97236416
36.96407072
36.95934046
36.95650135
36.91034434
36.90924328
36.90872277
36.90842337
36.72746963
36.72769122
36.72798
36.72858602
36.77432331
36.77753246
36.78414016
36.81629357
36.83915632
36.87816579
36.93420999
36.99642338
37.02450184
37.02551082
36.99856052
36.9448039
36.88996718
36.84908021
36.80205391
36.78595368
36.73308457
36.72982888
36.72822338
36.72739299
36.54740611
36.5479348
36.54867907
36.55013108
36.59724795
36.60530774
36.62103726
36.66844629
36.72337328
36.8145603
36.93219835
37.03176532
37.08261999
37.08437908
37.0396549
36.950912
36.83833806
36.74618532
36.66163375
36.62555892
36.56254851
36.55455703
36.55085906
36.54936876
36.36874314
36.36937249
36.37071517
36.37409599
36.42360696
36.44029664
36.47449464
36.5505996
36.66418364
36.83037176
37.00609957
37.15349249
37.2317746
37.228745
37.15276283
37.01953466
36.85741873
36.69887432
36.55318499
36.48348612
36.39886193
36.38453238
36.37738052
36.37458297
36.19199289
36.19296163
36.19548104
36.20200396
36.25628301
36.28621008
36.35099983
36.47407901
36.67490984
36.92086328
37.19152995
37.434359
37.56915051
37.55266939
37.4069082
37.18485879
36.94391198
36.71783962
36.49331067
36.36601355
36.24746559
36.21974994
36.20699747
36.202024
36.01673937
36.01819321
36.02252746
36.03384535
36.09667904
36.14732084
36.25926593
36.45280185
36.73551443
37.09992406
37.55047057
38.04629939
38.36713142
38.27850848
37.90807301
37.50464387
37.12278487
36.79288793
36.48850988
36.27849954
36.10841265
36.05977158
36.03865002
36.03032192
35.84404755
35.84654841
35.8540125
35.87205698
35.94644563
36.02485805
36.20098851
36.46668753
36.8513288
37.38763919
38.17361504
39.45443135
40.22049922
40.03824643
38.83351534
38.03217237
37.41130524
36.92937588
36.51490255
36.22546699
35.98109513
35.90496938
35.87183798
35.85884006
35.67496894
35.67883079
35.69026641
35.71796364
35.80765253
35.92118401
36.1726587
36.50463803
37.0076899
37.75732083
39.04590561
41.89901139
42.87216033
40.33731935
38.78649272
37.80757305
37.12307449
36.5720808
36.1993383
35.86807456
35.75647978
35.70750369
35.68849772
35.51193892
35.51801059
35.53523011
35.57612022
35.67988201
35.83705747
36.16465705
36.56214826
37.18527459
38.13719533
39.85200739
44.06403979
47.56869304
42.18561583
39.69239183
38.27944595
37.3571948
36.65044942
36.19431617
35.76886033
35.61648877
35.54845351
35.52225115
35.35617988
35.36463825
35.38809761
35.44314766
35.56506423
35.77028407
36.16873786
36.63036631
37.36119435
38.47078098
40.42921502
45.01226683
50.84822192
43.86463231
40.59620452
38.76419444
37.60397847
36.74045277
36.19996913
35.68455479
35.48830624
35.39877185
35.3642498
35.20983587
35.22164195
35.2531491
35.32565711
35.46386169
35.71759572
36.18060227
36.70311468
37.52665926
38.75692009
40.88009972
45.29491201
52.46619648
45.1111642
41.36275396
39.20026149
37.8371516
36.82975131
36.20977232
35.61347198
35.37394748
35.26227072
35.21871507
35.07275092
35.08753643
35.12636476
35.21544699
35.37388182
35.67467993
36.19574453
36.77539863
37.67939513
39.01230517
41.29114992
44.93833336
53.16759344
45.92476266
41.93574892
39.54898739
38.03432565
36.90827605
36.21989046
35.55603403
35.27415397
35.14103485
35.0882653
34.94582703
34.96444053
35.01339095
35.12064144
35.29189565
35.6353581
36.20657354
36.84375393
37.81740315
39.24689654
41.72932158
44.37633546
46.56289491
52.99522908
46.39052118
42.31025166
39.78994779
38.1815543
36.96832756
36.22634483
35.50439325
35.18772367
35.03456784
34.97329472
34.82658243
34.84863987
34.90637929
35.02806996
35.22590792
35.61932979
36.24540587
36.92609133
37.96852193
39.51041491
42.22219431
42.97776526
56.19783267
52.99804455
46.57979061
42.48348347
39.92825085
38.27729289
37.00797968
36.22404034
35.45310712
35.11019979
34.93961767
34.87087768
34.7132498
34.73850551
34.80407054
34.93894311
35.15418978
35.58162692
36.24844285
36.98712404
38.09429814
39.72351249
42.51508099
39.46035714
56.10921803
52.46617126
46.43106094
42.47989124
39.9671949
38.32375378
37.02042273
36.20754379
35.39924761
35.03604976
34.8511954
34.77641975
34.60180153
34.62998087
34.70227843
34.84918712
35.08082679
35.53394509
36.23665709
37.04255615
38.23213596
39.96554517
42.68700258
34.91634508
54.16198711
51.30860403
45.98858742
42.31557119
39.92455728
38.31734369
37.00843994
36.16900553
35.33479522
34.95792368
34.76343046
34.68390935
34.49120998
34.52191291
34.5994984
34.75629335
35.00193381
35.47350286
36.20137549
37.06258662
38.36641157
40.2397324
42.43532218
27.38087923
52.56499867
49.86201373
45.26301523
42.03458609
39.83880152
38.27286617
36.9586273
36.10639314
35.25915151
34.87475039
34.67272129
34.58956696
34.37821541
34.41101151
34.49266384
34.65757344
34.91503629
35.39860613
36.14254434
37.03026104
38.41777836
40.3855256
41.61689437
25.09555113
51.10476734
48.44093895
44.50888712
41.70084304
39.68377297
38.17096896
36.86553847
36.0154432
35.16649979
34.77973525
34.57542578
34.48988837
34.26414286
34.29852699
34.38279686
34.55311119
34.81893361
35.30915201
36.06121778
36.96234954
38.35741804
40.27815411
40.23257272
25.27043836
49.70716269
47.30947409
43.92018515
41.37720138
39.47246524
38.01964686
36.74130783
35.90217243
35.06014061
34.67529591
34.47078565
34.38439302
34.1452054
34.18074566
34.26678105
34.441143
34.71351728
35.2062061
35.96013465
36.86615352
38.24982804
40.01387654
39.02477149
24.81197157
48.40831038
46.4938655
43.42042523
41.04090225
39.23315194
37.83743352
36.59410198
35.77048232
34.94027862
34.55974221
34.35647055
34.26989695
34.02420196
34.06050054
34.14735695
34.32351529
34.59926477
35.09142581
35.84272257
36.74779929
38.10835364
39.68686046
37.89352976
24.38688104
47.19375956
45.74330213
42.94974123
40.70700127
38.98180027
37.63726601
36.43026422
35.62431128
34.80939652
34.43503298
34.23395764
34.14770301
33.89574883
33.93256768
34.02015269
34.19815488
34.47716586
34.96677287
35.71241988
36.61244044
37.9405071
39.3106405
36.8339215
24.15131959
46.0576982
45.04262204
42.50671176
40.38275102
38.72741449
37.42773084
36.25486575
35.46718182
34.66750168
34.29930141
34.10061535
34.01495886
33.7662239
33.80333088
33.8910966
34.06912073
34.34830997
34.83419584
35.57226417
36.46424915
37.75199058
38.90282864
35.85479538
23.97037898
44.9892425
44.38409828
42.08685418
40.07097824
38.47516066
37.2142649
36.07206292
35.3020521
34.51913199
34.15806446
33.96212429
33.87728579
33.62890571
33.666163
33.75429928
33.93332763
34.21414952
34.69551679
35.424758
36.30653077
37.54712374
38.48139381
34.95861604
23.77308821
43.97755207
43.76086212
41.68619912
39.7717364
38.22783425
37.00027238
35.88508995
35.13161515
34.36405355
34.00937601
33.81602203
33.73208962
33.49570382
33.53288776
33.6206212
33.79803008
34.07599043
34.55236517
35.27202488
36.14182598
37.32880614
38.05382496
34.14447222
23.53424375
43.01126351
43.16720077
41.30193158
39.4838907
37.98673875
36.78796523
35.69643885
34.95825325
34.20888505
33.86209219
33.67169657
33.58877063
33.35499925
33.39198687
33.47952387
33.65695332
33.93542577
34.40616459
35.11578938
35.97192374
37.09897945
37.62575371
33.4074089
23.25148796
42.08674027
42.59843796
40.93184005
39.20608245
37.752244
36.57870495
35.50796813
34.78402454
34.04970599
33.70911328
33.52119916
33.43920769
33.22455282
33.26116372
33.34760759
33.52145246
33.79341215
34.25811786
34.95738351
35.79801904
36.85954011
37.20174081
32.7394976
22.93813833
41.19951588
42.05095418
40.57408628
38.93713809
37.52429109
36.37331664
35.32101366
34.61022834
33.89461403
33.56185936
33.37661441
33.29550703
33.08216803
33.11840399
33.20437276
33.37804419
33.65112492
34.10917291
34.79776557
35.62087777
36.61278657
36.78499308
32.13281335
22.61040635
40.34420097
41.52164787
40.22700833
38.67602706
37.30258747
36.17222142
35.13637715
34.4375973
33.73251914
33.4039013
33.2203171
33.13985757
32.95538619
32.99120188
33.07602341
33.24527656
33.50851358
33.96003833
34.63764288
35.44107967
36.36094088
36.37723839
31.57976708
22.27347854
39.51807876
41.00807378
39.88916995
38.42186694
37.08675059
35.9755623
34.95436972
34.26595344
33.57753979
33.25545815
33.07370275
32.99378802
32.80619247
32.84172449
32.92645577
33.09708397
33.36617847
33.81112075
34.47746113
35.2590979
36.10605309
35.9794011
31.07341359
21.93224711
38.72020292
40.50827236
39.55930347
38.17383179
36.87627025
35.78312882
34.77474281
34.09506123
33.40830615
33.08738525
32.90630814
32.82667823
32.68195426
32.71721801
32.80127111
32.9676662
33.22293369
33.66239777
34.3173283
35.07530025
35.84969556
35.59192713
30.60763885
21.59015468
37.94948292
40.02043959
39.23632822
37.93110796
36.67045454
35.59432872
34.59686264
33.92409826
33.25492463
32.93994424
32.7600615
32.68070132
32.52009571
32.55525444
32.63963329
32.80908088
33.0795489
33.51357992
34.15702676
34.88985578
35.59282928
35.21480655
30.1771207
21.25352338
37.20421655
39.54364596
38.91922411
37.69275846
36.46838797
35.40834059
34.42023983
33.75351019
33.07585302
32.76014637
32.58046903
32.5011354
32.40277661
32.43782635
32.5219843
32.687497
32.93444814
33.36447087
33.9963583
34.70276133
35.3359182
34.84755215
29.77679199
20.9257325
36.48316485
39.07672822
38.60679397
37.45771081
36.26919095
35.22464118
34.24521891
33.58349882
32.93397167
32.62424101
32.44530766
32.36604333
32.2250682
32.26015404
32.34467997
32.51285136
32.7906386
33.2157433
33.83578579
34.51431864
35.07972422
34.48975677
29.40237659
20.61340358
35.78530212
38.61851419
38.29785745
37.22530823
36.07272251
35.04368991
34.0733721
33.41685273
32.74160007
32.43109965
32.25222523
32.17274786
32.12522654
32.16034532
32.24503245
32.41180019
32.64716497
33.06935302
33.67741626
34.32547453
34.82548552
34.14182837
29.05087495
20.31897597
35.10921786
38.16684304
37.99181871
36.99580963
35.87980735
34.8666748
33.9076574
33.25503676
32.62967551
32.3218099
32.14289956
32.06321894
31.89939931
31.93467745
32.01991316
32.18831137
32.51264668
32.92977672
33.52742237
34.13811216
34.5758725
33.8074799
28.72313701
20.03487891
34.45703858
37.72484277
37.69092638
36.77090384
35.69199298
34.69496772
33.75404277
33.10562564
32.3881224
32.08003119
31.90065727
31.82036589
43.89576954
48.1069836
43.25385116
44.92672426
51.73613891
48.56122576
45.3045766
53.42824321
52.03776828
45.00182576
54.11995968
53.54204366
44.41474219
42.19159791
45.54649513
54.43855506
54.16043945
43.4547758
52.56736061
42.56828753
55.77223271
54.95109146
54.46283846
41.51836315
40.18407132
42.75264135
39.95196566
51.95685116
44.92421818
47.04455434
42.62817408
40.91278192
40.30149818
43.95022319
43.11874727
55.90695941
57.86356318
50.54757447
44.72172353
43.19065817
40.77661547
44.53650979
44.04481001
45.21127003
47.12720647
48.11536924
54.77814556
54.20971986
52.33469371
46.23637007
45.15699557
41.20311839
44.64985313
44.5754641
45.20353703
43.47281426
45.4609597
56.29988296
55.42903162
41.63243122
44.47291315
44.64221068
44.70737292
38.77211552
41.16534843
39.8276783
57.16410694
56.91232042
42.13588036
43.97311109
44.43430384
44.06437964
32.80197571
35.55150566
42.01851435
54.37299731
52.94514286
48.2943607
50.17103505
44.00998379
47.86549384
57.78450305
52.29318306
45.99402645
51.25602449
56.4045052
48.24025015
48.96979168
44.59106116
49.63986469
48.30406609
50.31183586
49.79299372
54.29448499
55.69078259
50.34477224
56.77664859
55.86406714
56.60887697
56.87993305
50.09901106
45.65347542
46.95917756
45.25635949
46.59762649
44.75251197
48.21704464
46.71227241
55.26380081
54.8681881
52.962177
56.39765726
56.65630503
55.81701322
56.35238096
52.77527791
41.29838375
43.34981611
45.16048818
42.3948322
39.89513123
44.62902635
42.53324185
56.86873744
56.39421932
35.70438819
38.59839667
44.67360379
41.0004089
36.66347965
33.48086822
39.75189623
36.87158775
41.97185913
57.44582702
57.19420584
39.72663406
40.35869144
32.74711251
44.01678405
49.17039208
32.16729086
78.88841425
33.39349153
32.18077097
48.43624217
39.67449469
42.95744984
41.21031936
42.94377935
46.81145095
43.57691413
63.95861374
47.96762775
44.48904339
49.04816634
48.89714832
48.72365627
53.12779609
47.19364835
46.52070702
56.5859804
49.41002681
47.8116849
52.15790254
57.77764093
57.54274626
48.73773221
47.14216679
43.22728494
56.11723852
46.21984038
54.07405005
44.52468422
50.26271848
45.36040556
47.35926984
43.43682535
53.91042483
56.89078958
57.02131503
56.68874725
56.87447612
53.84069805
39.65746522
49.56811401
44.78867276
41.8110628
41.40977821
43.53392875
44.31899751
41.87063334
41.83083411
68.87482528
48.87388609
63.62485873
46.94119011
59.86826935
47.99920834
57.47200729
57.6129875
54.41544286
54.37859461
41.01543937
45.74334935
55.97639826
41.47762936
42.23954385
47.47911612
41.69341039
55.86533102
40.07229462
44.21247585
43.86220664
52.4163501
50.28002356
50.71902974
34.59562361
42.05564333
41.57192034
42.67423199
42.2301927
34.73229783
60.63329886
56.61095767
49.25671534
56.97254431
58.00426465
52.39734898
56.61871207
49.51080034
45.78233669
51.61803572
45.56703167
57.18316538
52.42292784
46.39374976
54.82113036
60.4544337
55.83732315
55.4457871
49.01261782
44.91872452
48.92666683
50.28561108
48.42934351
51.82315211
45.32506281
47.98621999
50.18136234
55.09739438
55.22281237
56.33540557
54.44134488
53.83917339
55.03320265
54.60674892
56.26317189
57.36991188
52.48072049
51.42868549
53.60820091
52.78939064
57.36661774
45.75682047
45.6374173
47.56330027
47.46813054
55.43303955
48.1513039
55.36181921
41.40697264
41.2358955
43.64250379
43.50003691
42.6571302
46.49323166
56.63919597
42.78695135
40.96102132
37.48567858
43.23667376
42.82038898
43.74236347
43.36720016
37.63403646
39.54782426
35.78903807
35.65270748
38.75060387
38.60857676
57.9456632
40.42157274
54.50171602
53.01812851
41.38742046
40.92857068
32.34776538
33.13697267
41.80244119
42.43215514
32.9688331
72.54066934
42.98559177
63.36986866
32.89700987
45.75517797
46.62864615
41.02112214
63.51520427
39.98016406
40.5584282
42.45596672
43.4860972
43.8720716
42.47074342
34.75627058
41.97561458
56.60439943
54.40462087
54.88977902
55.30370264
41.05281087
44.87123522
55.85406822
54.89984343
41.03675329
57.94240375
57.84441023
52.70452695
43.56080675
43.13259886
45.75414362
46.95791557
43.32616121
43.6806893
56.65207382
59.8377396
58.54611654
57.92992798
54.54452225
44.9246651
45.16001129
48.45426783
47.81779019
54.08949389
44.35604911
45.79379744
45.52705402
46.12588205
45.87950899
44.50052164
44.64976132
44.32367143
40.21118874
33.2240642
38.58184245
38.16312089
71.06723202
51.99266391
53.43406923
57.17692115
61.27004385
60.16798195
53.8241774
49.26616863
47.76510658
51.03498801
49.73676793
54.19743916
54.5969477
49.55508048
48.79411803
55.34009992
46.23847733
46.41720875
46.20330263
41.05104604
41.56813311
45.13857962
45.34503815
45.6260993
55.07253527
56.51978674
55.78849576
55.70357832
55.83975095
55.4262572
55.14476999
55.66682998
55.49521323
55.8525602
42.33591713
45.05549136
44.75391403
45.4351076
45.15275068
42.47356898
41.98085235
36.51866799
36.86064751
33.81628184
34.05854953
40.38451283
44.21700459
40.22225775
40.9068287
36.99738912
37.38547098
42.94732226
56.69838036
47.12157281
51.23357619
62.2381882
39.77214321
36.24512565
34.43104867
39.32621944
33.49600539
33.74109838
32.97949532
37.84295305
51.49645827
38.78695509
39.60875251
38.79847
38.02722083
37.6297945
32.5990162
40.97981665
41.68855852
51.16799894
32.12699905
90.72211412
43.59838067
41.86294052
46.1563633
33.22246802
32.28863661
57.15666499
56.52299017
55.96665089
48.84831743
48.73845654
40.0861932
39.90636624
56.91374771
54.01839864
53.90457544
49.28208131
60.01916417
49.450674
60.51015773
50.26529137
44.41223521
41.02494772
45.17907294
48.16223774
53.02783265
48.8264666
41.83754392
40.30703533
50.7500404
62.43226546
41.92271073
47.98798519
69.14741451
39.93588968
41.03734602
39.87627028
39.85098112
60.95301326
69.16682521
56.38918798
52.51012723
60.40989075
57.24488603
51.76351773
48.56569086
54.30077731
56.24538473
55.50440678
56.9413327
57.87917285
58.14540081
56.76283137
45.98428246
45.13376156
54.48021797
47.48730882
47.55027889
45.27588183
47.09793241
47.52957053
54.14151102
47.65231266
46.31403897
41.60252823
42.0713854
41.35556962
50.98217343
50.02746119
43.65113935
48.00649855
46.50744189
49.64876108
48.51207138
42.88025695
42.67085586
41.45385315
40.37227075
39.17107667
38.7058009
33.63025294
35.08302769
39.68908774
39.30226177
59.15627952
58.55683296
58.12604648
52.44174152
53.03497478
51.3910646
52.20718145
58.44175282
54.96616592
53.33894427
53.15340996
53.17666684
53.35046334
55.26372408
55.5050672
50.10966272
51.11285563
58.74767095
59.21978075
61.07360993
60.46393583
56.87314386
62.23607305
63.19817725
63.21854973
62.19279672
61.38706043
63.49581128
62.01956741
54.11445488
60.06964341
61.16397694
43.46351759
49.0770239
48.16172135
49.94234689
49.32509745
44.07149894
46.89913657
46.27526765
47.84430248
47.11425121
49.7857841
52.32422235
51.75143769
53.01383932
52.50750317
50.27094401
46.39100689
50.76019942
50.15045813
51.55538679
50.9608342
46.77766999
50.63422503
49.71017746
54.71689545
55.35505052
52.2111426
51.02218965
40.54303264
40.0388652
41.419855
40.72010403
39.23570853
38.74517612
39.87908512
39.38276222
45.28376451
44.69985559
46.07440336
45.48368148
43.53952194
41.87657141
44.48787544
43.90345004
44.26658849
43.72448175
46.07730427
44.69933516
48.48581201
43.83085493
44.81598916
43.59051146
43.54036233
36.06002888
36.38455244
41.84165456
34.21500004
34.00310944
34.51813409
34.30291173
33.89162552
40.5940837
34.16258247
35.74037433
38.2534352
39.94916934
44.0778746
37.84637312
35.48002864
38.64564752
37.89712258
34.89034855
34.61752065
35.31715882
34.99573334
43.08481467
37.52479105
37.99585758
53.01714195
41.56380044
52.0275299
47.48222898
51.72187877
41.25113684
64.64774798
39.66246584
62.27646384
54.67967051
36.12497431
35.04283084
33.20216759
33.42595725
39.18420339
38.09000188
32.98939857
33.14869178
57.64478773
32.56580529
37.44220863
36.76038588
73.73674839
80.7255098
32.06603244
84.80331548
64.75093416
41.62620746
33.15791597
72.02995963
46.5581889
82.96419742
48.85339316
32.41042734
42.42274888
40.38364281
39.0755868
55.7150226
55.27000145
53.61943851
47.73589205
47.36199421
55.68510289
40.73157477
41.04851939
39.83250591
57.0333044
57.03536499
54.30416492
45.72020444
45.11976029
48.53697053
54.56244403
45.61987569
45.8067746
41.34061749
41.68544951
44.10859318
50.53582204
54.39994705
57.27117688
47.58662288
46.80329634
46.69537873
46.86918468
46.82849552
47.72680112
43.76756713
42.03942352
41.29158982
51.92154968
53.57077961
57.06421635
40.18149287
39.81077537
35.19865507
58.10953654
59.81442494
53.70889022
46.64744641
46.48107535
46.42495187
46.23858275
43.13550376
43.78692186
44.1040649
45.07954708
47.05557205
36.53890155
40.69310561
40.30337719
47.94367849
45.58182989
40.39443353
32.55342205
32.59290059
33.62519151
43.86959038
58.95262531
52.59886418
39.63769563
46.56924819
44.32097845
32.14591843
33.33368419
32.50646529
32.53211254
32.20416874
64.57087087
48.5264971
42.35202732
43.90562338
55.79498404
40.19130018
40.51389121
49.69798582
55.34127575
47.24420967
45.63324315
47.72571753
45.76414342
40.64994061
40.17772487
65.89297796
68.49899744
70.23494765
58.85296746
67.13031229
43.01892082
43.31966214
46.24875071
65.66037908
60.69362603
58.03540642
68.63889713
65.68265754
41.14459064
43.83901629
42.84234109
49.99291514
49.36985305
43.60778871
52.1437244
51.31132188
41.41611295
47.76855004
42.15892287
42.43394553
46.49831651
40.47731895
41.13323849
60.31123651
61.11244332
57.29852475
57.3773388
56.1810576
56.0208495
53.00039101
54.07937148
53.67260995
55.8334359
55.59817208
56.15552072
48.55972739
49.7794464
54.95931053
56.39662359
62.2393924
58.36971906
62.33726637
62.7018004
59.77784198
41.74561288
44.03077096
43.48724746
47.84537856
47.59741797
44.66949923
41.30166854
41.05193338
43.0324178
42.66892508
48.87522626
51.17036322
50.82244203
53.29594947
52.93579262
51.2846407
45.63637509
48.48542608
48.19289655
50.4729861
50.13216504
47.57242949
42.4273321
42.95348652
46.1220481
45.26062956
41.73477556
42.25538366
46.04499248
46.56455881
47.85069881
39.61039676
39.45765579
40.8352304
40.63935367
37.22219304
39.23103503
39.10468549
47.15870744
45.32058103
45.86499841
47.92877733
47.65677132
42.84363056
43.22890099
47.97339543
47.62968652
48.10366935
55.14280683
45.7950728
47.14195207
41.18021279
40.81796754
36.87629939
38.03575007
41.61546184
41.28848115
33.77982669
33.84446925
35.89795861
35.52269477
33.6079827
33.69774504
58.11570096
32.41495775
33.45262109
32.74239643
110.1593892
32.45316837
41.65310266
59.32628278
52.38104894
32.25862632
32.29204314
33.02750499
70.92785348
76.94489947
74.27138356
56.80189675
32.82047385
32.20488958
32.23182568
42.43658866
40.57728828
39.97205686
55.55847174
54.8152436
45.40126745
43.94851081
40.29653614
56.71587682
57.22979859
60.84684555
41.99154291
53.83896292
48.97335949
54.16202633
53.08503587
43.18884655
44.61848743
45.41194923
50.23482395
54.07778202
54.47312112
53.46446386
53.76616155
59.45851939
58.66696849
58.97609391
58.0169895
58.33643875
58.9739099
48.23308051
47.70607875
47.97497248
47.30144437
47.47519938
48.1792034
60.81110252
59.70894465
59.73347242
59.27992163
59.53747565
60.4873472
49.14125221
48.82938181
49.13183001
48.24746166
48.53582903
48.92396251
52.73931424
52.89606278
51.997835
52.18354942
36.61161367
38.94439993
38.81343718
33.90715274
35.57021069
35.46998567
35.89559164
35.69148197
33.98796896
59.3079917
60.76384432
53.49832156
60.31336003
32.94522744
32.89878114
33.05989642
33.0110195
32.6375381
33.90882837
32.644235
32.77759887
33.58362829
35.21812046
35.12558777
35.38643539
35.30093231
33.65733863
33.18840534
33.11526438
34.00334086
33.34674384
33.04826434
60.12342195
58.06105864
46.54298242
60.66976888
34.88549649
33.98149126
39.53840228
32.66104965
34.36492221
34.22773724
32.11931248
89.26797036
90.48752197
63.66115455
81.02419745
70.7422348
32.42808296
32.47367932
33.28375608
32.24237699
61.65328888
67.4424075
61.87506104
64.35744583
59.82456095
51.23586078
66.1351841
60.72562119
49.27951438
49.07873297
57.00712177
45.88749354
49.9375445
54.94996352
52.01786034
56.91101102
51.48412262
54.75678803
61.83821028
63.35950494
55.73112089
60.63000087
64.51616134
52.7618278
54.10782288
52.03825654
56.12693804
65.52948832
65.62625222
63.49506132
43.32629081
57.33406684
51.06945642
64.10318257
65.30650559
45.59118758
48.76910123
52.71579611
67.75526879
55.52210186
44.03661872
45.81270702
64.7747315
61.15797289
65.2186296
59.2194881
62.09973705
64.78515554
66.24049784
65.60330367
55.67771655
55.96870965
56.29663665
55.19241814
55.40883228
55.36762463
57.64963339
57.35345958
57.67883372
56.67224421
56.99589462
57.21338528
45.68898516
48.0190486
47.99213981
47.42510619
47.60166881
45.91857336
47.72991361
47.40500751
47.01766243
47.95056966
48.32365573
47.04448139
47.37787318
47.26036133
47.90288314
47.67831876
46.62171742
49.53662446
46.20005588
41.31938387
50.91234151
50.85573636
50.57621843
42.74040034
49.64331409
49.16172098
41.93856392
41.99115702
45.31421274
59.78654617
57.87301001
54.91217054
54.50544703
53.58108556
55.82018051
55.39804541
55.11610855
63.47355708
63.17260327
57.79548502
63.88867017
66.05974934
59.64354322
63.24371347
63.44013666
60.89625613
59.61574245
59.53746547
59.63823264
59.65737027
60.67482762
62.65516187
62.8652196
62.06494798
65.27463111
65.17867402
65.17250041
65.28805059
61.9201106
63.68606264
64.6173724
66.55445196
63.742101
46.40956756
46.24181706
43.42164508
44.23444501
47.20306923
47.02867735
41.81094357
41.54550261
42.36454842
42.07795534
51.8702945
51.51701595
49.31213111
50.77275802
52.58073928
52.22527106
49.13570938
48.82404756
46.04569213
47.15132869
49.79065564
49.46581331
50.42339241
50.07439598
50.40098121
49.43643255
49.75664928
50.0048806
51.72335167
51.28357785
51.52608478
50.72478137
51.02637453
51.43377061
40.36905056
37.42896253
37.58662272
37.1445798
37.29039846
40.20498048
41.12945417
38.10859273
38.34336536
37.74238321
37.91824798
40.91225959
39.05993726
36.31180869
36.46241049
36.06604851
36.21320322
38.93145121
39.71193265
36.86217592
37.01024971
36.57773272
36.73259705
39.55546402
40.00714663
39.83220183
45.09035558
42.95893004
43.15399137
42.55718579
42.73516745
44.88719118
40.41743709
40.22606633
38.41954227
38.31708753
43.26117021
41.18140069
41.2514937
38.68974862
39.17215687
42.53782221
44.31199688
42.16977465
42.31703938
41.77690607
41.8821304
44.07106378
38.85925969
38.76280474
47.24485937
47.21093433
47.99240839
43.90344336
45.23624273
44.10133167
47.48658435
47.71952361
47.4338333
47.49691291
44.48172453
43.45246028
45.45377129
44.3470163
47.1214527
47.15158419
43.43459073
36.12943236
38.3612965
38.22866523
38.66162022
38.54000131
36.30803796
34.1595213
34.05526016
34.44918213
34.35624097
33.85895976
33.81740936
34.37044724
36.97617102
36.29198487
37.94136484
37.67116331
35.45354301
36.17878848
34.74128106
35.40386376
35.74508639
38.41828197
35.82320375
35.98545311
35.54132829
35.74942109
38.34260329
34.80156861
34.69820895
35.20256367
35.09138928
51.21195204
42.17968767
43.03986588
40.9266102
41.45183244
51.80910712
50.71907618
50.28185527
44.1527313
46.90160974
52.13500336
60.90865846
46.12249434
48.6204846
42.1483491
44.06593245
61.95052025
32.76590413
32.7118408
32.85162587
32.81527602
33.18375571
33.47256285
35.30346602
32.52965471
32.49041507
32.65810798
32.59718166
33.27983547
34.85897226
34.75483233
35.0400439
34.94183433
33.34198403
33.04357371
34.47195779
34.29038497
34.67655748
34.55952418
33.08637486
56.88904221
34.12976083
33.87521508
32.41256148
72.17989979
96.66041004
102.1261485
96.43017806
97.20775079
77.18136637
32.23111826
75.78915818
54.82609704
59.04624949
33.08965977
32.31908726
32.37996241
71.9421056
80.2662697
78.06776328
63.7882365
70.34259063
85.47046949
80.56862408
52.54722681
76.0993346
66.50945686
32.39965495
32.16792673
32.59579804
36.70315433
36.73475046
36.83179144
36.74804145
36.80238224
36.86616004
36.82331277
36.90180303
36.91814143
36.92634789
36.99769482
36.97936216
37.01643479
37.05636571
37.01999084
37.06220475
37.06706645
37.02741532
37.06419015
37.03848391
37.01079427
37.02476488
36.96673911
36.96072393
36.9447108
36.86730139
36.90316939
36.84475723
36.78302325
36.858284
36.57666075
36.64275234
36.70688436
36.67192765
36.78149533
36.78891376
36.82014719
36.94037935
36.9045285
36.97907804
37.08403441
37.01098597
37.11213865
37.17200642
37.07603823
37.18288618
37.18778071
37.08778981
37.18087727
37.1361977
37.05512127
37.11421258
37.02835899
36.97593134
36.99483545
36.88522531
36.86700542
36.84757505
36.73671048
36.76476013
36.48909785
36.6185638
36.62943599
36.66801911
36.83145855
36.7870243
36.89010627
37.07170806
36.96317253
37.13168529
37.29809102
37.12207162
37.34378375
37.44546538
37.21861399
37.46241674
37.46922602
37.23532206
37.44912861
37.36207098
37.17832826
37.32434662
37.18495532
37.05661785
37.13213421
36.96858101
36.89926876
36.91432657
36.75865122
36.73740384
36.45297332
36.64319582
36.61981228
36.71448076
36.9556716
36.85574643
37.04515641
37.33812491
37.12375228
37.44063836
37.75591036
37.37949868
37.84772258
38.07600624
37.54598956
38.10356798
38.10080137
37.56188519
38.02594455
37.82885191
37.45384521
37.75067596
37.49514111
37.2448465
37.40687536
37.14979811
37.00370768
37.06819903
36.84099487
36.77287798
36.4607305
36.71787555
36.65772917
36.81800597
37.16960134
37.00063421
37.30626082
37.79374591
37.43060481
37.98784434
38.70611184
37.91845117
38.97654307
39.85338363
38.31109608
39.8839068
39.65705447
38.29270024
39.3085681
38.74693697
38.00675239
38.55405425
38.03394548
37.60601469
37.87718445
37.45482514
37.21352465
37.3284538
36.99014265
36.87114746
36.49320742
36.83171718
36.74316362
36.96617621
37.45786226
37.23548858
37.66057298
38.45603776
37.9433256
38.81784721
40.89258544
39.04899041
40.15697
40.75033402
39.74845399
41.3831548
41.41836264
40.2194743
40.83241281
40.16590584
39.68823763
39.91146657
38.85414621
38.21302837
38.57723086
37.89047104
37.55225588
37.69844193
37.20854578
37.03823547
36.54604009
36.97002937
36.86409757
37.1404056
37.77675087
37.53691347
38.04610612
39.14907138
38.63861179
39.26940307
39.83199347
39.55759557
42.27073681
42.9144557
42.43753339
44.66334164
43.31151151
42.00266538
41.7241792
39.89685145
39.10054347
39.45908428
38.4319562
38.01914964
38.15791808
37.48132198
37.27257945
36.61278725
37.11606417
37.00662355
37.31802425
38.07286892
37.85341854
38.39246043
39.6926263
39.29977122
40.01453897
40.73639672
40.54509026
44.22057948
45.33459452
45.15667332
49.03055376
46.37870566
45.2593593
43.48426525
40.9708604
40.17104826
40.37674065
39.00384473
38.57502989
38.64564498
37.77640871
37.55429591
36.68508315
37.25816323
37.15214031
37.4866081
38.3336951
38.14120564
38.68906391
40.11511299
39.80626989
40.550921
41.34685806
41.21007407
45.08830565
46.37220677
46.34696131
51.61282599
48.57001646
47.87327974
44.84622361
41.89716087
41.22335707
41.18431986
39.52964103
39.14336144
39.09827401
38.05871437
37.84819833
36.7586067
37.39213625
37.29230773
37.64295733
38.56640023
38.39386552
38.95123873
40.4863795
40.20899176
40.99081113
41.84731648
41.71845414
45.27320962
45.79955135
45.97182061
52.82038933
49.81094309