/*--------------------------------*- C++ -*----------------------------------*\
| =========                 |                                                 |
| \\      /  F ield         | OpenFOAM: The Open Source CFD Toolbox           |
|  \\    /   O peration     | Version:  v1912                                 |
|   \\  /    A nd           | Website:  www.openfoam.com                      |
|    \\/     M anipulation  |                                                 |
\*---------------------------------------------------------------------------*/
FoamFile
{
    version     2.0;
    format      ascii;
    class       surfaceScalarField;
    location    "2.29";
    object      phi;
}
// * * * * * * * * * * * * * * * * * * * * * * * * * * * * * * * * * * * * * //

dimensions      [0 3 -1 0 0 0 0];
oriented        oriented;


internalField   nonuniform List<scalar> 
25162
(
0.0004806013901
0.9161693986
0.0006377660902
0.9165428353
0.0008057559371
0.9164820102
0.0003973188606
0.9164743377
0.0005840993711
0.4583367272
0.0004105916155
0.4582836178
0.0005243737962
-0.0005079915683
-0.00065665445
0.4582497531
0.0007569013462
-0.0008556887316
0.4581927456
0.0009979431361
-0.001151439373
0.4581667827
0.001314656703
-0.00149335365
0.4581516683
0.001676685332
-0.001851571263
0.4581736888
0.002012882474
-0.002156444028
0.4582336522
0.002254291848
-0.002308867804
0.458328607
0.002313760798
-0.002264967727
0.4584281773
0.002171790408
-0.002044127138
0.4584861605
0.001887966584
-0.001724095119
0.4585041283
0.001554966803
-0.001378261493
0.4584929033
0.001220358168
-0.001069372808
0.4584855004
0.0008988723655
-0.0008299626171
0.4584512883
0.0007286742608
-0.0005944850125
0.4584600061
0.0004844789242
-0.00181766998
0.918608964
0.0002875393266
-0.000428833302
-0.001138926961
0.918671257
-3.216309728e-05
0.9157432361
0.9137678369
0.001325023138
0.9148443755
0.002177957379
0.9156899011
0.002649181912
0.9160107856
0.0009745169181
0.9166709853
0.001478017398
0.4579303446
0.001169743546
-0.4581255712
-0.4580811948
-0.001437388379
0.4577499559
0.001768627315
-0.4578961969
-0.002172188889
0.4574179177
0.001241399566
0.001409068522
-0.228872121
-0.001486372859
0.2287499597
0.001608534124
-0.002108269493
-0.2288035795
0.2286468991
0.002264949888
-0.002856990911
-0.2287693561
0.2285809288
0.00304541818
-0.003651981698
-0.2288111716
0.2286246059
0.003838547418
-0.004308706734
-0.2289433581
0.2287933924
0.004458752997
-0.00467409794
-0.2291464379
0.2290901658
0.004730234152
-0.004573196594
-0.2293221854
0.2293859091
0.004509472958
-0.004096125313
-0.2294272727
0.2295840314
0.003939366526
-0.003396872777
-0.2294662439
0.2296668394
0.003196277298
-0.002642451067
-0.2294455258
0.2296407418
0.002447235056
-0.001969828542
-0.2293928482
0.2295557716
0.001806905151
-0.4588579397
-0.002653755074
0.4602632844
0.001248410395
2.818368883e-05
0.4608897175
-0.001684626268
-0.4592332749
-0.00201363578
0.9179892129
0.0007413875453
0.001891999317
-0.001245618716
0.9179032399
0.000229496411
0.914268121
0.9139973333
0.001703660521
0.913140715
0.004475735889
0.9129178257
0.007593619012
0.9128929025
0.003373394458
0.9140088953
0.006882314535
-0.4577691713
0.4574531032
0.003689462528
-0.4573990022
-0.00384963544
0.457836523
0.003412114634
-0.4567625365
-0.003744692174
0.456239365
0.002061231555
0.002206632157
-0.2281552474
-0.002521731577
0.2278946565
0.002782322464
-0.227877421
-0.003696145147
0.2275321998
0.004041366371
-0.2276989445
-0.005249507388
0.2269440167
0.006013876055
-0.2272483605
-0.008760354777
0.2263920229
0.009659299688
-0.2277607306
-0.01201497454
0.2271990798
0.01260734377
-0.2290279975
-0.01363004825
0.2289839163
0.01366825812
-0.2303483945
-0.01288035852
0.230875285
0.0123153602
-0.2308707339
-0.009992637252
0.2317507599
0.009073806343
-0.2305316295
-0.006387667592
0.2310056373
0.005911867758
-0.2304545655
-0.004799989983
0.2308146904
0.004439865085
-0.003180173207
-0.2302793653
0.2309502708
0.002509267711
-0.4628512901
0.0006840913717
0.4616278542
0.0005393445232
-0.4599402729
-0.0007373892006
0.4598718215
0.0008058405292
-0.0004391829678
0.9195105779
-0.0006643354166
-0.0004178466054
0.001227524017
0.9162365329
0.0005617695857
0.9149338754
0.9145591029
0.000724867257
0.9124158477
0.001598161559
0.9120445314
0.003183204891
0.9113078592
0.00383447771
0.9105290401
0.002828582405
-0.4565134567
0.455890721
0.004457213346
-0.4591350923
-0.005896194893
0.455814606
0.009216681154
-0.4573543975
-0.01079993619
0.4585253439
0.003126951739
0.006502037995
-0.2269290988
-0.003334038314
0.226597567
0.003665570122
-0.2259488648
-0.00523180663
0.2245784941
0.006625800945
-0.2231341688
-0.01156070183
0.2214702716
0.0133292669
-0.2227896623
-0.01854272892
0.22128236
0.02015869666
-0.2248129175
-0.02430229923
0.2237975517
0.02537410266
-0.2286487608
-0.02738052335
0.2284376579
0.02757541371
-0.2329182049
-0.02657381061
0.2337104923
0.0256978677
-0.2355492659
-0.02165649954
0.2371517326
0.01993456442
-0.2350284938
-0.01419392601
0.236899225
0.01223069018
-0.2344599083
-0.002155785023
0.2387203109
-0.002108726894
-0.003162707115
-0.2318015214
0.2318064381
0.003157790409
-0.4615457663
-0.004625471767
0.4626610548
0.003510183281
-0.4605268252
-0.002391553619
0.4614267739
0.001491604837
0.002181980719
0.919186056
-0.001005410507
-0.000852048361
0.001564689361
0.9168538243
0.0007089441669
0.9157896206
0.9152680471
0.0003110554426
0.9121047923
0.0007326147566
0.9116229721
0.001436047269
0.9106044267
0.001978858563
0.9088896279
0.001096600856
-0.4554186893
0.4544405143
0.002957033571
-0.4540875109
-0.003628162712
0.4531488727
0.004566800908
-0.4519942675
-0.00581466458
0.450753858
0.003663668192
0.003391405948
-0.2267998269
-0.00579988354
0.2246525323
0.007948808745
-0.220091339
-0.01516569828
0.2202367745
0.01514770457
-0.2156448467
-0.01847826974
0.2136002055
0.02070668853
-0.2161663431
-0.02716419806
0.214354498
0.02911928984
-0.2201669603
-0.03425600726
0.2187795799
0.03570324402
-0.2273364657
-0.03890381922
0.2267607056
0.03946012948
-0.2361471032
-0.03904515779
0.2370977348
0.03799463462
-0.2427184828
-0.0318851335
0.2449269958
0.02950335786
-0.250375966
-0.01507880136
0.2493269723
0.01594225198
-0.2384537949
-0.01196017162
0.2406886861
0.009622961121
-0.004633053636
-0.2331332132
0.2336446935
0.004121573292
-0.4642040163
-0.005230119731
0.4656552198
0.003778916247
-0.462250957
-0.002777325125
0.4630849545
0.001943327643
0.002765749596
0.920680261
-0.002466365675
-0.00179358889
0.001436861706
0.9181827122
0.0006312891676
0.9165951932
0.9158993362
-4.975960672e-05
0.9121545519
5.501430008e-05
0.9115181982
0.0005113810187
0.9101480599
0.0007420673949
0.9080051647
0.0006537768861
-0.4533747923
0.4528560701
0.001260789686
-0.4523291785
-0.002462339705
0.4512664467
0.003525071559
-0.4494521618
-0.004455122641
0.4479579587
0.002979079021
0.002970246725
-0.2199386153
-0.00471246636
0.2182786658
0.006439502591
-0.2103792123
-0.01296205307
0.2081516993
0.01539706234
-0.2093476787
-0.02490865012
0.2056842027
0.02879751001
-0.2111493581
-0.03526632549
0.2108408713
0.03570333903
-0.2144948505
-0.03928105072
0.2142331989
0.03957179971
-0.2240932525
-0.04454227327
0.2229368811
0.04569482003
-0.241246361
-0.04349765504
0.2414931998
0.04319408196
-0.2574245716
-0.03275386274
0.2553879265
0.03461603119
-0.2538629242
-0.02912975358
0.2567812007
0.02597522621
-0.2484841022
-0.01644146823
0.2513360238
0.01339975807
-0.004981168981
-0.2367498233
0.2381727329
0.0035328279
-0.4668736362
-0.005158695445
0.4680715104
0.003960821283
-0.4635140681
-0.003100625142
0.4638813571
0.002733336166
0.001987097562
0.9224712536
-0.001776958253
-0.002001131902
0.0009884740936
0.9191813356
0.0003561021341
0.9172275651
0.9162554384
-0.0005936363066
0.9127481882
-0.001012892793
0.9119374547
-0.001193200981
0.9103283681
0.0001143577963
0.9074620328
-0.0007644269221
-0.4525866476
0.4521294102
0.0005715952555
-0.4499541423
-0.0009811025309
0.449361898
0.00157334676
-0.4471734101
-0.002817028535
0.4463570969
0.001771475937
0.001862792023
-0.2134916315
-0.004399506372
0.211895474
0.006121787947
-0.2011426814
-0.01236959411
0.2004450614
0.0133276216
-0.1994630339
-0.01964994212
0.197954254
0.02138339823
-0.203541496
-0.02668034729
0.2013892122
0.02890837738
-0.2063862638
-0.0447267084
0.1045750236
0.09874071937
0.02172405732
0.0260731719
-0.03204096211
-0.1088160327
0.1082472773
0.0326097175
-0.02587631399
-0.2511254834
0.04889184868
-0.02627145687
0.1267833588
0.1275980468
-0.04105492381
-0.2596220641
0.2626312745
0.03793107914
-0.2659937159
-0.0271091614
0.2680383044
0.02481641214
-0.2591011674
-0.01770720081
0.261853882
0.01471104648
-0.006893458736
-0.2439217359
0.2458678841
0.004853901475
-0.4692299271
-0.003980296838
0.4698275881
0.00338263588
-0.4646830188
-0.002414133096
0.4654584762
0.001638675712
0.0005791940453
0.9235860075
-0.0007143031685
-0.0009796447738
5.822926497e-05
0.9197023004
-7.270810832e-05
0.9173585025
0.9161827303
-0.001194593225
0.9139427814
-0.002308230114
0.9130510916
-0.003177509163
0.9111976472
-0.001574736313
0.9081733752
-0.002314115235
-0.4520465636
0.451987354
-0.001515526733
-0.4490378503
0.001505304439
0.4488548086
-0.001322262706
-0.4445538491
0.001060305227
0.4436745751
-0.0001126324056
-5.397887995e-05
-0.2080076657
-0.00167243166
0.207121198
0.002715690584
-0.1954940402
-0.006699858858
0.194411895
0.0080567031
-0.1945115996
-0.0122908074
0.19345141
0.01356891187
-0.1983866476
-0.01628320366
0.1980069157
0.01668872127
-0.0901059397
-0.01074262077
0.08987674797
0.0109718125
-0.0327760825
-0.1407209585
0.1436489591
0.02984808181
-0.03596248621
-0.271849147
0.2750622266
0.03268854538
-0.2763364399
-0.0237020229
0.2789282505
0.02086981561
-0.2696035661
-0.01294936541
0.2717358233
0.01054618381
-0.006164833039
-0.2508986125
0.2525493069
0.004376629606
-0.4707860467
-0.00173716249
0.4715275244
0.0009956847967
-0.466044195
-0.0005102642396
0.466498583
5.587627688e-05
-0.001540356158
0.9238283206
0.0009225081874
0.0003755348918
-0.00123964756
0.9194015918
-0.0006674707701
0.9167863257
0.9155152595
-0.001809635021
0.9157524164
-0.00354104621
0.9147825028
-0.005337574445
0.9129941754
-0.003111229194
0.9098094249
-0.003862394888
-0.4522414013
0.4524874174
-0.003357245304
-0.4489320758
0.003658449676
0.4492279351
-0.003954309018
-0.4432454995
0.004259015585
0.4431481968
-0.001882087487
-0.002248454456
-0.2047085633
0.0008890816486
0.2040137756
-1.515320266e-05
-0.1913406134
-0.003248802827
0.1904987805
0.004382620873
-0.1918389342
-0.007125324309
0.1915479829
0.007634610242
-0.1991783985
-0.007285648238
0.2000247268
0.006451041713
-0.09363400164
-0.001174779903
0.09431202149
0.0004967600445
-0.01456427347
-0.1567905949
0.1573102337
0.01404463463
-0.02000857015
-0.2817236079
0.2827424483
0.01895463977
-0.2845623479
-0.01502728188
0.2858429421
0.01350823319
-0.276885796
-0.00849475603
0.2781865599
0.006902791651
-0.002508923756
-0.2560479
0.2570495283
0.001349031427
-0.4725071623
0.001262695536
0.4732714414
-0.00202697467
-0.4666429651
0.002283553456
0.4666530445
-0.002293632836
-0.004045882555
0.9227747961
0.002787811478
0.002311595547
-0.002795257478
0.9181509668
-0.00143253946
0.9154236077
0.91408272
-0.002388508391
0.9181409248
-0.0049017393
0.9172957337
-0.007387976653
0.9154804128
-0.004651501029
0.9124802743
-0.005407325075
-0.4530512496
0.4536148223
-0.00521507369
-0.4496928352
0.005882188381
0.4504656638
-0.006655016953
-0.4433145291
0.007455804089
0.4436820147
-0.003662047101
-0.004112884012
-0.2022918806
0.00290639815
0.2017505384
-0.002168991448
-0.1884093813
-0.0005371655154
0.1878329758
0.001421268443
-0.1912383896
-0.003219056649
0.1913322741
0.003347949461
-0.2030905915
-0.001752263154
0.2042066448
0.0006430754226
-0.09784857596
0.001524020186
0.09823753228
-0.0009367042916
-0.0009762722019
0.003821132191
-0.1544597869
0.1534189759
-0.002780321236
-0.001712381157
-0.2830570556
0.2822316949
0.002499351364
-0.2883257877
-0.002767839471
0.2885260484
0.002322514821
-0.2809170941
-0.0002292852422
0.281385692
-0.0005368511742
0.002314733592
-0.2582194173
0.2583773721
-0.002633214011
-0.4730744067
0.005415638329
0.4724305746
-0.004771806149
-0.4663139896
0.004485531624
0.4664927978
-0.004664339884
-0.006760909422
0.920393622
0.004876468954
0.004265614558
-0.004448360621
0.915838418
-0.002243843411
0.9132190905
0.9118388766
-0.003033613156
0.921174538
-0.006087334841
0.9203494554
-0.009348938959
0.9187420169
-0.006110500322
0.9160711181
-0.006829282385
-0.4544682592
0.4553221423
-0.006964383417
-0.4513838898
0.00800704584
0.4524289728
-0.009052128815
-0.4443946419
0.01027352559
0.4452783057
-0.005404251569
-0.005679429051
-0.200286969
0.0045219463
0.1998335309
-0.003853131319
-0.1863682168
0.001459161411
0.1859522593
-0.0007189759348
-0.1919669619
-0.000504976356
0.1922804479
0.0004174355878
-0.2075718935
0.001781600308
0.2086887106
-0.002895737215
-0.1005488677
0.003016979707
0.1008230734
-0.00162996341
-0.001661221957
0.01362087649
-0.1444142694
0.1430060074
-0.01221261454
0.0120388814
-0.2786303356
0.277392133
-0.01086810264
-0.2886022209
0.01029794088
0.2863612782
-0.008313183742
-0.2816381773
0.007775950977
0.2811509807
-0.007588783627
0.006765328643
-0.2567466937
0.2561472921
-0.006310900589
-0.4714594713
0.00932632115
0.4702032596
-0.008070109471
-0.4665476474
0.006933551185
0.4655032078
-0.005889111553
-0.009246561805
0.9168969096
0.006581545566
0.006161728618
-0.006035422919
0.9126272791
-0.00297602953
0.9101596971
0.9088628471
-0.003603204904
0.9247777429
-0.007267194155
0.9240134446
-0.0111416439
0.9226164667
-0.007387557979
0.9201175134
-0.007800481272
-0.4564020861
0.4574705232
-0.00845599506
-0.4537265801
0.009712505006
0.4551079722
-0.01109389717
-0.4459807682
0.01263037488
0.4473823632
-0.006480827505
-0.007446775567
-0.1985064868
0.005488610062
0.1980450226
-0.004790622139
-0.184876016
0.002461407112
0.1845687081
-0.001813467146
-0.1935072412
0.001037033295
0.1940300149
-0.001332706443
-0.2120781804
0.00426137003
0.2132387481
-0.005421681113
-0.1026435129
0.004360929001
0.1029134595
-0.00229559522
-0.00233528029
0.01688993317
-0.1335107185
0.1321525832
-0.01553179778
0.01972057661
-0.2732694656
0.2722873432
-0.01885371713
-0.2843118598
0.01449862598
0.286370297
-0.01684092907
-0.2788389163
0.01688226842
0.2778198904
-0.0161524501
0.01057055025
-0.2521142858
0.2504530635
-0.009023203777
-0.4687084355
0.01256924977
0.466981651
-0.01084246528
-0.46440247
0.009313917584
0.4630679373
-0.00797938493
-0.01145823704
0.9141221633
0.007329243149
0.00690374028
-0.007413898156
0.9085829402
-0.00361276826
0.9063585672
0.9052500789
-0.007779709618
0.9325574525
-0.01577620756
0.9320099426
-0.02395490085
0.93079516
-0.008636756247
0.9288754401
-0.02407607127
-0.4587961922
0.4600976484
-0.00993821237
-0.4565501483
0.01139446655
0.458194865
-0.01303918325
-0.446626303
0.01473318536
0.4452404866
-0.006316569262
-0.006850640595
-0.1970752905
0.004004170528
0.1959437631
-0.002609609404
-0.1837511282
0.001875437128
0.1839840488
-0.001753440553
-0.1959275865
0.002795346629
0.1953926251
-0.002031443788
-0.2168562183
0.005701680078
0.2181166216
-0.003481288039
-0.003480795311
-0.05265634667
0.002817545371
0.05274798224
-0.002909180939
-0.05812741593
0.006331407969
0.05762428236
-0.01229721646
0.00646894207
0.01506950955
-0.1241129199
0.2445031347
-0.02602758484
0.01462719999
-0.1240593395
-0.2692343934
0.02367208082
0.2700120825
-0.02462069287
-0.2838598099
0.02202017401
0.2824747026
-0.02095080327
-0.2739153978
0.01746604783
0.272258081
-0.01608764137
0.011326983
-0.2434810617
0.2416350939
-0.009544884858
-0.4649388489
0.01474941325
0.4628971834
-0.01270774776
-0.461681334
0.01111790568
0.4601980915
-0.009634663097
-0.01321315804
0.9101264816
0.008835657987
0.008373181807
-0.008535378607
0.9039051608
-0.004206479233
0.9020296679
0.9010435996
-0.004274975781
0.9368324283
-0.008688344005
0.9364233108
-0.0133858222
0.9354926382
-0.009169849545
0.9340294742
-0.009370006705
-0.4634486984
0.4648270819
-0.01054823305
-0.4616243396
0.01209157482
0.4632983824
-0.0137656176
-0.4454816794
0.01560143179
0.44941016
-0.009283194448
-0.01003880039
-0.1940818568
0.01002063493
0.1944214126
-0.01008393663
-0.18300914
0.009281627992
0.1828848617
-0.008797468288
-0.1994789668
0.007213572863
0.1992215496
-0.006740984777
-0.222405068
0.006122193876
0.2236805223
-0.003700695011
-0.003696953087
-0.05499955432
0.006061596178
0.110439576
-0.05496945624
-0.003261073588
-0.003271088039
-0.1116195714
0.008234058999
0.1114765245
-0.01607072349
0.007979711404
0.02495259146
-0.2375373827
0.236822028
-0.02424496497
-0.268380925
0.02253106282
0.2683050305
-0.02268376597
-0.2782893185
0.02180383531
0.2817543332
-0.02559351592
-0.2669135169
0.02270784093
0.262146784
-0.01817102244
0.01105341192
-0.2339655385
0.2323940917
-0.009491319736
-0.4611005996
0.01561499635
0.4594879833
-0.01400238003
-0.4587021643
0.01242171355
0.4569616966
-0.01068124583
-0.01269594276
0.9053040803
0.008696877967
0.008821466091
-0.009245973213
0.9004551913
-0.004533411098
0.8973171058
0.8965101885
-0.004446717201
0.9412791456
-0.009026252335
0.941002846
-0.01387423563
0.9403406215
-0.009510305527
0.9392943465
-0.009628802373
-0.4662895354
0.467738957
-0.01095972706
-0.4649804376
0.01253088576
0.466656192
-0.01420664017
-0.4556109846
0.01601231976
0.4625081432
-0.01144518124
-0.01138939285
-0.1981379984
0.01616008729
0.2003623353
-0.01815158021
-0.1836848984
0.02209768735
0.1845449549
-0.02261710277
-0.1965219123
0.02146108237
0.195435865
-0.02012633151
-0.222509275
0.01325201072
0.2194150248
-0.01010558541
-0.113664107
0.009959200634
0.2273786249
-0.01008809036
-0.1135856282
-0.2252792178
0.01618957988
0.2258471364
-0.01675749843
-0.2419032053
0.02344760536
0.2447899478
-0.02642593989
-0.2704241225
0.03112286753
0.2704290701
-0.03140837254
-0.2776315653
0.02918049638
0.2757074755
-0.02759218618
-0.2537872682
0.02105302891
0.2536572564
-0.02109704544
0.0116422852
-0.2309895195
0.2286659654
-0.009318731131
-0.4580528448
0.01733251959
0.4549475205
-0.01422719521
-0.4551980056
0.01275622814
0.4531811517
-0.01073937421
-0.01309057122
0.9005674281
0.008992301198
0.008834922208
-0.009306586881
0.8966712069
-0.004741169482
0.8927516884
0.8917690191
-0.00449598075
0.9457751263
-0.00910969784
0.9456165631
-0.01395661908
0.9451875427
-0.009576920752
0.944505158
-0.009590509912
-0.4691746665
0.4706141986
-0.01101645278
-0.4683037553
0.01254839726
0.4699149419
-0.01415958387
-0.4674362878
0.01587185045
0.4693392385
-0.008955616066
-0.008819036284
-0.2101907053
0.01726621565
0.2145021829
-0.02143693343
-0.1898830061
0.03203626118
0.1927700933
-0.03464388992
-0.193828919
0.03890809716
0.1942746664
-0.03909291973
-0.2120477856
0.03648434942
0.2106196369
-0.03491512939
-0.222141419
0.03031959173
0.2191797729
-0.02732526259
-0.2333684138
0.03284790049
0.2354523894
-0.03497686056
-0.2521106696
0.04153641811
0.2535552477
-0.04314478408
-0.2691713539
0.04427411679
0.267906102
-0.0432852259
-0.2676021217
0.03646348862
0.2639928741
-0.03312057069
-0.2427889922
0.02114675409
0.2383832787
-0.01683569637
0.01113235834
-0.2267534575
0.2261569294
-0.01053583022
-0.4542189983
0.017699648
0.4515414183
-0.01502206796
-0.4503408071
0.01163646685
0.4487626582
-0.01005831794
-0.01228820387
0.8943654603
0.009510633556
0.00897953817
-0.006907277537
0.8912902806
-0.004795184361
0.8906395952
0.8869738347
-0.00443835831
0.9502134846
-0.008975495888
0.9501537007
-0.01370356289
0.9499156098
-0.009411537001
0.9495302834
-0.009317151196
-0.4719957433
0.4733696721
-0.01078546575
-0.4714718742
0.01222965081
0.4729706217
-0.01372839827
-0.4710791749
0.01529779106
0.472724761
-0.008526009148
-0.008417368065
-0.230024878
0.009487382952
0.2347697275
-0.01421369717
-0.2050386589
0.03104664918
0.2102402381
-0.03608026109
-0.1995496682
0.04820011989
0.2026523746
-0.05109556531
-0.2101979155
0.05653237912
0.2113381095
-0.0575252772
-0.2109997546
0.05522963593
0.2095918833
-0.05377689575
-0.2385828649
0.05894664435
0.2386989759
-0.05912709872
-0.2538518647
0.05821482321
0.2525675805
-0.05709681136
-0.2605966794
0.05042499835
0.2569725485
-0.04701492164
-0.2503835195
0.03371188711
0.2450351706
-0.02851177957
-0.2255754448
0.0126733904
0.2247928839
-0.01189164282
0.01035680712
-0.224543045
0.224046799
-0.009860561056
-0.4478679395
0.01679278755
0.4461452583
-0.01507010634
-0.4471955077
0.01342471913
0.4456026164
-0.01183182783
-0.01147035637
0.8872809946
0.0101676457
0.008387176383
-0.006509660365
0.8863295846
-0.00442826609
0.888558201
0.8825455686
-0.004295823703
0.9545093084
-0.008669611553
0.9545274885
-0.01318747186
0.9544334701
-0.009052516874
0.9542714197
-0.008876091277
-0.474670184
0.4759485704
-0.01033090332
-0.4743988899
0.01165919577
0.4757582264
-0.01301853221
-0.4742694296
0.01441962315
0.4757118474
-0.008000344414
-0.007861696493
-0.2369358667
0.008755394023
0.237319034
-0.00913856129
-0.2281466986
0.01320818188
0.2344905683
-0.01952202195
-0.2153921295
0.03693065214
0.2204839224
-0.04192075744
-0.217607797
0.05382153371
0.2202845646
-0.05640645898
-0.2115185724
0.05751697092
0.213615459
-0.05958601713
-0.2368947359
0.06139723568
0.2357486973
-0.06030295967
-0.2452987538
0.05394445689
0.242006606
-0.05076036863
-0.2432533364
0.03812011658
0.2380489934
-0.03301535058
-0.2275893838
0.01597966315
0.223914424
-0.01231558664
-0.2234021601
0.01108835232
0.2229958263
-0.01068201856
0.009463827104
-0.2227193042
0.2223137914
-0.009058314336
-0.4445378188
0.01560673284
0.4430442356
-0.01411314967
-0.4441231591
0.01265673277
0.4426886521
-0.01122222584
-0.01428575747
0.8821332997
0.009603589923
0.009829862398
-0.009390127977
0.8814339552
-0.001844277996
0.881012351
0.8807012906
-0.004089274297
0.9585985827
-0.008235437691
0.9586736519
-0.01247970626
0.9586777387
-0.008553091145
0.9586677698
-0.008322965238
-0.4771481073
0.4783173227
-0.009722306531
-0.4770410971
0.01092297538
0.4782526086
-0.01213448684
-0.4770556978
0.01336375234
0.4783013296
-0.007378338562
-0.007231045564
-0.2383664689
0.008020172469
0.2386846509
-0.008338354509
-0.2378289802
0.009286573879
0.23814
-0.009597593641
-0.2364245659
0.01050293659
0.2372180771
-0.01129493268
-0.2291097444
0.02224216145
0.2322449689
-0.02535834556
-0.2203903635
0.03113960943
0.2222574376
-0.03299962759
-0.2314727617
0.03263066595
0.2299647143
-0.03114003387
-0.2309370005
0.02319805053
0.2272468768
-0.01952733578
-0.2242871806
0.01197726182
0.2240731409
-0.01176322214
-0.22292732
0.01101123465
0.2226468492
-0.0107307639
-0.2219210879
0.009827400201
0.2216052658
-0.009511578126
0.008540953869
-0.2212314855
0.2208990254
-0.00820849379
-0.4416597245
0.01428465151
0.4403801028
-0.01300502975
-0.4413694194
0.01173356194
0.4400970681
-0.01046121059
-0.01342329195
0.8774170684
0.008931402644
0.009208120669
-0.008863183509
0.8768738467
-0.004401970767
0.8765511383
0.8762993199
-0.003838837893
0.9624374206
-0.007715304002
0.9625501181
-0.01164893402
0.9626113687
-0.007964917284
0.9626903849
-0.007706631843
-0.4794063429
0.4804634652
-0.009022039596
-0.4793885258
0.01009447005
0.4804561684
-0.0111621126
-0.4794529177
0.01222930664
0.4805161982
-0.006711271192
-0.006581315898
-0.2395527819
0.007262124762
0.2398165273
-0.007525870202
-0.2389720575
0.008295202241
0.2392193812
-0.008542525947
-0.2379851168
0.00925074745
0.2382071032
-0.009472733861
-0.2343827296
0.009953575045
0.2344154821
-0.009986327477
-0.2249248488
0.01044646588
0.2252418646
-0.01076348161
-0.2281545339
0.01089265438
0.2281580494
-0.01089616992
-0.2256431625
0.01076496743
0.2255566793
-0.01067848425
-0.2235222282
0.01030674157
0.2233640582
-0.0101485716
-0.2219144965
0.009585938625
0.2217014862
-0.009372928287
-0.220764614
0.008674254986
0.2205157172
-0.008425358196
0.007644709619
-0.2200143804
0.2197397695
-0.007370098701
-0.4391978161
0.01293907804
0.4381062393
-0.01184750124
-0.4389338961
0.01074515358
0.4378143838
-0.009625641258
-0.01244590561
0.8731465399
0.008210036971
0.008506397075
-0.008252769964
0.8726807111
-0.004108808902
0.8724071772
0.872190511
-0.003562878957
0.9660002995
-0.007147027796
0.9661342669
-0.01075454979
0.9662188907
-0.007332841598
0.9663341064
-0.007065429736
-0.4814406299
0.4823896354
-0.008281847074
-0.4814533286
0.009232629773
0.4823882441
-0.01016754529
-0.4814971129
0.01108996192
0.4824015472
-0.006051369968
-0.005943026341
-0.2405361477
0.006524760758
0.2407551668
-0.006743779878
-0.2398841824
0.007371651355
0.2400828995
-0.00757036853
-0.2387900233
0.008130608514
0.238960672
-0.008301257253
-0.2345018364
0.00864940553
0.2345275605
-0.008675129563
-0.2260086933
0.009106486874
0.2262164706
-0.009314264246
-0.2281589901
0.009374235554
0.2281561515
-0.009371397029
-0.2253297349
0.009265107763
0.2252630519
-0.009198424714
-0.2229500374
0.008914375568
0.2228291485
-0.008793486668
-0.2211385144
0.008360245369
0.220972799
-0.008194529956
-0.219848328
0.007643633153
0.2196492356
-0.007444540832
0.006809892247
-0.219012921
0.2187846801
-0.006581651278
-0.4370976905
0.01164141695
0.4361654666
-0.01070919301
-0.4367949249
0.009755321175
0.4358135608
-0.0087739571
-0.01142392221
0.8693096166
0.007481776257
0.007779069265
-0.007603335446
0.8688601243
-0.003793627996
0.8685974698
0.868396883
-0.003275899652
0.9692761992
-0.006559814952
0.9694181822
-0.009841110844
0.9695001865
-0.00669071342
0.9696111341
-0.006427425043
-0.4832595626
0.484105913
-0.007537063825
-0.4832594989
0.008375741741
0.4840753627
-0.009191605561
-0.4832344126
0.009988062545
0.4840037241
-0.005425831069
-0.00533154299
-0.2413536271
0.005830077317
0.2415360705
-0.006012520715
-0.2406202677
0.006528771005
0.2407818298
-0.006690333121
-0.2394143969
0.007140697483
0.2395486642
-0.007274964819
-0.2346019535
0.007537355322
0.2346269165
-0.007562318343
-0.2267292797
0.007960209429
0.2268692186
-0.008100148382
-0.2281401553
0.008118351153
0.2281327218
-0.00811091765
-0.225084243
0.008020049726
0.2250307155
-0.007966522207
-0.2225079536
0.007742037152
0.2224128404
-0.007646923907
-0.22053012
0.007304991356
0.2203984897
-0.007173361041
-0.2191116489
0.006731469151
0.2189502058
-0.006570026057
0.006049111019
-0.218183952
0.2179941826
-0.005859341591
-0.4353023383
0.01042559299
0.4345033659
-0.009626620551
-0.4349220577
0.008800748199
0.4340629511
-0.007941641586
-0.01040561467
0.8658793687
0.00677533509
0.007060527506
-0.00694790185
0.8654024115
-0.003473226035
0.865122794
0.864923657
-0.002990215217
0.9722664144
-0.005978136789
0.9724061038
-0.008944419967
0.9724664697
-0.006064527586
0.9725436997
-0.005812458066
-0.4848768307
0.4856286428
-0.00681633978
-0.4848351085
0.007554377709
0.4855462555
-0.008265524731
-0.484714942
0.008953423509
0.4853726098
-0.004849247778
-0.004761843536
-0.2420355303
0.005192066078
0.2421882513
-0.005344787073
-0.2412213708
0.005772872684
0.2413543145
-0.00590581632
-0.2399089473
0.006273443585
0.2400164635
-0.00638095987
-0.2347056037
0.006585294697
0.2347335724
-0.006613263363
-0.2272149368
0.006981664182
0.2273089977
-0.007075725033
-0.2281055935
0.007067361924
0.2280952246
-0.007056993025
-0.2248850702
0.006977349666
0.2248409174
-0.006933196873
-0.2221569657
0.006751123963
0.2220803192
-0.006674477467
-0.220043526
0.006398835872
0.2199370283
-0.006292338191
-0.2185113128
0.005932255981
0.2183786445
-0.005799587728
0.005367265995
-0.2174933391
0.217334011
-0.005207937849
-0.4337628385
0.009310746452
0.4330763209
-0.008624228915
-0.4332833371
0.007907710998
0.432530883
-0.007155256954
-0.009427064554
0.8628213864
0.006109005646
0.006376041193
-0.00631187199
0.8622872189
-0.003160615393
0.8619715374
0.8617630416
-0.002714133193
0.9749805476
-0.005418264089
0.9751102347
-0.008087563679
0.9751357693
-0.005469301871
0.9751590627
-0.005233624773
-0.486309911
0.4869760208
-0.006135411716
-0.4862082439
0.006784039606
0.4868279766
-0.007403772329
-0.485981255
0.007998140774
0.486544853
-0.004321661671
-0.004240077041
-0.2426075907
0.004613871446
0.2427362858
-0.004742566488
-0.2417181004
0.005100784866
0.2418288079
-0.00521149242
-0.240307124
0.005515690889
0.2403945169
-0.0056030837
-0.2348238724
0.005767396276
0.2348562194
-0.005799743316
-0.2275398386
0.006143486593
0.2276020351
-0.006205683122
-0.2280610547
0.00617948264
0.2280488119
-0.006167239872
-0.2247195917
0.006096373089
0.2246824759
-0.006059257288
-0.2218721317
0.005908691485
0.2218091932
-0.005845753
-0.2196475763
0.005619660466
0.2195600558
-0.005532139992
-0.2180158437
0.005234667842
0.2179055166
-0.005124340695
0.004761876757
-0.2169126466
0.216777737
-0.004626967118
-0.4324387735
0.008303062623
0.4318464689
-0.007710757998
-0.4318484013
0.007087332533
0.4311884319
-0.006427363075
-0.008509357816
0.8600988587
0.005493526623
0.005738358891
-0.005710764622
0.8594886258
-0.002863869021
0.8591246418
0.8588991726
-0.002453714592
0.9774342622
-0.004891907673
0.9775484278
-0.007286726994
0.9775305886
-0.004915153157
0.9774870434
-0.004699554494
-0.4875772043
0.4881666173
-0.005504566188
-0.4874049886
0.006074488025
0.4879454973
-0.00661499666
-0.4870671865
0.007129474253
0.4875515981
-0.00384357829
-0.00377030752
-0.2430906027
0.004093685412
0.2431997225
-0.004202805139
-0.2421333183
0.00450508676
0.2422264967
-0.00459826521
-0.2406322485
0.004852755974
0.2407042063
-0.00492471377
-0.2349599443
0.005060950289
0.2349966633
-0.005097669311
-0.2277526526
0.005421124653
0.2277925213
-0.005460993372
-0.2280100889
0.005422476596
0.2279966202
-0.005409007872
-0.2245797794
0.005345235928
0.2245481516
-0.005313608066
-0.2216370032
0.005187306182
0.2215845767
-0.005134879657
-0.2193206883
0.004946887019
0.2192478494
-0.004874048124
-0.2176023411
0.004625502999
0.2175096726
-0.004532834565
0.004226282427
-0.2164203232
0.2163052575
-0.004111216701
-0.4312951543
0.007402523446
0.4307817676
-0.00688913681
-0.4305898005
0.006344870735
0.4300096684
-0.005764738592
-0.007665672846
0.8576747813
0.004934796041
0.005154954137
-0.005154723053
0.856977676
-0.002588385857
0.8565583046
0.8563107867
-0.002212421734
0.9796466839
-0.004405556565
0.9797415626
-0.006550304153
0.9796753362
-0.00440784837
0.9795575338
-0.004212946209
-0.4886970232