/*--------------------------------*- C++ -*----------------------------------*\
| =========                 |                                                 |
| \\      /  F ield         | OpenFOAM: The Open Source CFD Toolbox           |
|  \\    /   O peration     | Version:  v1912                                 |
|   \\  /    A nd           | Website:  www.openfoam.com                      |
|    \\/     M anipulation  |                                                 |
\*---------------------------------------------------------------------------*/
FoamFile
{
    version     2.0;
    format      ascii;
    class       volScalarField;
    location    "0.19";
    object      omega;
}
// * * * * * * * * * * * * * * * * * * * * * * * * * * * * * * * * * * * * * //

dimensions      [0 0 -1 0 0 0 0];


internalField   nonuniform List<scalar> 
12556
(
31.93084669
31.93166538
31.93258149
31.93345114
31.96662715
31.96737335
31.96812022
31.96968953
31.97288604
31.97843348
31.98646007
31.99523642
32.00163999
32.00197831
31.99607645
31.98790765
31.98007965
31.97363062
31.9706495
31.96829937
31.9347029
31.93326036
31.93210843
31.93111186
31.79398772
31.79656659
31.79925472
31.80170034
31.83576787
31.83856902
31.84291415
31.86524628
31.88008409
31.90608775
31.9445039
31.98986942
32.01803017
32.02346792
31.99845316
31.95906353
31.92104763
31.89133178
31.85714049
31.84490259
31.80625541
31.80211946
31.79866333
31.79556493
31.6591934
31.66365604
31.66834365
31.67242117
31.70729303
31.71337308
31.72385531
31.75579124
31.79206553
31.85235259
31.94126029
32.04200293
32.09956441
32.11626384
32.05885204
31.97180083
31.88476634
31.81812721
31.75608917
31.7289329
31.68261066
31.67447233
31.66817553
31.66313035
31.52554978
31.5316219
31.53800284
31.54403293
31.58117589
31.59291634
31.61539479
31.66698333
31.74135184
31.87181192
32.06832417
32.28121949
32.40358586
32.41580231
32.271442
32.09198575
31.91765086
31.78469234
31.67886013
31.62657084
31.56441308
31.55081943
31.54088999
31.5333077
31.39455436
31.40236482
31.41082148
31.41952156
31.4594527
31.48002169
31.52306578
31.60601397
31.75383019
32.03970125
32.48383612
32.98128814
33.37096098
33.34663148
32.90105637
32.45373255
32.08460543
31.81758611
31.63513437
31.54250455
31.45470222
31.43106245
31.41618741
31.4059218
31.26440752
31.27379887
31.28439391
31.29683021
31.34321152
31.37788223
31.45307029
31.58244186
31.86709121
32.46523855
33.59756509
35.46489266
37.02131191
36.45710939
34.62192921
33.33338032
32.49175293
31.95908105
31.63643681
31.47984637
31.35394187
31.31465823
31.29301875
31.279002
31.13771628
31.1491332
31.16276443
31.18021507
31.23371608
31.28792296
31.4051549
31.6067319
32.11087711
33.29594009
36.27453646
45.59866201
54.53009634
50.0821059
39.14838162
35.18058905
33.26611492
32.25297234
31.68161938
31.43955428
31.26156946
31.20195158
31.17109691
31.15288727
31.01268323
31.02610129
31.04320695
31.06777055
31.13294942
31.21215541
31.38013804
31.68206234
32.47506602
34.50983916
40.88141826
71.15405785
94.00545096
49.41987741
38.40635039
34.48809924
32.71208823
31.78908797
31.41853566
31.17868687
31.09361031
31.05079672
31.02742002
30.89368098
30.90987306
30.93196658
30.96634443
31.04102306
31.15117233
31.38241135
31.80466113
32.91713606
35.7999458
44.98949237
92.00791964
193.4901092
64.21358437
42.74394884
36.06224772
33.29555656
31.93992366
31.4173416
31.104741
30.9913125
30.93456503
30.90547289
30.7790778
30.79787618
30.82505671
30.87010013
30.95949377
31.1040883
31.40098625
31.9549822
33.36150715
36.87453406
47.39533738
99.25642364
243.1585183
76.98896858
47.12161191
37.68784153
33.89473947
32.11112871
31.42786443
31.04043719
30.89714156
30.82488509
30.78909576
30.67319807
30.69557873
30.72955947
30.7880761
30.88844137
31.06885038
31.43792956
32.12121532
33.77638581
37.715547
48.97952994
108.655932
240.9468473
84.38049677
50.46825473
39.04405293
34.44373687
32.27376304
31.44776932
30.98466964
30.81283448
30.72497534
30.68226501
30.57353586
30.59886331
30.63871688
30.70960393
30.82654247
31.04351555
31.4844301
32.28797349
34.13884181
38.37634749
50.31999606
120.3794588
220.6828626
87.06878965
52.3955819
39.93918965
34.84493724
32.40413151
31.46788775
30.9378415
30.73836398
30.63558148
30.58551003
30.48295124
30.51218641
30.56014041
30.64508569
30.77137828
31.02371676
31.52952254
32.43911251
34.43225553
38.87691973
51.75050953
128.6772401
1317.495571
187.2862414
86.76757824
53.03336641
40.32322443
35.0715073
32.4881914
31.48030047
30.89430012
30.67302515
30.55622879
30.49957026
30.39703631
30.4297176
30.48485392
30.58168991
30.72914956
31.02101894
31.60971251
32.60855992
34.73230951
39.40985572
53.59082553
169.8483989
694.9393204
174.6042269
85.04190319
52.64939599
40.28308263
35.14791604
32.52811067
31.4766095
30.84983603
30.61266771
30.48355337
30.42048656
30.31725653
30.35340613
30.41505141
30.52228956
30.68295436
31.00625683
31.65333074
32.74609089
34.98620748
39.79513298
54.84396458
312.3716716
486.6218413
162.1110691
81.45873989
51.50097861
39.93758792
35.10765854
32.51626115
31.45525007
30.80342126
30.55422093
30.41501963
30.34704703
30.23803096
30.27739425
30.34493419
30.46234229
30.63643789
30.98657733
31.68659501
32.89957465
35.37252503
40.59346388
57.70524618
509.9138332
414.4815443
147.7791671
76.23951194
49.79993866
39.42902552
34.97168964
32.46538217
31.41483667
30.74895422
30.49162472
30.34506403
30.27248206
30.1615398
30.20406914
30.27659027
30.40192781
30.58692338
30.95955768
31.70573488
33.04122243
35.94124407
42.28662699
66.79561306
881.2976154
313.598925
128.368991
69.7298893
47.84209148
38.940319
34.79288248
32.38093447
31.35755537
30.68743476
30.42563542
30.27319386
30.19723838
30.08128316
30.12657476
30.20351242
30.33653864
30.5325394
30.92319479
31.70579664
33.12400759
36.51175758
45.00768083
100.6576275
871.0287513
228.2572756
108.902874
63.84733259
46.30106417
38.49435984
34.58846016
32.27338856
31.28015882
30.61285427
30.34914488
30.19407015
30.11567242
30.00160577
30.04948257
30.13006848
30.26838736
30.47198211
30.87670706
31.69266006
33.17884382
36.82842005
47.84270849
167.809912
699.0379915
184.2702079
96.2892418
60.53465282
45.31197321
38.06567521
34.36631866
32.1480171
31.18752149
30.52856739
30.26553827
30.1091704
30.02970675
29.91499647
29.96486324
30.0487269
30.19272686
30.40472709
30.82032961
31.66230855
33.20809419
37.09718408
50.42114157
202.8688269
573.455226
166.966143
91.02682413
58.60078339
44.47227099
37.66245107
34.13809335
32.01040318
31.08202039
30.43247771
30.17109373
30.01472655
29.93507018
29.8288745
29.88038191
29.96675861
30.11397151
30.33051797
30.75467846
31.61822396
33.21518915
37.3348791
53.78205416
226.8632948
484.7988688
155.1712696
87.03178796
57.11987394
43.75999972
37.28640344
33.91015339
31.86450221
30.96607482
30.32876755
30.07083887
29.91555474
29.8363016
29.73408774
29.78655158
29.87512409
30.02647311
30.24961071
30.68050577
31.56198278
33.20511061
37.57022987
57.36945145
240.6420274
417.3571619
145.9866293
83.85934071
55.93210122
43.15512701
36.93888354
33.68657643
31.71325685
30.84199702
30.21526509
29.96058651
29.80698734
29.72872245
29.64175058
29.69481339
29.78471814
29.93732906
30.16229017
30.59872875
31.49546771
33.18103446
37.85484701
60.54799291
247.2974423
364.215572
138.523305
81.22181529
54.92782678
42.6394374
36.62110714
33.47023612
31.55923011
30.71183826
30.09793016
29.84791996
29.69658056
29.61955712
29.53951429
29.59260445
29.68366804
29.83912543
30.06946107
30.51051666
31.42094705
33.1500415
38.2313077
63.16429179
249.8002412
322.9899156
132.2641175
78.96734355
54.05289567
42.19282676
36.33221691
33.26299555
31.40449943
30.5774607
29.97256004
29.72586876
29.5768208
29.50132
29.44290843
29.49581721
29.58723765
29.74227908
29.97178257
30.41710989
31.34078254
33.11919277
38.68747634
65.25749427
248.5589028
290.8387754
126.9058446
77.00635419
53.27778694
41.79826682
36.06920514
33.06562392
31.25052727
30.44034302
29.84742316
29.60563216
29.4591967
29.38524684
29.33419375
29.38653039
29.47841242
29.63569308
29.87044655
30.31965925
31.25702385
33.09497396
39.17344414
66.89021685
244.3886766
265.3474843
122.2480552
75.2776171
52.58361856
41.44385465
35.82819921
32.87790167
31.09821552
30.30174936
29.71483617
29.47562117
29.33147603
29.25918951
29.23578926
29.28750745
29.37912586
29.53473602
29.76597023
30.2191867
31.1713309
33.08145795
39.64393264
68.12021919
238.2536891
244.8610353
118.1485584
73.73771377
51.95708444
41.12175086
35.60566097
32.69913383
30.94810933
30.16255563
29.58705767
29.35276631
29.21118915
29.14047378
29.12145105
29.17229005
29.26395248
29.42174263
29.65956394
30.11653212
31.08504857
33.07942653
40.07188292
68.99385221
230.8516782
228.1670571
114.5025919
72.35423974
51.38796487
40.82651416
35.39869845
32.52846367
30.8004755
30.02357218
29.45015051
29.21733845
29.0778042
29.00868758
29.02429399
29.074316
29.16531757
29.32035974
29.55128859
30.01238678
30.99928226
33.0866746
40.44423106
69.55213103
222.6910603
214.3740981
111.2341453
71.10236769
50.86798323
40.5540798
35.20503415
32.36506853
30.65543862
29.88514886
29.32352636
29.09553251
28.95828124
28.89056917
28.90472144
28.95371528
29.044432
29.20178369
29.44242567
29.90734403
30.91486816
33.09982181
40.75675353
69.83461842
214.1637082
202.785076
108.2821349
69.96156439
50.38995602
40.30113302
35.02280811
32.20819056
30.51303498
29.74783237
29.18266341
28.9547946
28.81926972
28.75299903
28.81159648
28.85974558
28.94967091
29.10359432
29.3324639
29.8019297
30.8323732
33.11509257
41.01027128
69.88337318
205.5468276
192.8818994
105.5952648
68.91437361
49.94766532
40.06487105
34.85046105
32.05716978
30.37327411
29.61161304
29.06120704
28.83817205
28.70455429
28.63944969
28.68557227
28.73264036
28.8220275
28.97835132
29.22301684
29.69662213
30.75209095
33.12923641
41.20778024
69.74315622
197.0242775
184.2945127
103.1329901
67.94631405
49.53563551
39.84277934
34.68661535
31.91138523
30.2361506
29.47711025
28.91486045
28.69091822
28.55884934
28.4950323
28.59959013
28.64590476
28.73463272
28.88768672
29.11287632
29.59187315
30.674035
33.13973877
41.35342541
69.43952663
188.7403525
176.7443169
100.8610539
67.04438063
49.14860961
39.63241902
34.52997264
31.77023372
30.10171797
29.34406384
28.80440934
28.5850846
28.45449449
28.39159905
28.4646159
28.50982828
28.59777261
28.75233517
29.00462756
29.48828412
30.59820975
33.14490111
41.45253965
69.01164597
180.8118618
170.0138463
98.7487283
66.19659174
48.78160117
39.43148117
34.37933861
31.6332023
29.97026436
29.21365417
28.64729623
28.42720106
28.29810527
28.23636835
28.39038282
28.43497526
28.52238098
28.67565369
28.89654528
29.38675311
30.5249239
33.14399954
41.51084751
68.48991848
173.3028293
163.9439766
96.77185591
65.39300045
48.43017834
39.23783466
34.23359198
31.4997195
29.84271187
29.08593131
28.55636654
28.33812635
28.20983406
28.14869475
28.21825881
28.26149061
28.34773886
28.50160216
28.79385361
29.28902461
30.45542566
33.13635522
41.53359049
67.90215822
166.2515973
158.4286499
94.92263478
64.63173605
48.09303064
39.05049077
34.09220731
31.36957617
29.72173695
28.96494144
28.35462077
28.13600972
28.00928667
27.94938829
90.91137924
233.5776126
108.8634885
98.38673455
299.9391453
242.8718936
107.2229797
291.1886557
302.2867995
119.1241804
257.7580109
286.935382
127.6562963
1931.695831
1401.783674
229.5035168
253.3548733
151.7586942
911.1558426
1853.265038
725.4996559
223.526008
226.8392335
66.53422266
53.71688596
98.16333545
49.1764651
871.2639113
266.7269686
182.0399532
71.60297475
55.52665947
46.92446754
83.27763603
78.26329604
3214.05052
2250.933021
240.2884712
90.25455577
76.87705165
48.66471859
89.05282004
83.91888615
102.1773251
283.742998
263.0626059
1678.276916
2410.008316
242.8939986
100.5281793
93.62227149
50.08413072
97.38051914
89.93755942
112.9996552
376.1903246
314.2014615
842.9596898
1186.061716
51.51464051
107.8781647
98.38243058
121.8457443
530.2719839
441.2998294
3993.895583
509.9113629
599.8354988
53.3974077
126.6595318
109.3706509
136.0553854
1042.956442
721.1253456
155.1837065
639.8409323
889.763238
242.8448894
276.6206
143.9609578
235.8027956
2187.647639
924.4563955
180.8152475
718.7048075
1466.854658
260.554957
242.9141295
95.55286906
314.4336151
320.7210883
281.8459893
312.1077118
2444.41055
3212.650487
274.3262722
2166.167245
1823.026783
1519.168693
2160.706086
270.7714188
311.4828875
287.1781855
103.30384
358.8644301
396.1881233
322.5478187
355.8973485
1249.658696
1636.822789
299.6419549
1164.370183
874.2459605
1798.45629
1219.130527
301.7937207
437.5874994
379.1198013
114.4056835
453.1401973
542.1673388
398.6196958
449.7432983
620.733929
804.9777569
711.8525792
538.6806582
122.0505093
4666.086198
709.6494729
1028.593192
546.5265741
695.4901851
4988.52949
465.4379741
501.2989959
3731.100053
8554.687837
1048.597375
137.2887291
1121.261439
1601.564157
9237.94423
1035.700951
1581.621094
1179.828627
44.1605226
77.25336375
62.51530615
82.84196566
189.5539291
125.063582
6274.435217
974.5874109
94.95516989
240.4655401
217.9939365
7706.750565
223.7576167
103.7968583
101.848104
6910.505493
1248.28908
1424.517699
918.4373691
410.286995
449.1217209
215.239011
193.984038
85.47521817
1591.886818
368.6697681
830.2330676
215.0260916
630.9247053
166.1131291
1462.864774
2046.03285
269.8511662
642.59501
542.279006
840.0003728
662.6367989
274.4960612
2989.728965
5487.157737
1548.988103
96.07908293
74.80001572
129.105873
220.1360589
93.0940659
98.75834166
9934.350108
594.3941038
6483.540458
711.3081707
4369.585161
529.55464
2603.952555
2566.206919
1978.474918
2029.750645
4149.728577
6845.604088
970.3818135
4792.381073
2698.681312
7652.848789
5277.936477
1020.534318
472.623315
202.9062809
209.8726314
1018.339034
1175.066238
6343.209167
767.2870514
249.2025276
260.636077
235.1760375
244.7956334
765.0022606
1495.785356
1595.184387
258.634392
1072.087104
926.2228794
1504.080482
1070.581636
262.8691278
193.2192802
633.7335688
310.2242331
841.2452019
667.8630623
207.9864387
859.7420584
1145.869663
1500.593822
1416.117273
311.3676266
1560.358516
311.4578943
297.1515499
1547.205142
1519.068048
1559.371415
1550.001743
301.2013423
2626.195671
2658.71884
1967.559198
585.9048889
571.6759254
586.9709355
588.266432
1949.291839
1806.564497
518.4106919
472.4118698
563.7009029
532.4298888
1842.559701
376.0118564
378.4408296
336.4692813
338.5076781
1346.498291
7876.98934
1378.950657
479.0912734
485.1343307
424.0412487
427.5199294
2511.315387
1664.604325
711.7129458
2221.990164
3904.042791
583.6429119
222.9914193
231.8408999
212.3961949
220.2373781
576.1408697
3227.889221
747.5818342
758.3068449
577.911439
581.8142786
7025.496666
2447.703603
868.0136741
975.3874345
265.4766028
273.4353509
1251.322296
2503.037128
3740.219204
4456.815603
1061.507751
7189.689345
4607.347118
6448.437939
1057.491265
1427.367965
5209.281294
4090.582653
6162.338067
3924.649944
4621.94882
54.4109223
122.1812971
128.2065361
176.3367961
4384.113254
8194.164446
508.3289667
204.4299426
218.809739
1757.219013
4972.505198
5987.796597
757.8311535
834.5783881
2219.467407
374.4946299
397.6774105
885.8148019
216.3023203
146.4990872
323.8437781
770.0931941
196.0972763
230.9589784
3030.135542
8237.058061
8598.061194
2410.778482
1810.614768
5404.732011
3942.377217
8821.539739
8528.260445
2286.061932
352.1569574
175.1112517
179.49096
169.7310327
173.7231814
346.6227244
194.7754808
200.8600968
468.6247491
970.3068484
422.3160129
437.912897
7758.43889
3537.184047
848.8234476
1881.232066
7382.862313
8176.076833
985.8645987
372.8907076
308.6468629
453.1373737
395.3779822
1036.555104
2527.11778
8869.750443
8856.999452
3028.868814
300.4066024
164.7939178
168.4656125
742.0013208
732.1200497
388.3044444
3689.609507
3337.279661
1525.460932
1029.453239
513.2501709
536.890299
1567.187454
571.5552166
584.3221118
545.2169934
565.2581137
1529.644578
404.456555
187.5217588
192.9120131
181.0151385
185.8209115
400.5560895
463.3778004
1011.813232
1004.849427
1537.324733
1496.912724
523.8156526
408.3085238
773.4269796
743.5794108
1001.858712
997.7570584
440.0640079
684.2558657
1585.236906
1226.378043
6991.509922
4007.131564
729.467981
882.4501397
559.5182236
1564.860495
1543.642806
1564.203062
620.0013786
6164.709698
8543.13891
334.6306919
364.3222853
443.5349097
456.8288187
1050.108557
3959.246552
3090.102043
986.8139725
1609.81156
7588.829632
3679.560879
3629.646133
15739.30807
1042.347385
1511.221623
3417.191666
3955.311271
3102.033829
7713.314363
7808.870374
2945.217462
3632.967428
7103.641385
1619.920131
1558.522718
594.0540017
2097.643526
995.6192507
2037.979107
651.7148208
6047.856676
4939.849283
1724.365116
6573.511431
7321.220673
5712.02193
4780.732432
2506.478039
5793.95057
6773.818997
4739.025574
5588.777421
7033.860911
3975.929198
4501.583913
3411.098849
3795.916181
6370.449411
9984.241233
2413.896137
1391.783289
4122.057261
2693.925961
1237.467391
736.6633828
2256.129693
8946.914475
11402.03933
2874.611395
2449.206949
8694.780633
8976.677509
5953.261162
5581.929407
1858.875867
8487.33857
8440.548681
6619.088249
8218.711721
8440.544351
2218.23602
8641.790639
6129.971718
5321.869189
5722.588876
3797.746398
1507.25624
1652.66604
6352.916634
1989.519873
2300.32724
1711.196848
1894.855321
6087.395418
5259.616661
2173.705079
2682.172565
399.0846225
416.9831441
890.3197344
742.5142519
382.0628099
394.6899704
1584.490001
1590.389514
1075.257606
447.323227
465.1007677
424.1017734
442.0656373
1071.413189
1103.897915
505.6945285
540.0457235
471.2749668
495.6735762
1112.452827
783.7658206
395.779614
418.6857576
1084.42654
1109.317245
5174.014759
5344.111613
1777.409205
7867.42355
8013.160723
10511.95259
5433.774255
4599.696384
7736.533751
5346.691757
1169.064116
3707.071845
4970.294459
1583.144563
619.8640572
680.7898526
599.503626
610.1447416
1556.242547
722.6215608
729.1098741
700.2788511
720.2430862
1540.839007
563.7137127
572.9640265
547.4151338
560.4204245
1536.264495
1554.833814
587.6800959
596.1454869
575.9797052
584.8028257
1555.56107
8784.520188
8861.121891
2554.488784
2895.619917
9201.550807
8763.182867
993.6421678
994.673855
974.708215
993.3964145
1001.051643
1009.389228
995.2982389
999.5245979
739.3298192
746.041645
731.0939529
737.1104777
779.2245596
936.1822912
749.5569936
758.8499003
3140.285982
3778.329205
2414.762594
2888.083796
8127.39165
5757.233341
6266.328774
4074.736223
5570.553987
1021.555913
1016.298527
467.0952586
1571.290698
1574.365838
1545.462462
1563.90517
1613.866099
513.895982
1464.496321
1069.216101
974.6222644
792.1222387
411.9680144
1049.76422
1466.00558
1009.471756
1059.083338
1517.119931
1536.046335
1483.254559
1509.070059
436.9297553
996.6921715
990.3844345
7391.102422
2789.072362
7413.417325
6646.90551
7397.614857
3029.41847
7101.7733
3758.382421
6902.775644
6145.981904
735.015053
805.5110559
1592.639126
1569.336805
563.5935001
605.6945717
1647.479031
1594.458168
6931.262243
1083.328524
466.4678062
501.5574202
6102.911279
6805.427671
1668.416923
7579.269509
6087.854417
4130.967541
1043.222239
7309.006295
5115.589532
7518.344438
5375.128134
1460.870508
85.98130574
50.83075313
40.77655533
7121.013793
7106.821629
207.342981
102.9675322
103.8002454
7345.884647
2329.247477
4563.541015
4002.756736
528.2818615
438.6344395
242.5878808
619.9331254
364.9532315
967.9660547
3540.863653
566.5476994
685.4462342
67.34816881
83.02827952
190.6802317
755.0486166
1654.385282
2535.764536
274.1167128
154.8665498
158.7993943
149.344372
153.531215
271.22031
1660.210212
1976.307129
4887.982413
1163.152452
1013.880081
557.3576094
366.7639235
378.2574079
738.363797
2773.876731
3566.511521
1093.191748
160.0246638
163.65092
297.1457203
366.41689
708.492776
687.1437932
667.401376
606.8490998
347.5080188
641.9996798
350.8112656
362.8914296
5793.307254
5584.035637
4457.937452
1558.391155
1539.488859
1009.251266
5333.133148
6860.149249
6294.892571
3144.162939
1324.428212
1563.244444
1604.337571
1039.289874
1586.710028
1575.785394
1579.358357
6840.646056
7547.908768
5304.356685
5622.104787
6838.264547
3395.849206
2757.130911
1267.555433
1600.350317
285.9656492
220.3021958
438.6046674
1642.780255
4544.961055
3666.572639
6847.56438
7158.582656
7233.294656
6270.999263
6962.40115
137.8591673
181.652708
584.7292089
7779.688702
4722.393029
3434.201853
9575.005862
7621.699378
4443.467047
6225.671441
5883.312867
7881.002958
7592.781763
6293.139194
1355.256855
1471.265664
3500.848309
7778.315353
5314.404386
5701.699824
5834.780275
4575.046673
4896.530758
1540.031959
1974.237832
1596.373555
1073.438276
771.5184308
777.4089833
1472.993149
976.4098326
1015.561556
781.6969818
789.3849944
1076.462978
356.3790472
388.6219141
761.4637054
942.0495094
1548.479838
1178.741328
1651.536537
1701.639486
1155.506613
1850.219981
1400.111056
1444.719066
1040.636396
1040.859969
1561.896385
1515.579646
1523.499513
1471.2627
1487.090763
1543.655737
1028.869897
1029.407602
1029.181401
1030.987872
1526.597389
1557.6919
1036.836936
1037.972898
1030.291266
1031.292672
1551.935358
719.0243792
711.413261
368.8857583
385.8810187
729.4806004
721.4730397
581.9272507
573.2143337
330.3058917
1536.199612
1536.678816
1524.935138
1526.554088
1835.325361
1539.69106
1539.660448
345.112574
596.9725253
585.5648959
8059.04659
8000.66513
5897.501465
6143.393092
7837.864249
8089.959599
8290.67904
1490.332408
3195.062242
2608.877329
336.6874532
346.9604007
617.0984293
561.3634724
325.6818669
333.8095386
1038.936644
1039.252102
745.0663968
760.1676811
1044.520977
1048.674953
6966.307756
1321.892827
888.2338916
877.5389366
7282.582948
2038.899342
4038.770746
5733.778015
5183.068957
1640.810806
1624.012231
1050.310185
7053.753259
7548.591191
7234.384072
6030.603555
1107.332747
1678.59649
1631.319411
4613.516415
2882.851085
3285.70341
7012.393465
6931.516111
5967.041547
5714.663835
4384.810339
1964.490663
2698.955962
2765.912292
5351.824489
7142.184838
6430.565571
7231.024799
7006.087679
5735.307412
341.3396591
494.605484
1999.225527
8346.328035
8125.061017
8539.417911
8475.952694
8413.214016
5160.001673
5148.386696
5162.228894
5157.471961
8453.280684
8792.683897
5243.448977
5297.001541
4991.268085
5161.240822
8870.865608
7719.869313
4725.603708
4242.693616
5118.858313
5003.487762
7944.1296
8843.601078
5438.832046
5491.78142
5355.230224
5391.768015
8861.449605
8718.197064
8570.80353
8675.612532
8443.581882
1010.780747
733.3926691
736.0901164
1525.742102
1008.273524
1010.860796
986.2279166
1003.432402
1515.808829
6723.766272
6931.194861
6231.959334
6799.823108
1567.146991
1578.27681
1543.455964
1556.073394
1959.979553
962.1605676
1500.370747
1446.600257
1556.977056
1013.82676
1016.097287
1011.651644
1013.002402
1551.411162
1489.02703
1525.206471
1075.277546
1436.240676
1946.49849
7150.277149
6805.012374
5745.845461
7007.089825
810.1991271
1094.312062
13147.27245
1053.120049
747.1384246
748.7790976
1616.060052
7555.280742
7955.112216
10917.20473
5699.438191
5932.381384
1599.36366
1590.031329
1039.295461
1552.211163
4721.270394
8320.562976
5418.753854
6095.427281
4801.274668
2083.025809
6867.481702
4677.011479
7763.114145
7986.159375
7046.816918
5905.259856
6409.856583
1596.189449
1887.532896
2079.246463
1053.810456
1238.784502
1739.468978
1802.67008
1254.767242
1722.665638
2251.406726
7162.780579
7306.533221
7089.687352
6245.366552
7040.671386
6958.219855
6861.750892
4999.52916
6187.64382
5802.543133
6765.953364
6912.713826
5301.643443
5507.167745
5850.09673
6926.709083
5944.07021
4995.167856
5203.704385
7231.931299
4916.701468
7424.007754
3467.308885
5276.489908
7117.169918
8012.57225
7585.846336
9287.142496
5436.702346
5135.411455
7713.197543
5339.892758
8801.0587
8788.237789
5162.635868
5163.234081
5184.754228
5152.32396
8836.967111
5819.195299
3359.977511
3429.494707
8412.72205
8451.234828
7428.079371
8536.656395
8316.070122
8334.230831
8594.843402
8895.191662
7538.363573
4103.180555
4623.041472
3535.276278
3733.423307
6566.082746
7571.806612
6749.137927
4865.832484
7765.866777
7522.000744
7505.845066
5920.376924
7610.674841
7412.135918
4374.908994
4817.282168
7014.702547
1571.697265
1597.123445
831.9253601
905.9332175
1431.808685
1072.426948
791.6824471
812.8817473
1645.900409
1620.80634
1036.623064
1746.484482
2085.120329
1107.384808
1668.646395
1666.116334
5157.047291
3450.050536
3399.668578
3794.452244
3671.800282
5436.643671
8449.92001
7879.441481
5122.886463
7713.910517
8028.987362
7385.765007
7674.166378
5054.994463
7581.19985
7422.337701
9920.462469
7113.810275
1084.745638
1076.411017
1518.416667
1563.174097
1046.991237
1042.558983
1506.209328
1512.4056
1494.926193
1501.587107
1029.619689
1029.285226
1544.188802
1531.881955
1030.492212
1029.923581
1033.978653
1034.951461
1555.764557
1555.254728
1032.579777
1033.394637
8834.917345
5644.862688
5700.81373
5533.829168
5582.573911
8814.733032
8827.119795
6370.159844
7399.162582
5797.969035
5971.675532
8784.384269
994.0562652
1497.20153
1490.487679
1506.32968
1502.154255
994.2619798
988.9406587
1466.686331
1452.523466
1484.114602
1476.310376
992.4405142
1004.052921
1534.165669
1528.030842
1543.456285
1537.314088
1005.323608
996.2170116
1514.480329
1510.983775
1524.265104
1518.72335
997.4077184
1532.438726
1533.706858
741.4433828
1012.510575
1011.880759
1014.599444
1014.114214
744.0470277
1529.153647
1530.58489
1568.584126
1498.201052
797.5534612
1053.753202
1062.825178
1423.773075
1378.818227
866.8068299
750.9080662
1017.196776
1017.381914
1020.29452
1024.322682
758.2272072
1544.715804
1538.418259
7928.146441
7817.991085
7944.698026
6440.008324
7132.549743
5930.379544
8200.788657
8272.527371
8241.339087
8245.777339
6054.937388
4569.390885
7288.674204
6534.531368
8019.912396
8126.641504
5146.981184
1025.554739
751.4283999
752.5626646
740.8475098
742.6606309
1016.31351
1571.537859
1581.820868
1549.537674
1561.88773
1532.210409
1910.108065
1410.900252
867.3602113
943.4019675
774.8722792
794.3704276
1059.541308
1386.450687
1862.279977
1505.306207
1435.307458
1017.969411
1552.62644
1543.603117
1581.401799
1546.265923
1014.124874
1522.780452
1531.142068
1493.273308
1502.230997
7195.229608
5620.299209
5834.683397
4825.936818
5274.183958
7272.54604
7468.511761
7319.157459
6150.607361
6672.235443
7662.222355
6715.517555
5558.11595
5739.89518
4935.877599
5230.380055
6854.790848
1603.33773
1604.266006
1589.979817
1592.858732
1083.147571
1093.619223
784.8956613
1654.498829
1569.699615
1618.264713
1610.260782
1581.52478
1022.09738
1027.886718
1017.259186
1021.001884
1578.595698
1608.217458
1037.525044
1085.796455
1028.797317
1040.343356
1611.351899
6768.689776
769.7801223
772.6406771
1083.506216
6102.010552
7232.801837
7162.020209
7649.64307
7458.46888
6547.235808
1620.355698
6859.310885
5654.506474
5936.594923
1049.111506
1617.856947
1605.695081
7228.562082
7501.721565
7392.679722
6294.420428
6746.683825
7892.724902
7725.649
5667.82777
7349.499647
6607.580923
1973.484477
1602.740056
1097.18291
31.78166933
31.8024164
31.87498254
31.81108053
31.84766097
31.89750804
31.86159336
31.91570351
31.93250635
31.93426022
31.99828645
31.97584519
32.01549774
32.05883388
32.0109434
32.07076528
32.08166314
32.0248621
32.07723679
32.04929986
32.00905343
32.03581627
31.98027686
31.97111861
31.96249119
31.90485045
31.93123016
31.88943856
31.84470388
31.89835305
31.68688092
31.73095118
31.78125783
31.74991401
31.82608985
31.83611626
31.85698869
31.97431977
31.91869758
32.01870261
32.15987421
32.01876087
32.19407288
32.28353616
32.08977217
32.313648
32.31156676
32.11778828
32.28799707
32.22872321
32.07558901
32.19822466
32.08448467
31.99385377
32.04597864
31.93381669
31.90532419
31.89977107
31.8115601
31.83178317
31.61866005
31.70484138
31.71913659
31.74375259
31.90720227
31.83307025
31.97787384
32.23829204
32.01439554
32.33388214
32.65859503
32.2285922
32.76908587
32.98521375
32.40104021
33.07261951
33.05022944
32.41207402
32.94652597
32.77126962
32.31174632
32.68951507
32.41647171
32.1375577
32.32798873
32.0920614
31.95895119
32.02329772
31.84996193
31.81301969
31.5831629
31.74711047
31.70686617
31.82718708
32.16971189
31.95245656
32.32522306
32.9554973
32.35902103
33.21822852
34.26864008
32.85070597
34.61100246
35.48541809
33.3812027
35.73415019
35.54479758
33.33244403
35.0933948
34.32949035
33.01739272
34.04163909
33.26905416
32.56147667
33.04008133
32.50012637
32.1668656
32.35431863
32.00996068
31.87579901
31.59556422
31.89112671
31.77359361
32.04012081
32.71667423
32.27488098
33.04680113
34.60378609
33.24734664
35.39490427
39.60378429
34.88505731
41.52936468
49.82327456
36.86261996
50.91137134
46.37644089
36.60805964
43.57757125
38.82641418
35.01250016
37.62101073
35.1780809
33.60627073
34.59317781
33.3326562
32.66498986
33.02458658
32.33601871
32.07146391
31.66005248
32.137807
31.942314
32.38140455
33.5629943
32.89714498
34.19268746
37.57398577
35.22298195
39.65754415
59.23632164
41.76750231
52.33134982
61.6220016
48.05758755
80.28042926
75.59681267
54.67493124
58.81121601
50.51195466
46.42174344
46.24618397
38.8749528
35.89608077
37.47217951
34.72756669
33.63473693
34.12583165
32.87064536
32.44813549
31.77093759
32.45322952
32.20610254
32.80383021
34.54412017
33.79576853
35.49836735
40.79830883
38.43654339
42.09161837
46.11467198
44.5254733
75.54209733
89.4443481
83.16245969
132.92904
87.51353321
70.6388156
60.46290148
44.3649255
40.09362862
41.65463503
36.67897541
35.18739989
35.65236375
33.588147
33.03325558
31.91574185
32.80254215
32.54040378
33.25223988
35.44745623
34.78089451
36.63031328
43.03029692
41.44884035
45.73231603
50.83402091
49.90728244
93.15973169
112.8078256
111.1568833
219.8444243
126.461527
112.4887793
74.267133
50.22062701
45.81575267
46.15943809
38.77719362
37.20234349
37.29424146
34.37436288
33.78208211
32.07993485
33.14685793
32.88986809
33.67706028
36.19869806
35.6494461
37.52507099
44.50832821
43.44422363
47.86782138
53.49206848
52.89014789
100.1674977
132.8709066
129.4241696
246.2342453
147.2756406
141.8344454
83.00806232
54.76014445
51.47190135
49.77042125
40.59922358
39.28228433
38.73361993
35.08578669
34.55042857
32.24853578
33.46326127
33.22921423
34.05455915
36.80550487
36.36260497
38.2279228
45.63793417
44.79997913
49.38618726
55.55177576
54.96333188
110.122424
149.8437938
146.8647932
234.4469303
150.7401499
150.9114562