/*--------------------------------*- C++ -*----------------------------------*\
| =========                 |                                                 |
| \\      /  F ield         | OpenFOAM: The Open Source CFD Toolbox           |
|  \\    /   O peration     | Version:  v1912                                 |
|   \\  /    A nd           | Website:  www.openfoam.com                      |
|    \\/     M anipulation  |                                                 |
\*---------------------------------------------------------------------------*/
FoamFile
{
    version     2.0;
    format      ascii;
    class       volScalarField;
    location    "1.08";
    object      nut;
}
// * * * * * * * * * * * * * * * * * * * * * * * * * * * * * * * * * * * * * //

dimensions      [0 2 -1 0 0 0 0];


internalField   nonuniform List<scalar> 
12556
(
1.155889402
1.155860767
1.155830166
1.155806652
1.156029788
1.15602683
1.156043656
1.156087302
1.156171486
1.156316728
1.156487002
1.098128086
1.006767774
1.014102113
1.120918214
1.1564789
1.156315822
1.156194013
1.156098484
1.156059037
1.155829176
1.155832859
1.155857247
1.155882294
1.155152189
1.155063242
1.154976464
1.154909762
1.155124532
1.155151906
1.155261434
1.155546804
1.155951454
1.156642974
1.157698205
1.018894365
0.9280301441
0.9232057359
0.997944401
1.157765737
1.156825364
1.156103578
1.155567682
1.155308625
1.15497142
1.154986527
1.155052103
1.155133034
1.1543707
1.15422486
1.154085219
1.154007417
1.15424402
1.154356894
1.154633476
1.155222938
1.156233798
1.157888384
0.921294802
0.7720422669
0.7175448019
0.7252103408
0.7921188602
0.9293797195
1.15289636
1.156528856
1.155335044
1.154719807
1.154204213
1.154167581
1.154248858
1.154373611
1.153582061
1.153380552
1.153208234
1.153133688
1.153415173
1.153696251
1.154372496
1.155470986
1.151583473
0.8440287413
0.6472427337
0.5469726239
0.4844429221
0.4989286293
0.5621492481
0.6775042479
0.8624648842
1.153911553
1.155674851
1.154431903
1.153521872
1.15339773
1.153463289
1.153626021
1.152755934
1.152510059
1.152316619
1.152301439
1.152688685
1.153248174
1.154539758
1.156538859
0.8750056521
0.6063822579
0.4354657237
0.3322400174
0.2917363218
0.3075171867
0.3731935387
0.4793291264
0.6392234791
0.8891460309
1.156897246
1.154559097
1.153063827
1.1526851
1.152686186
1.152855831
1.151945319
1.15166307
1.151477493
1.151528958
1.152108751
1.153092377
1.155347533
1.042196198
0.6868382064
0.4511392125
0.2889982044
0.1857242659
0.1455735321
0.1706365006
0.2396428117
0.3413658408
0.4850960879
0.7001716213
1.042371235
1.15519118
1.15277566
1.152035897
1.151915155
1.152076661
1.151105778
1.150806037
1.150659232
1.150884202
1.151729804
1.153290353
1.156784739
0.8868342449
0.5740314537
0.3581329654
0.2033717727
0.09372483053
0.05352838077
0.08522471239
0.1576347178
0.2539514114
0.3849619584
0.5715496318
0.8878849886
1.156373655
1.152689878
1.151457071
1.151143127
1.151256252
1.150348662
1.150037488
1.149958869
1.150423722
1.15148161
1.153889239
1.112796741
0.7984652863
0.5225364358
0.3273976136
0.1843560302
0.0761191638
0.04939051489
0.1209085495
0.2086571937
0.3282035958
0.4978511465
0.784025165
1.157948724
1.152854637
1.150987962
1.150403799
1.1504444
1.149626561
1.149331724
1.149363212
1.150111596
1.151507186
1.154874613
1.039137302
0.7530707447
0.5161257726
0.3500295387
0.2348113741
0.1648611741
0.06174116505
0.1195343051
0.1965476057
0.304846294
0.4599471054
0.7252045223
1.073432154
1.153255664
1.150662542
1.149745484
1.149679013
1.149069912
1.148794003
1.148957128
1.150036188
1.151852943
1.156168259
0.9990096763
0.746446409
0.5381831262
0.396442915
0.314795103
0.3072477442
0.08767340507
0.1370890463
0.207237626
0.3096553032
0.4572168062
0.6994902925
1.01444903
1.153933189
1.150564124
1.149267658
1.149080679
1.148631132
1.148399625
1.148738538
1.150216514
1.152485229
1.157742508
0.9823239295
0.7564596992
0.572149201
0.448512257
0.3872903339
0.4296769059
0.1195780631
0.1669037726
0.2347293547
0.3310212706
0.4684036582
0.7004756184
0.9824535795
1.154840188
1.150717106
1.149035728
1.148704485
1.148395446
1.148215581
1.148727854
1.150595801
1.15334881
1.15932228
0.983320936
0.7805183127
0.612264503
0.4950211599
0.4273178364
0.4347738528
0.1567626221
0.2089361409
0.2787444196
0.3747579646
0.5060971567
0.7257214806
0.9807183534
1.155997519
1.151161975
1.149101667
1.148638671
1.148296528
1.148181876
1.148934685
1.151245411
1.154342144
1.160849807
0.9963616512
0.8225105916
0.6614350428
0.5430370069
0.4571498886
0.3924758627
0.04486533506
0.2062266013
0.2715581321
0.3467858253
0.439993154
0.5711825461
0.7712054961
0.9990816611
1.157264411
1.151855557
1.149454866
1.14885953
1.148391635
1.148342889
1.149307718
1.151981267
1.155654036
1.162636361
1.052672398
0.8742994459
0.7304996352
0.6117529294
0.5146502752
0.2775757709
0.09175755607
0.3065734781
0.3818916776
0.4503639574
0.5346209207
0.6554795222
0.8351123398
1.037548649
1.158602929
1.152750225
1.150061545
1.149376532
1.148555644
1.148564649
1.149727308
1.152763363
1.156843249
1.164058135
1.11965819
0.9616868709
0.8309914511
0.7203179275
0.6279914932
0.1078923161
0.1333948602
0.3827539141
0.5815164505
0.6071064137
0.6667459056
0.7730974642
0.9326145584
1.106668286
1.159932801
1.153738899
1.150817455
1.150043462
1.148847131
1.148910972
1.150242885
1.153584885
1.157981074
1.165238154
1.166814297
1.08970664
0.9753347215
0.8957223421
0.7808570541
0.05714091393
0.1539601821
0.4122459446
0.6983020203
0.8286885187
0.8434650102
0.9238714629
1.061934136
1.169788952
1.16117311
1.154744601
1.151684311
1.150875261
1.149109973
1.149211311
1.150681804
1.154312017
1.15899228
1.166103678
1.166885124
1.152475671
1.106917747
0.9939846542
0.6185469993
0.02902290515
0.2033915215
0.4628158435
0.7452842834
0.9661936152
1.078693249
1.109972101
1.170347035
1.171313758
1.162262258
1.155695859
1.152521983
1.151675615
1.149433287
1.149567155
1.151142487
1.154983634
1.159835286
1.16671185
1.166436255
1.150209884
1.093738969
0.9269434475
0.325744904
0.03305501965
0.2656830152
0.5254609659
0.7908515608
0.9850269767
1.096866423
1.15066671
1.172493835
1.172506954
1.163160245
1.156543506
1.153344957
1.152479056
1.149653613
1.149804497
1.15145515
1.15548633
1.160492806
1.166994705
1.165576291
1.147438135
1.084170702
0.8551952578
0.1729470374
0.05456889355
0.3145122244
0.5710207318
0.8154160099
0.9959176215
1.103240923
1.154244294
1.174132185
1.173380773
1.163837412
1.157224746
1.154031561
1.153154705
1.149907031
1.150078458
1.151782413
1.155924936
1.160962102
1.167026001
1.164532681
1.144343154
1.073563653
0.7916574732
0.140050608
0.07433637309
0.3348985921
0.5861893878
0.829530275
1.005772353
1.10880102
1.157152575
1.175357395
1.173980708
1.164377833
1.157829692
1.154657633
1.153768411
1.150020416
1.150206882
1.151951348
1.156198787
1.161272185
1.166871728
1.163208365
1.141031391
1.061245413
0.7180863519
0.1186635257
0.09298669674
0.3504607218
0.600432654
0.8421540335
1.014793635
1.113697723
1.159530524
1.176239299
1.174357235
1.164733092
1.158267009
1.155123097
1.15422284
1.15017816
1.150393596
1.152178466
1.156471017
1.161462329
1.166600913
1.161860536
1.137506301
1.045990185
0.65107956
0.1020086957
0.1126499021
0.3655592543
0.6147687424
0.8536215786
1.022872077
1.117941886
1.161445407
1.176833211
1.174557453
1.165016618
1.158666844
1.155549398
1.154630651
1.150183532
1.150429168
1.152259233
1.15662105
1.161581473
1.166277448
1.160486427
1.133628516
1.02558092
0.594926524
0.08966594565
0.132201581
0.3805672779
0.6292619076
0.8643129551
1.029859383
1.121475898
1.162920513
1.177182639
1.174619207
1.165154299
1.158910378
1.155815043
1.154876924
1.150268025
1.150561415
1.152449925
1.156842113
1.161665512
1.165947309
1.159087365
1.129077176
0.9980678881
0.5459873557
0.08017209961
0.1509381523
0.3957456085
0.6438304732
0.8743689579
1.035716862
1.124246906
1.163964001
1.177317892
1.174569149
1.165275023
1.159159886
1.156080609
1.155115888
1.150195719
1.150537509
1.152493312
1.156959689
1.161747404
1.165638986
1.157638437
1.123393711
0.9649731652
0.5023520881
0.0730020918
0.1685116197
0.4111359292
0.658188348
0.8836422144
1.040446679
1.126244445
1.164590996
1.177262641
1.174425687
1.165262862
1.159252535
1.156184847
1.155194918
1.150247007
1.150654052
1.152693753
1.157201906
1.161841231
1.165367747
1.156096469
1.116116806
0.9294170912
0.4631611185
0.0684448953
0.1847020718
0.4264025947
0.6717510653
0.8917677781
1.044036234
1.127506497
1.164833989
1.177040003
1.174201812
1.165273958
1.159391566
1.156331405
1.155311023
1.150135627
1.15060426
1.152731143
1.157329098
1.161964126
1.165138463
1.154400518
1.10707136
0.8944610483
0.4294278185
0.0656749391
0.1993444852
0.4407772986
0.683772692
0.8983763446
1.046497324
1.128105743
1.164738721
1.176673642
1.173908245
1.165144717
1.159361487
1.156307761
1.155260558
1.150191478
1.150738224
1.15297106
1.157628555
1.162114745
1.164948477
1.152485357
1.096539451
0.8621749396
0.40199233
0.06441074667
0.2122230364
0.4534765475
0.6936983565
0.9032860451
1.0478978
1.128130593
1.164355501
1.176186315
1.173553826
1.165075214
1.159415716
1.156365386
1.155286895
1.15007592
1.150691069
1.153022471
1.157780123
1.162303812
1.164789097
1.150299988
1.085137826
0.8337336262
0.3807181651
0.06424800565
0.2231824907
0.4640246215
0.7013217091
0.9065202451
1.048348958
1.127669297
1.163732488
1.175598721
1.173146411
1.164847685
1.159284213
1.156239634
1.155135235
1.150158158
1.150860559
1.15331527
1.158152186
1.162520861
1.164647845
1.147837464
1.073570865
0.8097429024
0.3652058967
0.06480795062
0.232156987
0.4722822175
0.7067291088
0.9082444656
1.047987073
1.126803587
1.162912194
1.174928751
1.172693604
1.164713887
1.159266365
1.15622377
1.155089149
1.150066786
1.150838577
1.1533942
1.158329124
1.162774517
1.164509425
1.14513592
1.062418165
0.7901933779
0.3547676908
0.065946468
0.2392276145
0.478385228
0.7101962935
0.9087026802
1.04695847
1.125607135
1.161930716
1.174191103
1.172200569
1.164408579
1.159059249
1.156024395
1.154866995
1.150173113
1.151039591
1.153732754
1.158770652
1.163046339
1.164358378
1.142256363
1.052032053
0.7746533785
0.3483370068
0.06761929716
0.2446291173
0.4826549777
0.7120949368
0.90816545
1.045405293
1.124144396
1.160817256
1.173397319
1.171674533
1.164210456
1.158964589
1.155933105
1.154748069
1.150135434
1.151066844
1.153855369
1.158973851
1.163345292
1.164179931
1.13926078
1.042550384
0.7624671854
0.3451192056
0.06973669798
0.2487090704
0.4854891749
0.712809432
0.9068864972
1.043452933
1.12246974
1.159595475
1.172556535
1.17111521
1.163870178
1.158728563
1.155706833
1.154504354
1.150237144
1.151271053
1.154210482
1.159458017
1.163648138
1.163964729
1.136205785
1.033973581
0.7529434688
0.3441319209
0.07212389262
0.2518243973
0.487269918
0.7126727058
0.9050757179
1.041204106
1.120628529
1.158286515
1.171678264
1.170534911
1.16356636
1.158521964
1.155508883
1.154281436
1.150283582
1.151373322
1.154395605
1.159704723
1.163967443
1.163710073
1.133161001
1.026233666
0.745490502
0.3447456521
0.07478279793
0.2542610092
0.4883012169
0.7119403864
0.9028929348
1.038738766
1.118657476
1.156906394
1.170781216
1.169935478
1.163295548
1.158334719
1.155330844
1.154092267
1.150457565
1.151677132
1.154891657
1.160362599
1.164293734
1.163434049
1.130272627
1.019274517
0.7396412793
0.3465197448
0.07771650501
0.2562255126
0.48881097
0.7108038175
0.9004604931
1.036119666
1.116584369
1.155465118
1.169935793
1.169388494
1.162812058
1.157983906
1.154999022
1.153735371
0.1473949524
0.05524085196
0.04246172373
0.2916218769
0.0807038408
0.05833205274
0.4165736075
0.1133017052
0.08454672176
0.4407017166
0.1437749016
0.1180966683
0.3996765876
0.03409025774
0.04229784432
0.1817064028
0.1477734693
0.3187743742
0.06557214889
0.03500172951
0.08684253679
0.2489756903
0.1850273336
0.07406822663
0.05391439617
0.04379291454
0.08106046387
0.02775645652
0.01840785897
0.0591179221
0.1013258267
0.1022745446
0.2943377643
0.2850502541
0.1700061602
0.02498931984
0.03757749649
0.08420901835
0.1177856564
0.1039945914
0.3716483764
0.3987084594
0.2996589964
0.3528468648
0.1960482691
0.2197289186
0.04435530373
0.03118463984
0.1154781995
0.1459729425
0.1239088832
0.4212759295
0.4420288974
0.4107969932
0.4529041179
0.1296308111
0.1667135589
0.08518792489
0.06142186001
0.4469635795
0.4030281725
0.4397525574
0.4254792859
0.07796171267
0.1019083621
0.01501286218
0.1348825294
0.116982312
0.4971334557
0.3874706071
0.3978793921
0.3680554424
0.03116204215
0.05085423589
0.2823484998
0.0914206907
0.0671132844
0.0613655151
0.1388332671
0.02933526417
0.05569401165
0.03859361184
0.02912091264
0.04663758814
0.03081962222
0.049508895
0.2229080179
0.2456398809
0.2405996898
0.1924797145
0.1799019034
0.1556187533
0.195001195
0.03086398847
0.02484475303
0.0699574828
0.03730667973
0.0424458542
0.05052651968
0.03751081506
0.06837713168
0.1692845556
0.1924978502
0.3687805447
0.1510253784
0.1283107823
0.1782967596
0.1529079095
0.05831167918
0.04548065488
0.10093484
0.06380610724
0.08280203422
0.04289154015
0.0612741585
0.09664175972
0.1032480456
0.128073671
0.4548303892
0.1034237741
0.07925854721
0.1269918534
0.1047039881
0.1133118304
0.08895292812
0.05181463408
0.07625749755
0.4165745326
0.01284485583
0.05394314231
0.03271367923
0.07824459408
0.05547452673
0.01237660374
0.1424182024
0.1370513045
0.01644161493
0.004781434938
0.03087399173
0.3639274326
0.05307669828
0.01936931874
0.0116611797
0.03236577803
0.01969224303
0.05090640569
0.2176292948
0.154323718
0.08870291048
0.09429231552
0.06035093881
0.03447689876
0.01346313201
0.008170184132
0.2221051222
0.2485974443
0.1516293526
0.01044437649
0.1498379657
0.1832025395
0.1544069204
0.01265038961
0.04731699073
0.04093033683
0.06409459975
0.1600748863
0.1466466029
0.1379532587
0.06715612109
0.1050739165
0.04118055673
0.01242838833
0.02186289666
0.02107974204
0.02906292864
0.0449477324
0.03967997151
0.02903192773
0.1324320805
0.1105045722
0.1303166761
0.08589984692
0.1073568015
0.1293078363
0.02308947699
0.01434062437
0.04046552687
0.02132938492
0.03615906194
0.02861277281
0.01854265158
0.02827352747
0.02043399928
0.01343822817
0.02197458061
0.01729464648
0.009688994514
0.01528730526
0.02088226199
0.03216332489
0.03273268543
0.03776913035
0.03684590626
0.01527210211
0.0106170726
0.07446361525
0.01300056527
0.02305838818
0.01019960533
0.0117432164
0.07095955964
0.09161580056
0.2486249037
0.2370627005
0.06082228246
0.05075233027
0.01231954274
0.04604616144
0.1861499997
0.1746372917
0.2020235664
0.1908181873
0.04637616395
0.04910267289
0.04153940043
0.08886781307
0.064269025
0.05431137692
0.03988394121
0.06382834501
0.09971557454
0.03555174673
0.02259693116
0.01421142561
0.0502675511
0.02511346336
0.03923306757
0.02433411308
0.05511012431
0.04066761633
0.03976419402
0.1903519526
0.03143343667
0.1897984227
0.2082390593
0.03495922133
0.03890473238
0.03182678728
0.03448591242
0.204860019
0.029553275
0.02931958048
0.04025792467
0.06824811752
0.06358486142
0.07470935786
0.06994266259
0.04050512966
0.04513928368
0.05556043784
0.0503293285
0.06191195165
0.05703302449
0.0442867497
0.1399632216
0.1384921103
0.1667848905
0.1652039795
0.05491561228
0.0100789404
0.05376536931
0.09454697273
0.09281556795
0.1153605484
0.1138585043
0.024435327
0.03498053528
0.09977675227
0.0272577534
0.01636831943
0.06759249747
0.217722128
0.2060997829
0.2331428279
0.2215643552
0.06886001124
0.02071461441
0.04956818852
0.04857638956
0.0714794702
0.07065913962
0.008415528249
0.02850131325
0.07525218824
0.06446531718
0.1701345193
0.1619725932
0.02490078497
0.01244893308
0.01698885386
0.01443804803
0.03096478924
0.01322880056
0.01448482026
0.01389909352
0.03100214488
0.04317231621
0.01466025058
0.01482645039
0.003774021527
0.0157363686
0.01281357588
0.5902833802
0.3759373388
0.3789633917
0.2557182839
0.009174445804
0.005394157173
0.1285388934
0.3146051601
0.2798147027
0.005817865173
0.01199782957
0.01146090385
0.08990526524
0.07924078511
0.03049548026
0.1859047997
0.1666527756
0.06685277276
0.008934024507
0.01507063218
0.01204037694
0.008256476567
0.01194139298
0.008503520602
0.02710355931
0.01148032999
0.01083292372
0.03514148416
0.04113377103
0.01171350261
0.01615330679
0.008556943454
0.008739022827
0.03265521734
0.1428754183
0.3070133144
0.2962602942
0.3211431573
0.3105696287
0.1459239475
0.2635298361
0.2522580883
0.0928429971
0.03423600826
0.0968914613
0.09193754625
0.01275886951
0.01869959972
0.07202908415
0.04419408539
0.01299617446
0.01157607936
0.0383526831
0.04175089287
0.03716404759
0.04863256108
0.04339151974
0.04038017349
0.03019003228
0.008510358067
0.008537180049
0.02597290444
0.179264898
0.3348743011
0.3245839597
0.05987559844
0.06172930103
0.1326705243
0.01715073993
0.01865138989
0.04871585323
0.07133098511
0.101386797
0.09390110512
0.04847967274
0.08220576031
0.07660454032
0.09117521363
0.08439437833
0.04951896072
0.1158559294
0.2782075488
0.2671814715
0.2926697037
0.2818574357
0.1175501211
0.0997086068
0.03744288191
0.03815861639
0.02175373838
0.02258342459
0.08343006823
0.1222290042
0.05585069652
0.05948223332
0.03845450254
0.03912297932
0.1085366091
0.1034504998
0.03683562161
0.05074644222
0.009123275346
0.01501671742
0.05167341195
0.03983829484
0.07531921418
0.02114898763
0.02161390538
0.02074562361
0.06450431981
0.01268406138
0.004397138208
0.1258460225
0.1103978435
0.09025985965
0.08627622103
0.03056611051
0.0152448312
0.02327583521
0.06008293743
0.01914410433
0.01229833379
0.01761020531
0.01892036763
0.002816573116
0.03191827604
0.02075354045
0.01195473547
0.006428799334
0.01152059478
0.01042529867
0.01021486004
0.02288017041
0.01740769781
0.00821982268
0.03839231638
0.03993756482
0.01454120582
0.01083185874
0.00698287113
0.011385213
0.01574754176
0.01119737721
0.01213552343
0.03356784304
0.01143124559
0.01130525012
0.013263755
0.01330457111
0.02793741047
0.01345059486
0.01322605924
0.01369377141
0.01341674546
0.01335835348
0.01558755855
0.01399017258
0.01944872753
0.01663290686
0.01359022562
0.01280546539
0.02133522668
0.01775567549
0.02370408111
0.02197148012
0.01720994339
0.0153046881
0.01234097317
0.009873789059
0.007756213081
0.02874466976
0.03454519852
0.01060482101
0.009949178138
0.01103730082
0.01149618033
0.04007484726
0.009094228635
0.008917270064
0.0101225494
0.009174618982
0.008845343186
0.03364419985
0.008623766609
0.01092019127
0.01161332712
0.01092537436
0.01685097256
0.04226136485
0.03791320317
0.01045734195
0.03065963874
0.02634571549
0.03637916469
0.03235910729
0.01053904451
0.01209619607
0.02984711654
0.02501051123
0.1048632892
0.09863983955
0.03812538368
0.0484987889
0.1116641938
0.1065495267
0.04449752864
0.0436975285
0.06607709166
0.07384903146
0.08926848063
0.05539229895
0.06935108511
0.06687030789
0.05913816888
0.1317354033
0.1218086013
0.0962556558
0.1240044198
0.0590632481
0.03738831654
0.04083287119
0.05092407335
0.0324407051
0.0362136324
0.01829721086
0.01732742694
0.04518628627
0.01267108124
0.01259215153
0.009782409939
0.01822154187
0.02165122588
0.01296596362
0.01839326387
0.03474056106
0.02526982373
0.01916349441
0.02966475344
0.09271167787
0.08171971236
0.09856001501
0.09497719198
0.03076283308
0.07389346885
0.07183785623
0.07857808023
0.0746304595
0.03639132397
0.1131757283
0.1092606596
0.1194384278
0.1145529159
0.03695555106
0.03289827629
0.1031793538
0.09978011475
0.1079973942
0.104353669
0.0332245894
0.008610102752
0.008526693967
0.03000014934
0.02711505864
0.00833104677
0.008628111516
0.04365481202
0.04291128758
0.04576605432
0.04391065531
0.0415328516
0.04051250179
0.04266312218
0.04179936708
0.0687000549
0.066863018
0.07119815373
0.06933603399
0.06167798316
0.04840181425
0.06609912596
0.0641173631
0.01966844866
0.01680707863
0.02510296152
0.02120837834
0.006701373969
0.01102949865
0.01047314884
0.01570725877
0.01129937036
0.0365025154
0.03709488488
0.0984373103
0.02180636676
0.02158576007
0.02246586044
0.02199040517
0.02091234617
0.08566677563
0.02327223512
0.03435802962
0.04123295785
0.05403792235
0.1205628907
0.03777256208
0.02461899585
0.04037603976
0.03746206524
0.02324065575
0.02269950451
0.0241754445
0.02346184963
0.1098318561
0.03934756186
0.04021983914
0.007584913434
0.02279816894
0.01137824789
0.0111968324
0.01098645907
0.02126263321
0.00948808452
0.01626727384
0.01292351319
0.01335739065
0.05104109432
0.04469718276
0.02055878623
0.0210402437
0.07441569644
0.06662103052
0.01968384607
0.02049783978
0.01273443159
0.02948410191
0.08381370524
0.07580664198
0.01412404757
0.0133584547
0.01837924205
0.01271088671
0.01461251698
0.01505537005
0.0318107555
0.009765651402
0.01456487041
0.01258995976
0.01483291314
0.02159321944
0.05058249766
0.1068582215
0.1372932184
0.01221646505
0.01166328402
0.1881851432
0.2370656488
0.1945815824
0.008064182219
0.02969130439
0.01365710235
0.01533593521
0.1337076089
0.1417379209
0.1596417879
0.004641464537
0.006996431719
0.00519407304
0.004867074875
0.005540187472
0.004343747959
0.05376203585
0.03352139501
0.02135385538
0.02442198979
0.02285052219
0.02611316351
0.2065145802
0.3465449697
0.3513965775
0.3250924911
0.3384254537
0.2098629927
0.03579784835
0.03143780619
0.01228190791
0.05416416552
0.06450021775
0.1256277785
0.11844461
0.1132882164
0.04897520139
0.02645574111
0.02618639432
0.03288890798
0.348120774
0.3382380605
0.1824514412
0.1460567361
0.06708255752
0.07066922928
0.07356748673
0.08369732271
0.1585400716
0.05935663828
0.1261603059
0.1202397875
0.01264355242
0.01255264218
0.0133470394
0.02045237375
0.02074972752
0.03356359006
0.01232041663
0.01294232364
0.01277217086
0.02146861069
0.0427101155
0.03702684292
0.01931398059
0.03216471414
0.02000043929
0.02018261894
0.01972792873
0.01342768987
0.01058917563
0.01178960108
0.01178497404
0.01256385026
0.01929230329
0.02398248097
0.04724426617
0.04015460675
0.0357326488
0.03254543567
0.02396644141
0.03510153738
0.01324939443
0.01748119848
0.01341004661
0.009737578946
0.009805412518
0.01366555653
0.01331948434
0.02187226677
0.01390793865
0.009727581509
0.01559367084
0.01816530533
0.01709643264
0.01194334137
0.01503726112
0.01407850045
0.01067651328
0.01094257738
0.007073632188
0.01064252703
0.0105061098
0.04827072092
0.04364620608
0.01831669352
0.01015790819
0.01176059947
0.01097792685
0.01219397382
0.01286345917
0.01215431652
0.0471612693
0.03677627025
0.04221809355
0.06490890482
0.09021925503
0.08904509391
0.04139070341
0.06587957358
0.0624778216
0.08807176592
0.08657015363
0.06262849232
0.030772198
0.03722732142
0.03390350307
0.0261354332
0.02694025859
0.02223078686
0.04592348092
0.0446926157
0.0473941534
0.0239709912
0.0342317331
0.03262415674
0.05200591094
0.05164643037
0.03118059392
0.02902908588
0.02862979193
0.03159205074
0.03090029384
0.03546235062
0.05765345235
0.05708652161
0.06097712714
0.06027499307
0.03817920561
0.03214707323
0.05315248277
0.05266482458
0.0565021486
0.05592437381
0.03405033349
0.06461911937
0.06641983891
0.1444905619
0.1340641959
0.06228731066
0.06404562197
0.09007517234
0.09298396113
0.1717415885
0.02706942498
0.02692321069
0.02839908215
0.02818407506
0.02073129442
0.02666306537
0.02655461563
0.1602342897
0.08577522063
0.08898899279
0.009748604219
0.009702652214
0.01080909819
0.01048472181
0.01003311656
0.00952573537
0.006567398068
0.04981700272
0.01939940312
0.02361173963
0.1337879785
0.1281345491
0.0625131313
0.07169777863
0.1405025646
0.1354675752
0.03287664329
0.03293185928
0.0499146284
0.04826592614
0.03248291133
0.03241977424
0.01227326849
0.02355662601
0.03755662374
0.03679767901
0.009281258733
0.0150132618
0.01574405333
0.01480965512
0.01462665757
0.01907007338
0.0193115003
0.03141226342
0.01347400541
0.009760169463
0.01324474828
0.01403706265
0.02941744317
0.0185619761
0.01915642263
0.01418070083
0.02568245286
0.02124906323
0.01238619493
0.01235103217
0.01159992175
0.01162597567
0.01365202349
0.006266647418
0.004079747439
0.007236481074
0.01155567899
0.0119670781
0.01182746233
0.01148204919
0.01198096432
0.011289008
0.00977156116
0.006401776994
0.005193800773
0.009800545499
0.01010663926
0.009439868701
0.009563422218
0.01120730182
0.01710067057
0.01731924748
0.01675716651
0.01693211059
0.01109251922
0.008597443554
0.01268668644
0.01267836155
0.01311582345
0.0127874493
0.008568480394
0.01231641795
0.01927566878
0.02142935723
0.01758124942
0.01813655137
0.01193208948
0.008514811503
0.01269887137
0.01271448071
0.01264973019
0.01268927852
0.00851980843
0.009164349112
0.009314192293
0.00890904497
0.009276561989
0.03760461685
0.05647503635
0.05602339949
0.02198609
0.03653040307
0.03627504911
0.03785072594
0.03689838747
0.02219660191
0.01309279644
0.0126653211
0.01301165806
0.013175344
0.02064749663
0.02045382311
0.02108742387
0.02085885384
0.0161429088
0.03567195479
0.02135386468
0.02227888107
0.02131995408
0.03577109925
0.03554987256
0.03611182466
0.03592595847
0.02144723683
0.0220301507
0.02140733987
0.03212776083
0.02303694437
0.01654407579
0.008882169153
0.0126071713
0.0124286742
0.008818541084
0.0438409639
0.03067468202
0.002966083396
0.03056790419
0.04658698361
0.04626046606
0.01910705655
0.01220893071
0.009003324834
0.003352090699
0.01423242396
0.0147259591
0.01975552401
0.01992521451
0.03210014394
0.02014598859
0.01038823908
0.01095768031
0.01425674629
0.005039799054
0.009168582873
0.006870566377
0.007636241324
0.007862905601
0.01048907115
0.006853949425
0.01202199237
0.01184150379
0.01205980289
0.03989867469
0.0311393363
0.008035085317
0.0100959096
0.01123250529
0.01828842169
0.02048399598
0.01208791758
0.01493239085
0.01423923446
0.0118099824
0.007754979195
0.01172300128
0.01331999987
0.009414756979
0.01317821708
0.01332259459
0.01357920455
0.01365319416
0.01362735669
0.01343195128
0.01330726614
0.01350298932
0.01403415839
0.01388938593
0.01339657002
0.01392382749
0.01449889217
0.01438024081
0.01601930886
0.01787256609
0.01523577481
0.02432954999
0.01978040616
0.01523395442
0.01426508134
0.01552064038
0.009407994478
0.01504482114
0.01593742241
0.01079380483
0.0150032902
0.009960339934
0.0104071838
0.01641156288
0.01657005342
0.01601703455
0.01625563288
0.0102440173
0.01123170035
0.01909782965
0.01875917838
0.009067975539
0.008985850793
0.009456315472
0.006553455594
0.009157024423
0.009058042525
0.008709556116
0.006901955089
0.009410897621
0.01578217131
0.01407412066
0.01825200284
0.01730715709
0.01033008203
0.01075824403
0.01084000532
0.01268243625
0.007268408466
0.01107604941
0.01077236475
0.01086078958
0.01074051756
0.01086395977
0.01463781001
0.01310240841
0.01019362897
0.04557834136
0.04278124313
0.08017178054
0.07227504355
0.04327047853
0.06237771646
0.0858172011
0.08268048424
0.03437027774
0.03174194074
0.02938326393
0.02244491779
0.02925318505
0.04143268518
0.04234939132
0.03733331394
0.01821866517
0.02631835074
0.02672097487
0.02390096488
0.02472368481
0.01720481154
0.01186870307
0.01270769194
0.01946969431
0.01363506785
0.01304273117
0.01458068429
0.01388345686
0.01973446778
0.0133709062
0.01392653454
0.010953652
0.01422269264
0.04780172253
0.04797836275
0.0310346648
0.03074732191
0.05073766693
0.05072644542
0.0296972401
0.02931820491
0.03045022038
0.03003774426
0.05868961726
0.05814983936
0.03584652487
0.03755059793
0.05973969419
0.05922085687
0.05427310859
0.05375730093
0.03256072397
0.03359676835
0.05533657643
0.0547994486
0.008547589253
0.01279423834
0.01283204698
0.01274828614
0.01278694891
0.008537248418
0.008615107595
0.01196614102
0.01045583082
0.01278455137
0.01258675689
0.008637528362
0.04339559106
0.02580302915
0.026068754
0.02538240453
0.02558640387
0.04315862654
0.04467932955
0.0270005346
0.02748602958
0.02633159966
0.02663827093
0.04421804249
0.04116449462
0.02417524498
0.02440969658
0.02381043368
0.02403717694
0.04093600667
0.04239396683
0.02499123729
0.02517964355
0.02457478465
0.02480355694
0.04212730378
0.027497476
0.02731435762
0.06809646941
0.04627393869
0.04658024784
0.04560939214
0.04587853531
0.0674277574
0.02793196799
0.0277294526
0.02542319193
0.02666100838
0.05969719979
0.0420071551
0.04171746082
0.02838341563
0.0297821162
0.0535321359
0.06563940539
0.04494197283
0.04513491802
0.04425740061
0.04421222349
0.06448524453
0.02623678755
0.0262776841
0.009798447368
0.009867402767
0.009830206777
0.01031505366
0.009945005548
0.01079911875
0.009489162237
0.00953787296
0.009289713749
0.009383814077
0.01070920348
0.01407681668
0.009693801342
0.01023104104
0.00961124304
0.009526761949
0.01223115489
0.03642330038
0.05401153525
0.05372109633
0.05536269537
0.05501519036
0.03699857994
0.02175952939
0.02151892255
0.02233977372
0.02206783515
0.02197981176
0.01717722954
0.0245178059
0.04461164729
0.04013241965
0.05159722305
0.04986977451
0.03465370082
0.02670644224
0.0186113265
0.0238933901
0.02540278676
0.03971904507
0.02345672553
0.02374352504
0.02276367142
0.02350776473
0.0397825918
0.02307304333
0.02284984796
0.02390391273
0.02365776674
0.01147968234
0.01114626173
0.01107615208
0.01253959493
0.01156257278
0.01152513122
0.01110591478
0.0111811813
0.01090951554
0.01106653207
0.007468393653
0.01325082283
0.01281419324
0.01302827792
0.01280376237
0.01293339096
0.01319361029
0.01999880117
0.01995638809
0.02025123103
0.02018616097
0.03077337678
0.03073713657
0.04628690849
0.01918933679
0.02024213714
0.01972131969
0.01979152314
0.02077056791
0.03496219504
0.03460157864
0.03538775031
0.03510908136
0.02085122229
0.02022945921
0.03391959033
0.03204325746
0.03448241451
0.03389151739
0.02021373628
0.01276270877
0.04469170627
0.04415579886
0.02926032917
0.01440614765
0.01164998084
0.0113758392
0.008622188097
0.01181458267
0.01359491191
0.01893354157
0.01350691877
0.0149521478
0.01466074292
0.0315283451
0.01942729392
0.01962955075
0.01328867829
0.0128898132
0.01299333395
0.01403050263
0.01367539729
0.009211088506
0.009502078813
0.01456231645
0.01310006163
0.01382553193
0.01578181104
0.01944672109
0.02941728284
1.155259134
1.155834892
1.155830787
1.156083324
1.157060713
1.156446899
1.157470862
1.042431261
1.157379712
0.9962771504
0.863846407
1.039666484
0.8370967141
0.7954819043
0.9328884827
0.7846407214
0.774781878
0.9191530831
0.7800691247
0.8284762649
0.9831417575
0.8486639087
0.9564939996
1.14531479
0.9927079046
1.158127968
1.157041666
1.157736828
1.156621772
1.1562559
1.155339685
1.15657352
1.155924749
1.157140074
0.9881082041
1.157440027