/*--------------------------------*- C++ -*----------------------------------*\
| =========                 |                                                 |
| \\      /  F ield         | OpenFOAM: The Open Source CFD Toolbox           |
|  \\    /   O peration     | Version:  v1912                                 |
|   \\  /    A nd           | Website:  www.openfoam.com                      |
|    \\/     M anipulation  |                                                 |
\*---------------------------------------------------------------------------*/
FoamFile
{
    version     2.0;
    format      ascii;
    class       surfaceScalarField;
    location    "2.13";
    object      phi;
}
// * * * * * * * * * * * * * * * * * * * * * * * * * * * * * * * * * * * * * //

dimensions      [0 3 -1 0 0 0 0];
oriented        oriented;


internalField   nonuniform List<scalar> 
25162
(
0.000413621299
0.9162363787
0.0004922497372
0.9166213716
0.000552111939
0.9165901378
0.0002675518719
0.9166317516
0.0003028084292
0.4583395267
0.0002780251652
0.4583167121
0.0003352208665
-0.0003519329412
-0.000427656239
0.4582964557
0.0004812005619
-0.0005318860088
0.4582469304
0.0006199555892
-0.0007167014306
0.4582238453
0.0008228561774
-0.0009482840081
0.4581961785
0.001087105473
-0.001231869232
0.4581845106
0.001382358668
-0.001536891256
0.458197383
0.001671008269
-0.001788456729
0.4582436168
0.001878339887
-0.001931226567
0.4583182313
0.001947995302
-0.001925267383
0.458394683
0.001860584415
-0.001770117768
0.4584488514
0.001656266402
-0.001517126337
0.4584708499
0.001381276466
-0.001239739047
0.4584855993
0.001069139756
-0.0009940664352
0.4584625026
0.0008815639032
-0.0007344051014
0.4584698237
0.000614581442
-0.001509993814
0.9187321259
-1.591900365e-06
-0.0005705401528
-0.0009428042977
0.9187828105
6.422683835e-05
0.9158429689
0.9138642268
0.001134517446
0.9151018613
0.001761207276
0.9159946817
0.001925602535
0.9164257425
0.0004629438346
0.9172788198
0.0008155905886
0.4581279905
0.0005557335159
-0.4582207801
-0.4582160316
-0.0006844761915
0.458052123
0.0008483848273
-0.4580845843
-0.001054584754
0.4578320386
0.0006173522448
0.0006897781841
-0.2289858484
-0.0007596272947
0.2289176965
0.0008277792317
-0.001132394781
-0.2289245013
0.2288328479
0.001224048245
-0.001624965521
-0.2288615305
0.2287351909
0.001751305181
-0.002245494316
-0.2288219607
0.228674368
0.002393086978
-0.002919056281
-0.2288384424
0.2287610199
0.002996510178
-0.00272740075
-0.2289467615
0.2287155485
0.00295856274
-0.003844525538
-0.2291187817
0.2290585768
0.0039047305
-0.003842075402
-0.2292645477
0.2292949119
0.00381171116
-0.00351384559
-0.2293671353
0.2294834626
0.00339751828
-0.002967682807
-0.2294061649
0.22956318
0.00281066767
-0.00236430769
-0.2293921055
0.2295474281
0.002208985096
-0.4589044624
-0.003487359616
0.4603745384
0.002017283604
-0.0006662395728
0.4610218451
-0.001061555465
-0.45929405
-0.001094685215
0.9184801442
3.022529706e-05
0.001316441676
-0.0006628555048
0.9183509808
0.0005123481018
0.9146677653
0.914376575
0.00142211486
0.9136797464
0.003857585438
0.9135592112
0.00652638937
0.9137569386
0.002571625578
0.9152478907
0.005985692833
-0.4581311696
0.4580170854
0.002685709832
-0.457931257
-0.002599414565
0.4586598554
0.001870816122
-0.4574914796
-0.00185999065
0.4573687769
0.0009629392027
0.001019754141
-0.2285884286
-0.001213836103
0.2284465816
0.001355683023
-0.2283641713
-0.001875723535
0.2281575777
0.002082317173
-0.2282137545
-0.001703671079
0.2336602759
-0.00374175867
-0.2381849303
0.02254365697
0.2433988642
-0.02775374136
-0.2361978908
0.0392939544
0.2385900748
-0.04168389514
-0.2270647885
0.04440708604
0.2264807768
-0.04382456237
-0.2191516172
0.03759881201
0.2156261518
-0.03407768487
-0.2207270294
0.01947857901
0.2146835943
-0.0134391347
-0.2300595524
-0.005499741354
0.2291316679
0.006427336339
-0.2302699913
-0.005547455856
0.2305888386
0.005228608521
-0.004000305461
-0.2302827032
0.230965029
0.003317979733
-0.4630579467
-0.0008919550792
0.461982064
0.001967837859
-0.4601928141
-0.002006630795
0.4602825878
0.001916857113
0.00103549796
0.9206767062
-0.001844207426
-0.001387852551
0.002161493762
0.917224985
0.001014214777
0.9158150443
0.9153907897
0.0004046981745
0.9132750482
0.00088767948
0.9130762299
0.00193205089
0.9127125672
0.002856460584
0.9125248707
0.00179861029
-0.4573321305
0.4569861183
0.00320247271
-0.4602999439
-0.004314318233
0.4573652758
0.007248986399
-0.4589822055
-0.008374956087
0.460694675
0.001654174562
0.005008312022
-0.2279306107
-0.001548030276
0.227780481
0.001698159925
-0.2305535076
-0.0001445049525
0.2380352864
-0.007335025677
-0.2546569116
0.02915987277
0.2610974998
-0.03559091606
-0.2573970148
0.05082135205
0.2609655238
-0.05438132484
-0.2441616572
0.06079836923
0.2451355516
-0.06177012697
-0.2247951978
0.06226688725
0.224324228
-0.06180121821
-0.206635066
0.05831678257
0.2045902962
-0.05628314622
-0.1977402694
0.04646125426
0.1930568041
-0.04179095889
-0.2073007812
0.02377346107
0.2002435023
-0.01672553328
-0.2341354821
-0.0009526132156
0.2357567413
-0.0006688887136
-0.004520007969
-0.2318898975
0.231936804
0.004473101465
-0.4621155864
-0.007017426261
0.463514036
0.005618976653
-0.4611364495
-0.004228769774
0.4622952947
0.00306992458
0.004143587406
0.9212005523
-0.002452935649
-0.002214497856
0.002798425709
0.9185701467
0.001302321481
0.9173111485
0.9166931112
1.696713099e-05
0.9132580811
6.845627855e-05
0.9130247407
0.0002365613335
0.9125444622
0.0009234893328
0.9117213699
0.0001165728161
-0.4568007532
0.4560833437
0.001640898889
-0.4560633212
-0.001960622273
0.4555626347
0.002461308856
-0.4547822533
-0.003168350969
0.4541956877
0.002023819786
0.001731096735
-0.2285999604
-0.003737153578
0.2276078699
0.00472923613
-0.2602516582
0.01072676029
0.2688247205
-0.01928782057
-0.2766049899
0.03889798375
0.2802142626
-0.04249130211
-0.2663828589
0.04718151068
0.2660743591
-0.04686298174
-0.243962257
0.04218188961
0.241917552
-0.04013615837
-0.2233770139
0.03591546305
0.2232456796
-0.03579081572
-0.2029542582
0.03859194658
0.2044205293
-0.04007245996
-0.1840502935
0.04268471423
0.18321075
-0.04186531022
-0.194711479
0.04696196586
0.1834360483
-0.03570168839
-0.2076410403
0.01416307997
0.2010090688
-0.007539910111
-0.006627811366
-0.2334830954
0.2341162174
0.005994689323
-0.4654066488
-0.0083892957
0.4672656668
0.006530277715
-0.4634397395
-0.005124020846
0.4646447033
0.003919057101
0.005109449479
0.9237898549
-0.004246822124
-0.00345192992
0.002886159078
0.9207934371
0.001323929616
0.918873378
0.9180170408
-0.00024485659
0.9135029377
-0.0004093686375
0.9131892528
-0.0003651722292
0.9125002657
-7.521518313e-05
0.9114994789
-6.806598035e-05
-0.4552891197
0.4550651338
0.0001487707139
-0.4551820359
-0.00100951168
0.4545394924
0.001652055164
-0.4535681916
-0.002049356119
0.4527423117
0.001401492781
0.001473743197
-0.2420076729
0.002543535177
0.2468650323
-0.007395090345
-0.2799124544
0.020925679
0.2835474297
-0.02454340846
-0.2846396263
0.02866392876
0.2830210304
-0.02702864884
-0.2568955492
0.01529971075
0.2569545805
-0.01535066983
-0.2297441878
-0.004528325464
0.2246345196
0.009638926648
-0.222878463
-0.02251740457
0.2228651569
0.02252950075
-0.21788954
-0.007670559325
0.223705484
0.001847031615
-0.1948040168
0.02122503347
0.1976066
-0.02404623745
-0.1711690873
0.02477122994
0.1702022353
-0.02382656861
-0.1847909637
0.01564905895
0.1808324843
-0.01170742439
-0.002660122423
-0.230949966
0.2279128903
0.005694516889
-0.4689946075
-0.00894571021
0.4707990504
0.007141267294
-0.4654773074
-0.005788853406
0.4662820887
0.00498407215
0.004507583789
0.926839001
-0.003678424545
-0.003878305404
0.00253353921
0.9227674817
0.001091912575
0.9203150046
0.9191089534
-0.0006246658753
0.9141276036
-0.001132306131
0.913696893
-0.001512394967
0.9128803546
-0.00033212239
0.9113598222
-0.00104061593
-0.4550095263
0.4547787176
-0.0001013136645
-0.4536030183
-5.062711436e-05
0.453332615
0.0003210303929
-0.4525296005
-0.001175448281
0.4525468035
0.000655630552
0.0005024266227
-0.2572206281
0.005125582276
0.2602054679
-0.008100783434
-0.2945979065
0.01540312045
0.2904612065
-0.01124474381
-0.2787723513
0.0121281011
0.2770409106
-0.01037858127
-0.2354911886
-0.001792715935
0.2275803279
0.009709280124
-0.2111151707
-0.03096852503
0.1073588187
0.101692436
0.01441343079
0.01861901019
-0.02311598417
-0.1088259741
0.1082215842
0.0237203741
-0.01892594367
-0.2468122313
0.03621217774
-0.01931105313
0.1239729206
0.1248641298
-0.01487014411
-0.2111009716
0.217962048
0.007997803504
-0.1721025426
0.002656512561
0.1766035777
-0.00718060262
-0.1747397266
0.01177657969
0.172681165
-0.009735689289
0.001507650458
-0.2150716449
0.2120546137
0.001502770035
-0.4726473739
-0.00797498634
0.4739779681
0.006644392187
-0.4675321782
-0.005121778457
0.4687639761
0.003889980557
0.003008130455
0.9291685798
-0.002513545192
-0.002824164098
0.001554545346
0.9242210668
0.0006395793403
0.9212299706
0.9197485327
-0.001009744688
0.9151373483
-0.001973319983
0.9146604683
-0.002753956784
0.9136609914
-0.001485714626
0.9120956708
-0.002004090777
-0.4547996691
0.4548524539
-0.001538499418
-0.4532484323
0.001643008866
0.4532105293
-0.001605105938
-0.4522645879
0.001510524073
0.4533926608
-0.0008706596531
-0.001768110286
-0.2651521996
0.001364745006
0.2654842901
-0.001684498589
-0.2921527772
0.002142193862
0.2922444408
-0.002212462758
-0.2711036664
0.0006379416127
0.2700194709
0.0004628759241
-0.2137394716
-0.005349951656
0.2116360693
0.007455264612
-0.09562061352
-0.004988298042
0.09567672897
0.00493218259
-0.02675403362
-0.1355101235
0.1381144085
0.02414974866
-0.02457402139
-0.2405650342
0.24652733
0.01860706113
-0.1824644887
-0.007852459935
0.1844587475
0.005840233506
-0.1705543195
-0.002703485657
0.1709112891
0.002326574128
0.002455603246
-0.2070265653
0.2054265535
-0.0008621379715
-0.4756520219
-0.005209497276
0.4770406076
0.003820911505
-0.4697648697
-0.002834539213
0.4706101853
0.001989223576
0.0005085205588
0.9303914249
-0.0005241789757
-0.001207186704
2.67438737e-05
0.9247028435
-6.162809904e-05
0.9213183426
0.9196869046
-0.001380070915
0.9165174192
-0.002689471012
0.9159698684
-0.004069374022
0.9150408944
-0.002397224548
0.9133237972
-0.002900275824
-0.4550775094
0.4552926833
-0.00261239841
-0.4533274117
0.002854750137
0.4535541229
-0.003081461337
-0.454053879
0.003287233218
0.4550475366
-0.002077866804
-0.002202478692
-0.2676828418
0.003340771527
0.2680036457
-0.003654472158
-0.2911837047
0.003652194133
0.2908791529
-0.003335671488
-0.2666366206
0.001749840733
0.2660402254
-0.001144235953
-0.2096951289
-0.0001998216965
0.2098364209
5.900546024e-05
-0.09926657861
0.001507662243
0.09975468391
-0.001995767547
-0.01202600064
-0.1510221396
0.1517117688
0.01133637148
-0.01359078078
-0.2604956992
0.2631306198
0.01095428839
-0.1915543573
-0.004557484554
0.1931681383
0.002933724951
-0.1723511677
0.0004009093684
0.1728513494
-0.0009123261882
0.0009971842833
-0.2039863252
0.203569048
-0.0005854928625
-0.4785657826
-0.001048437416
0.4797320995
-0.0001178794399
-0.4710661959
0.0006824682214
0.4713155943
-0.0009318666056
-0.002562221128
0.9299407141
0.001835803019
0.0011771289
-0.001847732202
0.9239883545
-0.0009730227116
0.9204436331
0.9187138819
-0.001710933631
0.9182283528
-0.003527994926
0.9177869297
-0.005269306316
0.9167822058
-0.003297487576
0.9151619909
-0.003810012466
-0.4556848736
0.456071291
-0.003683905049
-0.4538418773
0.004120203159
0.4543385519
-0.004616877781
-0.456144935
0.005077093841
0.4577665819
-0.003151135953
-0.003548250924
-0.2688287863
0.004529085753
0.2692206642
-0.004920103102
-0.2902606509
0.005320278113
0.2901527163
-0.005210661264
-0.2649873005
0.004422322464
0.2646902159
-0.004123814854
-0.210826345
0.00356797349
0.2111574164
-0.003899029133
-0.1019013538
0.002999601473
0.1021041571
-0.001588125306
-0.001614279411
0.004924218602
-0.1503050467
0.1494657063
-0.004084878239
0.002527118586
-0.2629347406
0.2611010751
-0.000694044283
-0.1941243717
-0.00162225293
0.1940390014
0.001703613765
-0.1745304532
-0.0008743065508
0.174996657
0.0004030247775
0.001064018558
-0.2050471662
0.2054757139
-0.001495355826
-0.4797430281
0.004625355966
0.479123188
-0.00400551589
-0.4711103177
0.003767080652
0.4713429885
-0.003999751422
-0.005945625825
0.9277284745
0.004485509725
0.003672355673
-0.003887525035
0.9219302537
-0.001961230562
0.9185173386
0.9167526514
-0.002129081745
0.9203574345
-0.004237997287
0.9198958453
-0.006465905155
0.9190101137
-0.004173520295
0.9175420824
-0.004672476378
-0.456624426
0.4571729428
-0.004722037116
-0.4548901749
0.005389437402
0.4554910651
-0.00599032766
-0.4597969386
0.006683622561
0.4621968714
-0.004447072475
-0.00463949626
-0.2705484677
0.005750063355
0.2710380765
-0.006245743647
-0.2900344
0.007010857279
0.2900527631
-0.007038054075
-0.2640039089
0.006704399868
0.2638252719
-0.006531738143
-0.2122613864
0.006152346923
0.2126730214
-0.006564080864
-0.1032731769
0.004073447392
0.1033989487
-0.002086147218
-0.002113071975
0.01445289763
-0.141722445
0.1404732428
-0.01320369544
0.01336253361
-0.2507620673
0.2457547573
-0.008354371445
-0.1903317002
-0.00301728913
0.1926685823
0.0006818077225
-0.176332716
-0.0004038724587
0.1770006336
-0.0002621992096
0.00299295842
-0.2094182042
0.2103620683
-0.003936061086
-0.4780070399
0.009934678794
0.4764628046
-0.008390443542
-0.471347627
0.007056622954
0.4701671088
-0.005876104807
-0.009068373896
0.9240409772
0.006674014576
0.00608185662
-0.005846169135
0.918708049
-0.002865087634
0.9155362571
0.9138875637
-0.002512171134
0.9228696057
-0.005028474932
0.9224121491
-0.007644271252
0.92162591
-0.004974710683
0.9201493367
-0.005276814881
-0.4578611282
0.4585353178
-0.005648900228
-0.4562819006
0.006424306604
0.4571060607
-0.007248466716
-0.464801529
0.008135215717
0.4665414597
-0.005503685573
-0.004377581644
-0.272661724
0.007122996196
0.2732922762
-0.007767500379
-0.2902483339
0.00887773642
0.2903517839
-0.009000948453
-0.2633728278
0.008818187276
0.2632047707
-0.008663112555
-0.2141508321
0.00823596613
0.2147577058
-0.008842867624
-0.1042099497
0.005286531998
0.1043346287
-0.002686564994
-0.002724646072
0.0179392343
-0.1319469286
0.1307086571
-0.01670096277
0.01681839123
-0.2312247262
0.2259711481
-0.011559987
-0.188280043
0.006162458821
0.1815503716
0.0005773734433
-0.1785338423
-0.004478415692
0.1788136223
0.004204091864
0.004417949333
-0.2150560669
0.2166714385
-0.006030701966
-0.4745719995
0.01411033974
0.4723848558
-0.01192319604
-0.4688608509
0.01005428814
0.46727676
-0.008470197302
-0.01177066178
0.9207657065
0.007844065135
0.007201867308
-0.007519969918
0.9144573571
-0.003640967967
0.9116572551
0.9102465958
-0.006542807911
0.9294124136
-0.01324436646
0.9291137076
-0.02001131881
0.9283928623
-0.005878053707
0.9272848951
-0.0212688235
-0.4593628213
0.4602065102
-0.006721742637
-0.4579544239
0.007631825901
0.4589768721
-0.00865427409
-0.4715485035
0.009641853185
0.4761678169
-0.007495205451
-0.006783979585
-0.2745073839
0.01113490934
0.2761874415
-0.01284048834
-0.2906880051
0.01150585461
0.2900583279
-0.01090728752
-0.2626183521
0.008492758983
0.2643882244
-0.01028154962
-0.2170018947
0.009925317371
0.2178534301
-0.005350545588
-0.005426307216
-0.05281304282
0.003332885362
0.05286199552
-0.003381838051
-0.05793724604
0.006561215142
0.05745182497
-0.01278688264
0.006711088561
0.01656289505
-0.1233079503
0.2431843365
-0.02938587424
0.01620530966
-0.1232587167
-0.2129379503
0.01258630464
0.2055531979
-0.005190305623
-0.1764448642
0.0005109160697
0.1760817501
-0.000129239089
-0.181645897
0.002385680089
0.1830505239
-0.003774935517
0.008278563152
-0.2238161332
0.2251110185
-0.009570029182
-0.4698595537
0.01663711181
0.4673433186
-0.01412087669
-0.4656282118
0.01216272746
0.4638571865
-0.01039170215
-0.01378990597
0.916270745
0.009376497342
0.008908370158
-0.008825701165
0.9094931523
-0.004324685507
0.9071562395
0.9059219102
-0.002969661207
0.9323820748
-0.006014034485
0.9321580809
-0.009212178909
0.9315910068
-0.006251093767
0.9307261947
-0.006402384697
-0.4630540107
0.4639392432
-0.007136326266
-0.4618015055
0.00812017051
0.4628496486
-0.0091683136
-0.480451178
0.01029647279
0.4780297743
-0.004351303549
-0.003542665211
-0.2787132061
0.00313811996
0.2781065019
-0.002557144604
-0.2910313731
0.001429881801
0.291005851
-0.001437447323
-0.2614965457
0.003292432302
0.2628655479
-0.004680778376
-0.2210957726
0.01118877835
0.2221105207
-0.00608943497
-0.006114091478
-0.05453657645
0.008083845647
0.1094718206
-0.05447413391
-0.004254743532
-0.004290212372
-0.1115785771
0.009058481112
0.1115051384
-0.01779879333
0.008813750893
0.0290804668
-0.2359857294
0.2320974438
-0.02519138211
-0.194402547
0.005829174656
0.1920964953
-0.003501960705
-0.1775818162
0.001427121155
0.1723153888
0.003865915278
-0.1879411062
-0.002710700565
0.1942805053
-0.003613239562
0.01015634535
-0.2318668715
0.2324930877
-0.01078214895
-0.4650959893
0.01738027416
0.4630894941
-0.01537377887
-0.4620792885
0.01347542555
0.4600791578
-0.01147529487
-0.01336190731
0.9109453144
0.009276569898
0.009410767988
-0.009607150745
0.9057383957
-0.00468843587
0.9022375246
0.9012334744
-0.003120232172
0.935502307
-0.006315802251
0.935353651
-0.009664264529
0.934939469
-0.006565509064
0.9343052302
-0.006677790939
-0.4649098551
0.4658638059
-0.00751945988
-0.4639210046
0.008549320922
0.4650077797
-0.00963609597
-0.473024661
0.01079962845
0.4677345157
-0.002593638442
-0.002919942445
-0.2729822334
-0.002993778053
0.2701979378
0.005757237731
-0.2893562484
-0.01243308879
0.2880719647
0.01368854705
-0.2690736661
-0.01291149727
0.2711024737
0.01086386275
-0.2313793264
0.001423554903
0.2374416042
-0.007488871048
-0.1125102007
0.015662921
0.2240101749
-0.01521616798
-0.1119467272
-0.2256241793
0.02118027335
0.2262174466
-0.02177354059
-0.2167714231
0.01163279457
0.2117163568
-0.006566039017
-0.1828297096
-0.002980392617
0.1816258494
0.00421559902
-0.1719575986
-0.003008496418
0.1736562235
0.001344479321
-0.2011296688
0.005587400442
0.2000484185
-0.004490378001
0.01268860429
-0.2326817016
0.2302541075
-0.01026101019
-0.461330656
0.01868830607
0.45795532
-0.01531297006
-0.458090965
0.01361774918
0.455883774
-0.01141055816
-0.01369233347
0.9058133684
0.009474572917
0.0093497066
-0.009643314232
0.9016893765
-0.004890333099
0.8974845434
0.8963431413
-0.003199355329
0.9387016623
-0.006468948189
0.9386232438
-0.00987938626
0.9383499071
-0.006721790774
0.9379305953
-0.006782960617
-0.4668412495
0.467816649
-0.00769719026
-0.4660954573
0.008732564938
0.4671783309
-0.009815438627
-0.4652794804
0.01096593792
0.4664159671
-0.006005268631
-0.006097101762
-0.2589290936
-0.002319500368
0.2543319718
0.006904412659
-0.2811613522
-0.0196354228
0.2777461931
0.02302822462
-0.274396991
-0.02884457684
0.2741448858
0.0290794693
-0.2509131243
-0.02487410398
0.2535331514
0.02224898332
-0.2287519075
-0.01408661023
0.2310402966
0.01180189735
-0.2201583215
-0.01114158825
0.2186562061
0.0126550162
-0.2012174402
-0.01892630067
0.1995576704
0.02060998379
-0.1813652292
-0.02163091646
0.1826597952
0.02036936341
-0.1820332769
-0.01217315475
0.1859197634
0.008315098201
-0.2105145673
0.004622916362
0.2147661538
-0.008864943223
0.01171999407
-0.2281743512
0.2275485921
-0.01109423495
-0.457043423
0.0185365866
0.4542264001
-0.01571956368
-0.4529011938
0.01220269857
0.4512273056
-0.01052881038
-0.01271844483
0.8993445238
0.009823029737
0.009364259666
-0.007143724727
0.8961146563
-0.004907717288
0.895248536
0.891435424
-0.003212362997
0.9419140253
-0.006486748073
0.9418976289
-0.009882251742
0.9417454108
-0.006733639692
0.941510606
-0.006728622808
-0.4687772758
0.4697383609
-0.007694724899
-0.4682433311
0.008703331131
0.4692877619
-0.009747761962
-0.4676149447
0.01084576016
0.4687747451
-0.006021049696
-0.005984510876
-0.2389906985
0.006554719859
0.2347629297
-0.002328349624
-0.26441981
-0.01427469253
0.2591686804
0.01951263697
-0.268850398
-0.0324870508
0.2657136778
0.03561062328
-0.2560558868
-0.04109666115
0.255352382
0.04179597864
-0.2362226525
-0.0419065287
0.2371934775
0.04094259785
-0.2168273258
-0.03937223818
0.2166432065
0.03957341132
-0.1999270572
-0.03690737116
0.201597635
0.03526165209
-0.1908018493
-0.02699397797
0.194750755
0.02307085755
-0.2002894234
-0.008522435492
0.2057188703
0.003108990668
-0.2262981911
0.01219930312
0.2261075719
-0.01200863431
0.01055829638
-0.2259106065
0.2254245086
-0.01007219852
-0.4504619547
0.01713679587
0.4487111704
-0.01538601154
-0.4496023627
0.01371078071
0.4479804182
-0.01208883619
-0.01168471033
0.8921246438
0.01030308732
0.008601503004
-0.006624664017
0.89105461
-0.004485053001
0.893108925
0.886950371
-0.003169427197
0.9450834525
-0.00639069359
0.9451188953
-0.009709345188
0.9450640623
-0.006618842148
0.9449766646
-0.006556561578
-0.470669411
0.471591344
-0.007540775179
-0.4703019544
0.008500134865
0.4712856155
-0.009483795926
-0.4698898316
0.01050584554
0.4709557878
-0.005817743266
-0.005754058473
-0.2347433599
0.006379194675
0.2350323244
-0.006668159212
-0.2424158638
0.004757652406
0.2369222028
0.0007336729035
-0.2534878829
-0.01642050337
0.2488874123
0.02101427516
-0.2499276937
-0.03188852178
0.2473694186
0.03444365407
-0.2376847494
-0.03895052105
0.2372567389
0.03938305543
-0.2167512258
-0.03604107266
0.2171689167
0.03563520542
-0.2098663287
-0.02889557705
0.2133106922
0.02546641378
-0.2089004145
-0.01252260544
0.2139590998
0.007475669531
-0.2224304159
0.008638523296
0.2255021882
-0.01170906367
-0.2248951715
0.01080905478
0.2245505974
-0.0104644806
0.009375115363
-0.2241589343
0.22377839
-0.008994571067
-0.4471183224
0.01554605811
0.4456708025
-0.01409853822
-0.4465006822
0.01267353985
0.4450880885
-0.01126094616
-0.01430003626
0.8869721255
0.009571169683
0.009881384791
-0.009393337667
0.8861479114
-0.00182912169
0.885544709
0.8851212493
-0.003080968126
0.9481644206
-0.006202491629
0.9482404188
-0.009395879499
0.9482574502
-0.006400915621
0.9482777842
-0.006296083545
-0.4724769038
0.4733463498
-0.007270361633
-0.4722314586
0.008167058841
0.4731413927
-0.009076992945
-0.4719696823
0.01001110813
0.4729304443
-0.005526621107
-0.005445248955
-0.2358443057
0.006025856921
0.236097313
-0.00627886419
-0.2356032526
0.007045286044
0.2358594704
-0.007301503822
-0.2355087825
0.008065244342
0.2353145618
-0.007871236588
-0.2389348392
-0.0005997657167
0.2361974652
0.003336366083
-0.2352197034
-0.008596186936
0.2344533538
0.009363719814
-0.2200325259
-0.007478305922
0.221409665
0.006104566772
-0.2239931625
0.001124670038
0.2273129144
-0.004441790232
-0.226403668
0.01080654045
0.2262997932
-0.01070266559
-0.2248284548
0.01024761332
0.2246338764
-0.01005303488
-0.2236568433
0.009363982075
0.2233983616
-0.00910550034
0.008268913099
-0.2227921888
0.2224903035
-0.007967027842
-0.444354357
0.01394026624
0.4431556686
-0.01274157778
-0.4438089605
0.0115362102
0.4425896923
-0.01031694197
-0.01324254252
0.8823491948
0.008763236306
0.009102236914
-0.008747606592
0.8816529755
-0.00434479083
0.8811418932
0.8807764584
-0.002957974395
0.951122395
-0.005945225246
0.9512276696
-0.008979939658
0.9512921646
-0.006109428331
0.9513826471
-0.005975374219
-0.4741758984
0.4749850412
-0.006918571068
-0.4740102211
0.007745971562
0.4748413477
-0.008577098216
-0.4738384163
0.009420722311
0.4746953996
-0.005183130882
-0.00509457482
-0.2368034901
0.005621214116
0.2370224992
-0.005840223183
-0.2365604829
0.006490655682
0.2367732631
-0.006703435833
-0.2359834152
0.007322196933
0.2361814504
-0.007520232202
-0.2349897135
0.008081815497
0.2351642028
-0.008256304835
-0.2334723915
0.008719267971
0.2334890414
-0.008735917875
-0.2239593554
0.008854501412
0.2243099386
-0.009205084602
-0.2284786058
0.009383742015
0.2284676733
-0.009372809499
-0.2260240555
0.009240606003
0.2259415532
-0.009158103694
-0.2241254633
0.00880728427
0.2239767485
-0.008658569396
-0.2227171909
0.008129631611
0.2225168727
-0.00792931343
0.007271623077
-0.221711427
0.2214700848
-0.00703028084
-0.4420613265
0.0124174349
0.441061666
-0.01141777447
-0.4414896324
0.01039688149
0.4404396195
-0.009346868518
-0.01211153523
0.8782362987
0.007941510176
0.008282921167
-0.008039688176
0.8775811284
-0.004004427002
0.877106632
0.8767720314
-0.002811325994
0.953933721
-0.005641556412
0.9540579
-0.008497330911
0.9541479391
-0.005770981151
0.9542754896
-0.005619192272
-0.4757533728
0.4764995032
-0.00651711152
-0.4756310985
0.007273839697
0.4763838838
-0.008026625045
-0.4755021347
0.008782153065
0.4762602221
-0.004811308172
-0.004728932341
-0.2376322245
0.005197686528
0.2378211546
-0.005386616605
-0.2373553357
0.005937642664
0.2375321674
-0.006114474382
-0.2367117942
0.006618242611
0.2368696627
-0.006776111135
-0.2356246354
0.007216140003
0.2357596745
-0.007351179159
-0.2334768128
0.007674544853
0.2334553502
-0.007653082271
-0.2252422205
0.007774777804
0.2255114546
-0.008044011835
-0.2284179662
0.008126727314
0.2283970943
-0.008105855454
-0.2257144861
0.007976470766
0.2256444519
-0.007906436532
-0.2235791464
0.00762095999
0.2234602428
-0.007502056378
-0.221980799
0.007080573398
0.2218207143
-0.006920488701
0.006390512203
-0.2208430089
0.2206462242
-0.006193727527
-0.4401464181
0.01101896062
0.4393070895
-0.01017963206
-0.4394933781
0.009310968319
0.4385878196
-0.008405409761
-0.01097988349
0.8745942891
0.007146552719
0.007475340406
-0.007318175631
0.8739194206
-0.003653708982
0.8734421654
0.8731183224
-0.002650156188
0.9565838772
-0.005310160677
0.9567179045
-0.007976977806
0.9568147562
-0.005404453055
0.9569507687
-0.005247803878
-0.4772051113
0.4778898382
-0.006089179922
-0.4770970013
0.006777387203
0.4777753846
-0.007455770478
-0.4769720528
0.008129854179
0.4776402559
-0.004435027812
-0.004363029416
-0.2383468526
0.004776312403
0.2385097698
-0.004939229587
-0.2380168186
0.005406841196
0.2381643609
-0.005554383536
-0.2372947574
0.005967446358
0.2374220095
-0.006094698397
-0.2361184961
0.00644498544
0.2362244448
-0.006550934213
-0.2333514171
0.00677216492
0.2333062192
-0.006726966996
-0.2262054059
0.006868950938
0.2264022133
-0.007065758319
-0.228325033
0.007088166766
0.2282984636
-0.00706159735
-0.2254478198
0.006935019079
0.2253861601
-0.00687335936
-0.2231363602
0.006631951169
0.2230378423
-0.006533433286
-0.2213864089
0.006186999065
0.2212550363
-0.006055626494
0.005619025739
-0.2201314115
0.2199680836
-0.005455697816
-0.4385352933
0.009759269868
0.4378242657
-0.009048242239
-0.4377715989
0.008304511006
0.4369880372
-0.00752094925
-0.009892412635
0.8713764813
0.006402732973
0.006707487398
-0.006615493284
0.8706425012
-0.003309497896
0.87013617
0.8698088245
-0.002483056084
0.9590669332
-0.004968379168
0.9592032276
-0.00744554368
0.9592919207
-0.005031656104
0.9594134998
-0.004876618639
-0.4785341342
0.4791602409
-0.005657762746
-0.4784171425
0.006281763795
0.4790271894
-0.006891810704
-0.4782675522
0.0074927126
0.4788565822
-0.004072057767
-0.004009684851
-0.2389634333
0.004373698993
0.2391042452
-0.004514510932
-0.238569995
0.004913044065
0.2386938882
-0.005036937351
-0.2377668874
0.005378790788
0.2378708332
-0.005482736569
-0.2365076041
0.005766312988
0.2365916123
-0.005850321189
-0.2331482136
0.005997653517
0.2330898508
-0.0059392908
-0.2269042117
0.006096642316
0.2270453643
-0.006237794902
-0.2282129702
0.006222408795
0.2281829134
-0.006192351926
-0.2252108132
0.006068713894
0.2251552327
-0.006013133448
-0.222765536
0.005803244333
0.2226816029
-0.005719311223
-0.2208944266
0.005427196602
0.2207841452
-0.005316915174
0.004950137971
-0.2195378819
0.2194001113
-0.004812367365
-0.4371671912
0.008643493086
0.4365589471
-0.008035248922
-0.4362808478
0.007393905637
0.4355996443
-0.006712702143
-0.008879396894
0.8685334754
0.005722739045
0.005999663819
-0.005954086374
0.8677171907
-0.002983593452
0.8671656771
0.8668252311
-0.002316372691
0.9613833059
-0.004628876895
0.9615157318
-0.00692180024
0.9615848441
-0.004665681406
0.9616745401
-0.004517159143
-0.4797468125
0.4803181256
-0.005236994485
-0.4796040631
0.005802156039
0.4801525405
-0.0063506334
-0.4794100068
0.006886698062
0.4799302969
-0.003731216586
-0.003675771534
-0.2394969087
0.003998064742
0.2396190931
-0.004120249087
-0.2390357209
0.004461857622
0.2391405599
-0.004566696655
-0.2381545401
0.004852655025
0.2382407163
-0.004938831217
-0.236816904
0.005171973974
0.2368839646
-0.005239034565
-0.232903246
0.005332470754
0.2328382682
-0.005267492943
-0.2274031618
0.005433436138
0.2275032319
-0.005533506228
-0.2280892635
0.005494159968
0.2280571262
-0.005462022625
-0.2249958468
0.005341534718
0.2249449466
-0.005290634586
-0.2224470422
0.00510443021
0.2223739931
-0.005031381118
-0.2204785346
0.004779969696
0.2203842022
-0.004685637342
0.004372357843
-0.2190350207
0.2189171685
-0.004254505662
-0.4359941906
0.00766340378
0.4354690087
-0.007138221867
-0.4349837513
0.006581192772
0.434388474
-0.005985915467
-0.007955153233
0.8660180725
0.005111551552
0.005359004543
-0.005345688575
0.8651077261
-0.002682397619
0.8645023861
0.8641428335
-0.002155215982
0.9635385219
-0.00430173996
0.9636622558
-0.006420314572
0.9637034187
-0.00431619197
0.9637484979
-0.004178080407
-0.4808516178
0.4813727451
-0.004837319266
-0.4806714247
0.00534947695
0.481165233
-0.005843285241
-0.480419897
0.006322551601
0.4808809386
-0.003415883741
-0.003367709456
-0.2399604274
0.003652163855
0.2400669478
-0.003758684257
-0.2394309181
0.004053352291
0.2395203719
-0.004142806099
-0.2384776151
0.004384756044
0.2385501319
-0.004457272919
-0.2370642076
0.004651389451
0.2371179932
-0.004705175103
-0.2326386051
0.004758810699
0.2325711261
-0.004691331612
-0.2277557866
0.004860177356
0.2278261682
-0.004930559032
-0.2279587867
0.00487580049
0.2279255123
-0.004842526071
-0.2247981815
0.004725405646
0.2247510679
-0.00467829198
-0.2221681728
0.004510664177
0.2221035642
-0.004446055607
-0.2201207943
0.004226167967
0.2200388667
-0.004144240365
0.003872952346
-0.2186031784
0.2185011655
-0.003770939459
-0.4349791926
0.006808542092
0.4345217273
-0.006351076801
-0.4338491004
0.005863819491
0.4333260324
-0.005340751464
-0.007125965576
0.8637867247
0.004569882083
0.004787431321
-0.00479638707
0.8627781475
-0.002409449443
0.8621154485
0.861733384
-0.002002863938
0.9655413858