/*--------------------------------*- C++ -*----------------------------------*\
| =========                 |                                                 |
| \\      /  F ield         | OpenFOAM: The Open Source CFD Toolbox           |
|  \\    /   O peration     | Version:  v1912                                 |
|   \\  /    A nd           | Website:  www.openfoam.com                      |
|    \\/     M anipulation  |                                                 |
\*---------------------------------------------------------------------------*/
FoamFile
{
    version     2.0;
    format      ascii;
    class       pointVectorField;
    location    "2.13";
    object      pointDisplacement;
}
// * * * * * * * * * * * * * * * * * * * * * * * * * * * * * * * * * * * * * //

dimensions      [0 1 0 0 0 0 0];


internalField   nonuniform List<vector> 
26316
(
(0 0 0)
(0 0 0)
(0 0 0)
(0 0 0)
(0 0 0)
(0 0 0)
(0 0 0)
(0 0 0)
(0 0 0)
(0 0 0)
(0 0 0)
(0 0 0)
(0 0 0)
(0 0 0)
(0 0 0)
(0 0 0)
(0 0 0)
(0 0 0)
(0 0 0)
(0 0 0)
(0 0 0)
(0 0 0)
(0 0 0)
(0 0 0)
(0 0 0)
(0 0 0)
(0 0 0)
(0 0 0)
(0 0 0)
(0 0 0)
(0 0 0)
(0 0 0)
(0 0 0)
(0 0 0)
(0 0 0)
(0 0 0)
(0 0 0)
(0 0 0)
(0 0 0)
(0 0 0)
(0 0 0)
(0 0 0)
(0 0 0)
(0 0 0)
(0 0 0)
(0 0 0)
(0 0 0)
(0 0 0)
(0 0 0)
(0 0 0)
(0 0 0)
(0 0 0)
(0 0 0)
(0 0 0)
(0 0 0)
(0 0 0)
(0 0 0)
(0 0 0)
(0 0 0)
(0 0 0)
(0 0 0)
(0 0 0)
(0 0 0)
(0 0 0)
(0 0 0)
(0 0 0)
(0 0 0)
(0 0 0)
(0 0 0)
(0 0 0)
(0 0 0)
(0 0 0)
(0 0 0)
(0 0 0)
(0 0 0)
(0 0 0)
(0 0 0)
(0 0 0)
(0 0 0)
(0 0 0)
(0 0 0)
(0 0 0)
(0 0 0)
(0 0 0)
(0 0 0)
(0 0 0)
(0 0 0)
(0 0 0)
(0 0 0)
(0 0 0)
(0 0 0)
(0 0 0)
(0 0 0)
(0 0 0)
(0 0 0)
(0 0 0)
(0 0 0)
(0 0 0)
(0 0 0)
(0 0 0)
(0 0 0)
(0 0 0)
(0 0 0)
(0 0 0)
(0 0 0)
(0 0 0)
(0 0 0)
(0 0 0)
(0 0 0)
(0 0 0)
(0 0 0)
(0 0 0)
(0 0 0)
(0 0 0)
(0 0 0)
(0 0 0)
(0 0 0)
(0 0 0)
(0 0 0)
(-2.29283889e-07 1.396636486e-05 2.775557562e-17)
(0 0 0)
(0 0 0)
(-1.268409939e-07 0.0001564454678 3.330669074e-16)
(5.838593634e-07 0.0001329879156 2.775557562e-16)
(0 0 0)
(0 0 0)
(0 0 0)
(0 0 0)
(0 0 0)
(0 0 0)
(0 0 0)
(0 0 0)
(0 0 0)
(0 0 0)
(0 0 0)
(0 0 0)
(0 0 0)
(0 0 0)
(0 0 0)
(0 0 0)
(0 0 0)
(0 0 0)
(0 0 0)
(0 0 0)
(0 0 0)
(0 0 0)
(0 0 0)
(0 0 0)
(0 0 0)
(0 0 0)
(0 0 0)
(0 0 0)
(0 0 0)
(0 0 0)
(0 0 0)
(0 0 0)
(0 0 0)
(0 0 0)
(0 0 0)
(0 0 0)
(0 0 0)
(0 0 0)
(0 0 0)
(0 0 0)
(0 0 0)
(0 0 0)
(0 0 0)
(0 0 0)
(0 0 0)
(0 0 0)
(0 0 0)
(0 0 0)
(0 0 0)
(0 0 0)
(0 0 0)
(0 0 0)
(0 0 0)
(0 0 0)
(0 0 0)
(0 0 0)
(0 0 0)
(0 0 0)
(0 0 0)
(0 0 0)
(0 0 0)
(-1.428451608e-05 0.0002214876542 4.857225733e-16)
(-8.221800817e-05 0.001389276595 3.080868893e-15)
(-1.074946048e-06 1.825164468e-05 4.163336342e-17)
(-0.0001561698458 0.003628998983 8.007483565e-15)
(-0.0003880855638 0.008980918982 1.990074772e-14)
(-0.0004608535394 0.01216445568 2.695066392e-14)
(-0.0002147177998 0.005689328271 1.254552018e-14)
(-0.00026205821 0.01198831894 2.643718577e-14)
(-0.0004604459552 0.02101580187 4.657385588e-14)
(-0.0003852493271 0.02322210018 5.145883719e-14)
(-0.0002260553966 0.01364301083 3.008704397e-14)
(-1.144843112e-05 0.01595695819 3.519406988e-14)
(-1.719852115e-05 0.02625254026 5.817568649e-14)
(0.0001204222394 0.02591468526 5.742628595e-14)
(7.155548928e-05 0.01569587227 3.461120279e-14)
(0.0002450759889 0.01203236185 2.653433029e-14)
(0.0004326629377 0.02107764096 4.669875597e-14)
(0.0004753873129 0.01841653319 4.080069615e-14)
(0.0002581795721 0.01007244109 2.220446049e-14)
(0.0001522365486 0.003675244328 8.10462808e-15)
(0.0003774088916 0.009058837028 2.006728117e-14)
(0.0002841288114 0.006052319225 1.340594302e-14)
(8.896963557e-05 0.001905623913 4.204969706e-15)
(0 0 0)
(1.498425998e-05 0.0002385275513 5.273559367e-16)
(0 0 0)
(0 0 0)
(0 0 0)
(0 0 0)
(0 0 0)
(0 0 0)
(0 0 0)
(0 0 0)
(0 0 0)
(0 0 0)
(0 0 0)
(0 0 0)
(0 0 0)
(0 0 0)
(0 0 0)
(0 0 0)
(0 0 0)
(0 0 0)
(0 0 0)
(0 0 0)
(0 0 0)
(0 0 0)
(0 0 0)
(0 0 0)
(0 0 0)
(0 0 0)
(0 0 0)
(0 0 0)
(0 0 0)
(0 0 0)
(0 0 0)
(0 0 0)
(0 0 0)
(0 0 0)
(0 0 0)
(0 0 0)
(0 0 0)
(0 0 0)
(0 0 0)
(0 0 0)
(0 0 0)
(0 0 0)
(0 0 0)
(0 0 0)
(0 0 0)
(0 0 0)
(-3.989477054e-05 0.0004561743395 1.026956298e-15)
(-0.0002179590339 0.002657114095 6.009082121e-15)
(-5.162412811e-05 0.0006324446694 1.415534356e-15)
(-0.0007370957818 0.01127038667 2.534084054e-14)
(-0.001179323308 0.01795173144 4.057865155e-14)
(-0.001505422984 0.02499129933 5.648259638e-14)
(-0.001013840866 0.01690311627 3.802513859e-14)
(-0.001580036338 0.0361551302 8.130995877e-14)
(-0.002092119584 0.04769807294 1.078026557e-13)
(-0.002107377579 0.05487052057 1.240257896e-13)
(-0.001625572594 0.04246864969 9.550693569e-14)
(-0.001280034448 0.05811636964 1.307010056e-13)
(-0.001594023277 0.07223569008 1.632860513e-13)
(-0.001266850875 0.07616899199 1.721678355e-13)
(-0.001025826525 0.06172738447 1.388195114e-13)
(-2.899406222e-05 0.06654023795 1.496580637e-13)
(-2.984519783e-05 0.08136787155 1.839361996e-13)
(0.000407353327 0.08080344018 1.826594431e-13)
(0.0003264609631 0.06601480511 1.484784518e-13)
(0.001225724821 0.05822775353 1.309785613e-13)
(0.001535912538 0.07235925788 1.635774849e-13)
(0.001794695634 0.06744788772 1.524891324e-13)
(0.001419397503 0.05375060381 1.209032874e-13)
(0.001542474641 0.03633435864 8.17262924e-14)
(0.002046954078 0.04790756233 1.083022561e-13)
(0.001941573524 0.0403709356 9.127421041e-14)
(0.001424395956 0.0298017616 6.702971511e-14)
(0.0007286408495 0.01141474189 2.567390744e-14)
(0.001164600365 0.01814201653 4.102274076e-14)
(0.0008238262656 0.01184219067 2.677025268e-14)
(0.0004576012897 0.006613948309 1.487698853e-14)
(0 0 0)
(3.960333933e-05 0.0004611892331 1.040834086e-15)
(0 0 0)
(0 0 0)
(0 0 0)
(0 0 0)
(0 0 0)
(0 0 0)
(0 0 0)
(0 0 0)
(0 0 0)
(0 0 0)
(0 0 0)
(0 0 0)
(0 0 0)
(0 0 0)
(0 0 0)
(0 0 0)
(0 0 0)
(0 0 0)
(0 0 0)
(0 0 0)
(0 0 0)
(0 0 0)
(0 0 0)
(0 0 0)
(0 0 0)
(0 0 0)
(0 0 0)
(0 0 0)
(0 0 0)
(0 0 0)
(0 0 0)
(0 0 0)
(0 0 0)
(0 0 0)
(0 0 0)
(0 0 0)
(0 0 0)
(0 0 0)
(0 0 0)
(-1.716383167e-05 0.0001615480227 3.60822483e-16)
(0 0 0)
(-0.0007308122509 0.008230242671 1.888766921e-14)
(-0.001086339631 0.01215330979 2.804700916e-14)
(-0.001700632148 0.02030800652 4.685141164e-14)
(-0.001248481221 0.0149982139 3.443079155e-14)
(-0.002858139116 0.04292486881 9.850453786e-14)
(-0.003469750721 0.05186788519 1.196542865e-13)
(-0.003883448539 0.06334095775 1.4610535e-13)
(-0.003265800455 0.05351057333 1.228045443e-13)
(-0.003730674853 0.08406108329 1.929012505e-13)
(-0.004255291212 0.09546388443 2.201988591e-13)
(-0.004074299782 0.1044510485 2.409183963e-13)
(-0.003607268274 0.09287736516 2.131350652e-13)
(-0.002509021662 0.1127564098 2.587652315e-13)
(-0.002772546364 0.1240981463 2.862571291e-13)
(-0.002152250769 0.1281122809 2.955274914e-13)
(-0.001957488755 0.1169642582 2.684241718e-13)
(-2.752950982e-05 0.1223413488 2.808031585e-13)
(-2.764966555e-05 0.1331382182 3.071570776e-13)
(0.0007045055689 0.1326086584 3.059358322e-13)
(0.0006413127383 0.1217688025 2.794986464e-13)
(0.002450422017 0.1128900164 2.591538095e-13)
(0.002713443964 0.1242226922 2.866457072e-13)
(0.003253629998 0.1189801302 2.74558154e-13)
(0.002920813005 0.1074858528 2.467470672e-13)
(0.003671858877 0.08432424395 1.935951399e-13)
(0.004193981086 0.09566929807 2.207678484e-13)
(0.004225338225 0.08567820599 1.977307207e-13)
(0.003658550856 0.07468066815 1.714600684e-13)
(0.002810607733 0.04291933401 9.853229344e-14)
(0.003500276511 0.05295729668 1.22235555e-13)
(0.003021213105 0.04216139777 9.73249259e-14)
(0.002396038618 0.0336910251 7.735478924e-14)
(0.0008324634653 0.009505433153 2.181588243e-14)
(0.001243771968 0.014121264 3.259892356e-14)
(0.000702190011 0.007505488168 1.731947918e-14)
(0.0004013516201 0.004313867615 9.894862707e-15)
(0 0 0)
(0 0 0)
(0 0 0)
(0 0 0)
(0 0 0)
(0 0 0)
(0 0 0)
(0 0 0)
(0 0 0)
(0 0 0)
(0 0 0)
(0 0 0)
(0 0 0)
(0 0 0)
(0 0 0)
(0 0 0)
(0 0 0)
(0 0 0)
(0 0 0)
(0 0 0)
(0 0 0)
(0 0 0)
(0 0 0)
(0 0 0)
(0 0 0)
(0 0 0)
(0 0 0)
(0 0 0)
(0 0 0)
(0 0 0)
(0 0 0)
(0 0 0)
(0 0 0)
(0 0 0)
(0 0 0)
(-7.933112701e-05 0.0006983654406 1.637578961e-15)
(-0.0001804151516 0.001579668085 3.719247132e-15)
(-0.0006409003768 0.005903787084 1.391942117e-14)
(-0.000430852498 0.003990241591 9.353628982e-15)
(-0.002534861347 0.02783869793 6.525335827e-14)
(-0.002999107473 0.03276229141 7.720213357e-14)
(-0.003868572421 0.04505792676 1.061789545e-13)
(-0.003353548621 0.03926849282 9.205136653e-14)
(-0.005309690293 0.077671256 1.820210649e-13)
(-0.005864243551 0.08524539116 2.008393452e-13)
(-0.006188800332 0.09808833538 2.310929226e-13)
(-0.005656986394 0.09029782056 2.115946307e-13)
(-0.005622967686 0.123801961 2.900457652e-13)
(-0.005968580392 0.1302692695 3.068101329e-13)
(-0.005524034277 0.1378954081 3.247541125e-13)
(-0.005223128977 0.1314407301 3.079342337e-13)
(-0.003336613506 0.1468346593 3.440026042e-13)
(-0.003443133026 0.1501076398 3.535227666e-13)
(-0.002612397583 0.1515333205 3.568950691e-13)
(-0.002550431884 0.1492041547 3.495675971e-13)
(-3.893605431e-05 0.1515542989 3.551187122e-13)
(-4.631819605e-05 0.1523196122 3.58796326e-13)
(0.0008133887852 0.1522903947 3.587408148e-13)
(0.0008101094548 0.1513394022 3.546468674e-13)
(0.003283876336 0.1470861186 3.447381269e-13)
(0.003378376975 0.1502517473 3.54022367e-13)
(0.004160657564 0.147764059 3.481798183e-13)
(0.004017922485 0.1436112591 3.366196211e-13)
(0.005568595379 0.1239812159 2.906563878e-13)
(0.005922957547 0.1306117765 3.078648447e-13)
(0.006224878043 0.1219656296 2.875477634e-13)
(0.0057937578 0.1143693742 2.681743716e-13)
(0.00538168893 0.07982261341 1.871974797e-13)
(0.005929951358 0.08745265748 2.061684157e-13)
(0.005439062322 0.07412126948 1.747491041e-13)
(0.00487940991 0.06687541256 1.5683288e-13)
(0.002665500684 0.02975164044 6.974976152e-14)
(0.003141314149 0.03486460005 8.21842594e-14)
(0.002266236099 0.02368467089 5.583034035e-14)
(0.001857038643 0.01951812256 4.576894419e-14)
(0.0001227140031 0.001096906946 2.567390744e-15)
(0.0002108074109 0.001873641653 4.413136523e-15)
(5.351991487e-06 4.530070193e-05 9.714451465e-17)
(0 0 0)
(0 0 0)
(0 0 0)
(0 0 0)
(0 0 0)
(0 0 0)
(0 0 0)
(0 0 0)
(0 0 0)
(0 0 0)
(0 0 0)
(0 0 0)
(0 0 0)
(0 0 0)
(0 0 0)
(0 0 0)
(0 0 0)
(0 0 0)
(0 0 0)
(0 0 0)
(0 0 0)
(0 0 0)
(0 0 0)
(0 0 0)
(0 0 0)
(0 0 0)
(0 0 0)
(0 0 0)
(0 0 0)
(-7.550625741e-06 5.853711067e-05 1.387778781e-16)
(-2.060355765e-07 1.606296472e-06 0)
(0 0 0)
(-0.0005664412154 0.004879073404 1.168509733e-14)
(-0.0007149524066 0.006124559228 1.475208844e-14)
(-0.001483544677 0.0133704763 3.219646771e-14)
(-0.001265693643 0.01146995467 2.747801986e-14)
(-0.004115150521 0.04421934933 1.05887521e-13)
(-0.004478935636 0.04785946654 1.152133944e-13)
(-0.005443559177 0.06200752194 1.492694857e-13)
(-0.005158341031 0.05909677706 1.414979245e-13)
(-0.007148850481 0.1021465936 2.445266212e-13)
(-0.007440705054 0.1056831781 2.543520949e-13)
(-0.007644449555 0.1182943708 2.847166947e-13)
(-0.007381667358 0.1149254357 2.751132655e-13)
(-0.006686901107 0.1423297369 3.406996907e-13)
(-0.006818652181 0.1441093354 3.468336729e-13)
(-0.00614383731 0.1478469767 3.558403572e-13)
(-0.006067385389 0.147189732 3.523292769e-13)
(-0.003568788861 0.1499226409 0)
(-0.003610840259 0.1490892572 0)
(-0.003177698244 0.1490926575 0)
(-0.002721104145 0.1491146739 0)
(-0.002696453595 0.1495271804 0)
(-0.002688725712 0.1499298373 0)
(-6.969579967e-05 0.1499216186 0)
(-7.347776004e-05 0.1495211925 0)
(0.0003652074743 0.1495174002 0)
(0.0003666132305 0.1499178111 0)
(0.003457559267 0.1498554849 0)
(0.003466767419 0.1494441042 0)
(0.003479026769 0.1490263226 0)
(0.003915297751 0.1490096209 0)
(0.004345308761 0.1490009057 0)
(0.004334120209 0.1498269542 0)
(0.006614387534 0.1432026513 3.430727924e-13)
(0.006724087137 0.1448575647 3.489153411e-13)
(0.007251471518 0.1390421818 3.34926531e-13)
(0.007088476048 0.1366175451 3.273076254e-13)
(0.007204787866 0.1044894941 2.503552921e-13)
(0.007467577628 0.1076756062 2.594036097e-13)
(0.007098596644 0.09455688211 2.277900091e-13)
(0.00677446788 0.09076521076 2.174649349e-13)
(0.004386403101 0.04784278853 1.146305273e-13)
(0.004797448026 0.05203380732 1.253441795e-13)
(0.003782817618 0.03863761704 9.306444504e-14)
(0.003406966537 0.03499371458 8.383571615e-14)
(0.0007597078572 0.006639944709 1.590394483e-14)
(0.0009495752685 0.008253404615 1.987299214e-14)
(0.000340265869 0.002817123695 6.786238238e-15)
(0.0002315182411 0.00192742911 4.62130334e-15)
(0 0 0)
(0 0 0)
(0 0 0)
(0 0 0)
(0 0 0)
(0 0 0)
(0 0 0)
(0 0 0)
(0 0 0)
(0 0 0)
(0 0 0)
(0 0 0)
(0 0 0)
(0 0 0)
(0 0 0)
(0 0 0)
(0 0 0)
(0 0 0)
(0 0 0)
(0 0 0)
(0 0 0)
(0 0 0)
(0 0 0)
(0 0 0)
(0 0 0)
(0 0 0)
(0 0 0)
(0 0 0)
(-6.803540479e-05 0.00051575627 1.276756478e-15)
(-3.877137506e-05 0.0002955697802 7.21644966e-16)
(-3.17183635e-05 0.0002431476158 5.967448757e-16)
(-0.001027262496 0.00865204037 2.117750419e-14)
(-0.00106534575 0.008922175089 2.195466031e-14)
(-0.001972811188 0.01738080457 4.278521981e-14)
(-0.00192082387 0.01701932275 4.1661119e-14)
(-0.005171748752 0.05430646319 1.32893696e-13)
(-0.005253040692 0.05484090261 1.349476086e-13)
(-0.006256708135 0.06961458402 1.712935349e-13)
(-0.006170715091 0.06905801239 1.689898221e-13)
(-0.008024219545 0.1118628271 2.736977311e-13)
(-0.008101479454 0.112263064 2.762096107e-13)
(-0.008213177535 0.1239316711 3.049088759e-13)
(-0.008145435086 0.1236665264 3.025774076e-13)
(-0.007008292282 0.1450731695 3.549660565e-13)
(-0.007033585567 0.1446225982 3.558264794e-13)
(-0.006236762818 0.1458221152 0)
(-0.006227965952 0.1466354225 3.58796326e-13)
(-0.003662835861 0.146622709 0)
(-0.003669106547 0.1462095523 0)
(-0.003241839478 0.146208026 0)
(-0.003235612372 0.1466205322 0)
(0.00348442164 0.1465680199 0)
(0.003483023537 0.1461588257 0)
(0.003910139124 0.1461531345 0)
(0.003911981321 0.1465617188 0)
(0.006872423318 0.1457978332 3.570477247e-13)
(0.006882027315 0.1453424283 3.579081476e-13)
(0.007577312152 0.1423806763 3.506361868e-13)
(0.007540896449 0.1423566748 3.486377853e-13)
(0.008203814247 0.1164491358 2.85216295e-13)
(0.008306184186 0.1173175384 2.889355422e-13)
(0.008025357092 0.1046926894 2.578492975e-13)
(0.007908705344 0.1036953399 2.539635169e-13)
(0.00563397553 0.06011946374 1.472155731e-13)
(0.005762204755 0.06116211547 1.506156311e-13)
(0.004681149809 0.04678012396 1.151856388e-13)
(0.004560158444 0.04581721484 1.121880366e-13)
(0.001377756141 0.01177650293 2.883804306e-14)
(0.001555837495 0.01322471726 3.25572902e-14)
(0.0007421348182 0.006008730115 1.47937218e-14)
(0.0006109378878 0.004974176205 1.21846977e-14)
(0 0 0)
(0 0 0)
(0 0 0)
(0 0 0)
(0 0 0)
(0 0 0)
(0 0 0)
(0 0 0)
(0 0 0)
(0 0 0)
(0 0 0)
(0 0 0)
(0 0 0)
(0 0 0)
(0 0 0)
(0 0 0)
(0 0 0)
(0 0 0)
(0 0 0)
(0 0 0)
(0 0 0)
(0 0 0)
(0 0 0)
(0 0 0)
(0 0 0)
(0 0 0)
(0 0 0)
(0 0 0)
(-0.0001116833947 0.0008277195158 2.095545959e-15)
(-0.0001008726859 0.0007518659288 1.887379142e-15)
(-8.84941646e-05 0.0006633480794 1.665334537e-15)
(-0.001265713843 0.01042189284 2.609024108e-14)
(-0.001308750585 0.01071565466 2.696454171e-14)
(-0.002282358169 0.01965766221 4.948819132e-14)
(-0.002228613957 0.01930379275 4.832245715e-14)
(-0.005576894487 0.05722552812 1.432187702e-13)
(-0.005642769924 0.05756683596 1.448841047e-13)
(-0.006635023704 0.07212201035 1.81493709e-13)
(-0.006571284911 0.07184913 1.798006188e-13)
(-0.008322274932 0.1132361906 2.833289159e-13)
(-0.008366949639 0.1131503178 2.847166947e-13)
(-0.00842609168 0.1240299726 3.120836922e-13)
(-0.008390123617 0.1242699596 3.10917958e-13)
(-0.007081849059 0.142761133 3.572142582e-13)
(-0.00709261826 0.142043224 3.574363028e-13)
(-0.006264973221 0.1425797304 0)
(-0.006258445517 0.1433883139 0)
(-0.003697449989 0.1433649707 0)
(-0.003700960101 0.1429604001 0)
(-0.003274782871 0.1429565751 0)
(-0.003271216538 0.1433611452 0)
(0.003463519608 0.1433035252 0)
(0.003459799789 0.1428965763 0)
(0.003885898193 0.1428923397 0)
(0.003889691042 0.1432990817 0)
(0.006875549238 0.1432478364 3.587546926e-13)
(0.006867781937 0.1424528747 3.58796326e-13)
(0.00763335633 0.1408087835 3.54674623e-13)
(0.007630183859 0.1413946737 3.541333893e-13)
(0.008570724084 0.1192564996 2.987055048e-13)
(0.008616972379 0.1193083501 3.005373728e-13)
(0.008418243883 0.1076060579 2.710609515e-13)
(0.008357228436 0.1073675367 2.689237721e-13)
(0.006222251045 0.06499399442 1.627725732e-13)
(0.006314019511 0.06560084401 1.652289416e-13)
(0.005241138173 0.05125689231 1.290911822e-13)
(0.005146351282 0.05060263613 1.267180805e-13)
(0.001784285255 0.01491902664 3.735900478e-14)
(0.001856913377 0.01544037774 3.888556144e-14)
(0.0009576262719 0.007583980831 1.909583602e-14)
(0.0009027691401 0.007189516763 1.799949079e-14)
(0 0 0)
(0 0 0)
(0 0 0)
(0 0 0)
(0 0 0)
(0 0 0)
(0 0 0)
(0 0 0)
(0 0 0)
(0 0 0)
(0 0 0)
(0 0 0)
(0 0 0)
(0 0 0)
(0 0 0)
(0 0 0)
(0 0 0)
(0 0 0)
(0 0 0)
(0 0 0)
(0 0 0)
(0 0 0)
(0 0 0)
(0 0 0)
(0 0 0)
(0 0 0)
(0 0 0)
(0 0 0)
(-0.0001647459668 0.00119317866 3.094746681e-15)
(-0.0001485301286 0.001081984286 2.789435349e-15)
(-0.0001340921461 0.0009824777821 2.525757381e-15)
(-0.001415837495 0.01139604149 2.917110997e-14)
(-0.00145921378 0.01167768366 3.008704397e-14)
(-0.002468292065 0.02077672877 5.351274979e-14)
(-0.002415040073 0.02044652265 5.23608934e-14)
(-0.005803917617 0.05817991027 1.489502965e-13)
(-0.005867652714 0.05847128577 1.505601199e-13)
(-0.00685229205 0.07273584111 1.872807465e-13)
(-0.006790916027 0.07251737092 1.856431675e-13)
(-0.00847683007 0.1125371111 2.880473637e-13)
(-0.008519149925 0.1123967461 2.893518758e-13)
(-0.00854875611 0.1227184332 3.159278394e-13)
(-0.008514975295 0.1230082256 3.148592498e-13)
(-0.007120397654 0.1398139704 3.579081476e-13)
(-0.007129580292 0.1390709416 3.580608032e-13)
(-0.006289783424 0.1393521874 0)
(-0.006283706769 0.1401586386 0)
(-0.003724378435 0.140135386 0)
(-0.00372763017 0.1397323873 0)
(-0.003302033015 0.1397286614 0)
(-0.003300369491 0.1399301791 0)
(-0.003298707548 0.1401315282 0)
(0.003429109318 0.1400515388 0)
(0.003424167032 0.1396461382 0)
(0.003849784508 0.1396425808 0)
(0.003854781786 0.1400478497 0)
(0.006838368004 0.1400089412 3.587685704e-13)
(0.00682680397 0.139175714 3.587130593e-13)
(0.007576994851 0.1372816052 3.538419557e-13)
(0.007597146144 0.1382626996 3.543138005e-13)
(0.00856073559 0.116790757 2.993161274e-13)
(0.0085223042 0.1156953465 2.982197822e-13)
(0.008314846488 0.1041637974 2.685074385e-13)
(0.008356454468 0.1052153946 2.696454171e-13)
(0.006243462542 0.06383865968 1.635913627e-13)
(0.006201576954 0.06307131511 1.625505286e-13)
(0.005132415454 0.04911768185 1.265793026e-13)
(0.005171516136 0.04976192887 1.274952366e-13)
(0.001806939724 0.01477593983 3.784472735e-14)
(0.001783394469 0.01450189128 3.735900478e-14)
(0.0009033830471 0.006995620697 1.802724636e-14)
(0.0009200493 0.007164976046 1.834643548e-14)
(0 0 0)
(0 0 0)
(0 0 0)
(0 0 0)
(0 0 0)
(0 0 0)
(0 0 0)
(0 0 0)
(0 0 0)
(0 0 0)
(0 0 0)
(0 0 0)
(0 0 0)
(0 0 0)
(0 0 0)
(0 0 0)
(0 0 0)
(0 0 0)
(0 0 0)
(0 0 0)
(0 0 0)
(0 0 0)
(0 0 0)
(0 0 0)
(0 0 0)
(0 0 0)
(0 0 0)
(0 0 0)
(-0.0002359238235 0.001669025849 4.440892099e-15)
(-0.0002166429149 0.001541730538 4.066191828e-15)
(-0.0001979939651 0.001417338059 3.719247132e-15)
(-0.001594813602 0.01254112768 3.287647932e-14)
(-0.001642578705 0.01284049995 3.384792446e-14)
(-0.002690959235 0.02212366886 5.832834216e-14)
(-0.002633333113 0.02177907689 5.707934125e-14)
(-0.006062487686 0.05933346249 1.554728568e-13)
(-0.006129614707 0.05962611652 1.571659469e-13)
(-0.007103501371 0.07358646477 1.939559624e-13)
(-0.007039298348 0.07337171198 1.922628723e-13)
(-0.008646713688 0.1119418341 2.932792897e-13)
(-0.008689964952 0.1117856382 2.945976796e-13)
(-0.008684007047 0.1215032137 3.202160759e-13)
(-0.008649942748 0.1218120761 3.191336084e-13)
(-0.007155122882 0.1368037287 3.584493813e-13)
(-0.007162944038 0.1360359693 3.585465258e-13)
(-0.006313245547 0.1361245006 0)
(-0.00630752057 0.1369314236 0)
(-0.003749765376 0.1369082982 0)
(-0.003752776998 0.1365049224 0)
(-0.003327910895 0.1365011847 0)
(-0.003326358233 0.1367028721 0)
(-0.003324787182 0.1369045219 0)
(0.003386447455 0.1368130116 0)
(0.003380348532 0.1364081841 0)
(0.003805557759 0.1364050616 0)
(0.00381174933 0.1368097758 0)
(0.006777098534 0.1364305716 3.578665142e-13)
(0.006751662418 0.1353500972 3.571448692e-13)
(0.007420660946 0.1320872864 3.485545186e-13)
(0.007474966171 0.1336444277 3.505806756e-13)
(0.008236774085 0.1101697372 2.890188089e-13)
(0.008068835242 0.1073856205 2.83384427e-13)
(0.007833205609 0.09614775408 2.537137167e-13)
(0.007971241262 0.098344858 2.579880753e-13)
(0.005749496557 0.05753077998 1.508931868e-13)
(0.005605570032 0.05578426293 1.471878175e-13)
(0.004543368243 0.04253144805 1.122019144e-13)
(0.004677921804 0.04403475113 1.154909501e-13)
(0.001457790891 0.01165462198 3.055888875e-14)
(0.001379561942 0.01096631646 2.892130979e-14)
(0.0006132587166 0.004641706681 1.224020885e-14)
(0.0006657388436 0.005068038137 1.329492072e-14)
(0 0 0)
(0 0 0)
(0 0 0)
(0 0 0)
(0 0 0)
(0 0 0)
(0 0 0)
(0 0 0)
(0 0 0)
(0 0 0)
(0 0 0)
(0 0 0)
(0 0 0)
(0 0 0)
(0 0 0)
(0 0 0)
(0 0 0)
(0 0 0)
(0 0 0)
(0 0 0)
(0 0 0)
(0 0 0)
(0 0 0)
(0 0 0)
(0 0 0)
(0 0 0)
(0 0 0)
(0 0 0)
(-0.0002981694608 0.002059177238 5.606626274e-15)
(-0.0003083571487 0.002142510452 5.787037516e-15)
(-0.0002814884329 0.001967682323 5.273559367e-15)
(-0.001798690851 0.013810085 3.708144902e-14)
(-0.001859726167 0.0141920504 3.833044993e-14)
(-0.002949877766 0.02367219607 6.392109064e-14)
(-0.0028775772 0.02323378064 6.236677841e-14)
(-0.006343650708 0.0605746752 1.625644064e-13)
(-0.006425165237 0.06096901468 1.646044412e-13)
(-0.007384716246 0.07460464181 2.014083345e-13)
(-0.007307422327 0.07429372825 1.993682996e-13)
(-0.008825283269 0.1113429877 2.987471381e-13)
(-0.00887551943 0.1112427254 3.002875726e-13)
(-0.008828414232 0.1203157821 3.247957459e-13)
(-0.008789659923 0.1205874497 3.23546745e-13)
(-0.007184321431 0.133695768 3.587685704e-13)
(-0.007190799934 0.1329018735 3.58796326e-13)
(-0.006335518068 0.1328977585 0)
(-0.00632996351 0.1337044957 0)
(-0.003772636536 0.1336816742 0)
(-0.003775291739 0.1332783326 0)
(-0.003351230595 0.133274696 0)
(-0.00334986481 0.1334764414 0)
(-0.00334848169 0.1336780368 0)
(0.003334618749 0.1335822733 0)
(0.003327351649 0.1331787875 0)
(0.003752414113 0.1331760037 0)
(0.003759812396 0.1335794883 0)
(0.006644863143 0.1315698685 3.534672555e-13)
(0.006592847923 0.1300097604 3.513855873e-13)
(0.007142408936 0.1248952839 3.375910662e-13)
(0.0072296453 0.1269849454 3.411715355e-13)
(0.007593900476 0.09953391706 2.674110933e-13)
(0.00746863389 0.09739355219 2.632477569e-13)
(0.007070555367 0.08497695363 2.296773882e-13)
(0.007292939092 0.08811786961 2.367273044e-13)
(0.004954857375 0.04849178595 1.302569164e-13)
(0.004644364553 0.0451954247 1.221384105e-13)
(0.00359786531 0.03292729165 8.897049764e-14)
(0.003909274897 0.03598255389 9.664491429e-14)
(0.0009787548846 0.00764636476 2.053912596e-14)
(0.0008547698675 0.006638771997 1.793010185e-14)
(0.0002775592914 0.002052502761 5.551115123e-15)
(0.0003493599108 0.002598647049 6.980527267e-15)
(0 0 0)
(0 0 0)
(0 0 0)
(0 0 0)
(0 0 0)
(0 0 0)
(0 0 0)
(0 0 0)
(0 0 0)
(0 0 0)
(0 0 0)
(0 0 0)
(0 0 0)
(0 0 0)
(0 0 0)
(0 0 0)
(0 0 0)
(0 0 0)
(0 0 0)
(0 0 0)
(0 0 0)
(0 0 0)
(0 0 0)
(0 0 0)
(0 0 0)
(0 0 0)
(0 0 0)
(0 0 0)
(-0.0005300565101 0.003570760309 9.950373858e-15)
(-0.0004832597881 0.003276105082 9.076073226e-15)
(-0.0004136032396 0.002821415295 7.771561172e-15)
(-0.002055814287 0.01540047807 4.236888618e-14)
(-0.002208514429 0.01644057297 4.551914401e-14)
(-0.003347123241 0.02619735253 7.25114413e-14)
(-0.003160793832 0.02489650236 6.847300504e-14)
(-0.006700639174 0.06237702668 1.715294573e-13)
(-0.006822286899 0.06309762089 1.745825706e-13)
(-0.007743133737 0.07622298281 2.108868635e-13)
(-0.007644400131 0.07574724348 2.082778394e-13)
(-0.009040607022 0.1110602257 3.053390873e-13)
(-0.009065566169 0.1106137192 3.06019099e-13)
(-0.00899860018 0.1193428741 3.301803275e-13)
(-0.00895418556 0.1195763057 3.287647932e-13)
(-0.007209272958 0.1304857287 0)
(-0.007215932498 0.1296790768 0)
(-0.006359379484 0.1296714624 0)
(-0.006356125993 0.1300746485 0)
(-0.006352984593 0.1304778731 0)
(-0.003792976863 0.1304551201 0)
(-0.003794245785 0.1302537112 0)
(-0.003582158289 0.1302519673 0)
(-0.003580908635 0.1304533203 0)
(-0.0001138477951 0.1303728132 0)
(-0.0001171264057 0.1302723865 0)
(-0.0001197297875 0.1301719347 0)
(8.794076105e-05 0.1301723502 0)
(9.414180948e-05 0.1303730757 0)
(0.003267119575 0.1303593098 0)
(0.003256757373 0.1299575398 0)
(0.003246227561 0.1295558838 0)
(0.00409886107 0.1295500116 0)
(0.004118838492 0.1303538398 0)
(0.003693137976 0.1303565358 0)
(0.006390823917 0.1245049169 3.427536033e-13)
(0.006286554621 0.1219768646 3.378824998e-13)
(0.006675956824 0.1146730013 3.176625629e-13)
(0.006848266311 0.1181528335 3.252675906e-13)
(0.006840986921 0.08781516414 2.417510636e-13)
(0.006596386843 0.08422630401 2.333133686e-13)
(0.006103903765 0.07179397127 1.988686993e-13)
(0.006360192041 0.07521725357 2.070565941e-13)
(0.00384940087 0.03682214257 1.013494844e-13)
(0.003617685318 0.03440617223 9.528489109e-14)
(0.002643403502 0.02363706149 6.546152509e-14)
(0.002847310763 0.0256096603 7.048528428e-14)
(0.0004041380323 0.00308363924 8.493206138e-15)
(0.0003285186493 0.002491762105 6.911138328e-15)
(2.604287288e-05 0.0001880692858 5.273559367e-16)
(4.975692708e-05 0.0003614729675 9.992007222e-16)
(0 0 0)
(0 0 0)
(0 0 0)
(0 0 0)
(0 0 0)
(0 0 0)
(0 0 0)
(0 0 0)
(0 0 0)
(0 0 0)
(0 0 0)
(0 0 0)
(0 0 0)
(0 0 0)
(0 0 0)
(0 0 0)
(0 0 0)
(0 0 0)
(0 0 0)
(0 0 0)
(0 0 0)
(0 0 0)
(0 0 0)
(0 0 0)
(0 0 0)
(0 0 0)
(0 0 0)
(0 0 0)
(-0.0005026506314 0.003316378751 9.478529073e-15)
(-0.0005680290416 0.003771774532 1.071365219e-14)
(-0.0006069718806 0.004056088275 1.143529715e-14)
(-0.002445186512 0.01794785546 5.062616992e-14)
(-0.00236654012 0.01725990674 4.898859096e-14)
(-0.003526652967 0.02704609941 7.677192215e-14)
(-0.003620883355 0.02794758901 7.882583475e-14)
(-0.007120576942 0.06497419017 1.832145546e-13)
(-0.007004471944 0.06349694833 1.801891969e-13)
(-0.007907863937 0.0763100473 2.165351232e-13)
(-0.008021738023 0.07792337655 2.197131366e-13)
(-0.009219455011 0.1111186608 3.132633042e-13)
(-0.009140695055 0.1094138176 3.104322355e-13)
(-0.009000048659 0.1171554574 3.324007736e-13)
(-0.009058861402 0.1187483546 3.347877531e-13)
(-0.007141214976 0.1272503247 0)
(-0.007148775285 0.12644355 0)
(-0.006289827362 0.1264355008 0)
(-0.006286048086 0.1268387944 0)
(-0.006282267054 0.1272422754 0)
(-0.003705460767 0.1272181281 0)
(-0.003709241799 0.1268146471 0)
(-0.003279786579 0.1268106227 0)
(-0.003277895184 0.1270124569 0)
(-0.003276005546 0.1272141037 0)
(-0.003490733157 0.1272161159 0)
(-0.0002697259142 0.1271859317 0)
(-0.0002716151933 0.1269842849 0)
(-0.0002735064079 0.1267824507 0)
(0.0001559620087 0.1267784262 0)
(0.000159743041 0.1271819072 0)
(0.003166010171 0.1271537354 0)
(0.003158449862 0.1263469607 0)
(0.00400259292 0.1258559094 3.574363028e-13)
(0.004021885122 0.1270451722 3.585187702e-13)
(0.005979169646 0.1146563504 3.236300117e-13)
(0.005835783324 0.1115019811 3.167188733e-13)
(0.006092352475 0.1028801204 2.922245779e-13)
(0.006266621795 0.1062679009 2.999545057e-13)
(0.005744565036 0.07218163686 2.03725925e-13)
(0.005513040429 0.06890582654 1.957184415e-13)
(0.004900052577 0.05635622778 1.600664046e-13)
(0.005236123051 0.06057001441 1.709465902e-13)
(0.002729436423 0.02550521143 7.197020757e-14)
(0.002378096422 0.02208978357 6.272760089e-14)
(0.001614096888 0.0140931904 4.002354004e-14)
(0.001839520459 0.0161582387 4.560241074e-14)
(6.762763619e-05 0.0005037836878 1.415534356e-15)
(3.054612695e-05 0.0002261786353 6.383782392e-16)
(0 0 0)
(0 0 0)
(0 0 0)
(0 0 0)
(0 0 0)
(0 0 0)
(0 0 0)
(0 0 0)
(0 0 0)
(0 0 0)
(0 0 0)
(0 0 0)
(0 0 0)
(0 0 0)
(0 0 0)
(0 0 0)
(0 0 0)
(0 0 0)
(0 0 0)
(0 0 0)
(0 0 0)
(0 0 0)
(0 0 0)
(0 0 0)
(0 0 0)
(0 0 0)
(0 0 0)
(0 0 0)
(0 0 0)
(0 0 0)
(-0.0001174289741 0.0007549502829 2.220446049e-15)
(-0.0002130626855 0.001378761468 4.024558464e-15)
(-0.0003165242071 0.002061625188 5.967448757e-15)
(-0.001813746191 0.01297602131 3.755329381e-14)
(-0.001549869387 0.01101697774 3.20993232e-14)
(-0.002521967039 0.0188506564 5.491440636e-14)
(-0.002852310987 0.02145717428 6.208922265e-14)
(-0.006137682192 0.0545668001 1.578737141e-13)
(-0.005691517202 0.05027742673 1.464245392e-13)
(-0.006591060593 0.06197038177 1.804667527e-13)
(-0.007043325321 0.06664860316 1.928179838e-13)
(-0.008482557644 0.0995019729 2.878391969e-13)
(-0.008109739933 0.0945081849 2.751965322e-13)
(-0.008149698212 0.1032391359 3.006067617e-13)
(-0.008468270415 0.1079890778 3.123890036e-13)
(-0.00709219897 0.1226824346 3.54938301e-13)
(-0.0069795953 0.1198708054 3.490679967e-13)
(-0.006265061951 0.1221636549 3.557709682e-13)
(-0.006308656471 0.1239409887 3.58602037e-13)
(-0.003735705513 0.1239906548 0)
(-0.003743267578 0.1231836928 0)
(-0.002884338396 0.1231756437 0)
(-0.002876776331 0.1239826058 0)
(-0.003306250292 0.1239866304 0)
(-0.0002999700443 0.1239584584 0)
(-0.0003075321089 0.1231514964 0)
(0.0005514026954 0.1231434473 0)
(0.00055896476 0.1239504093 0)
(0.003109302261 0.1228216115 3.556044348e-13)
(0.003056282326 0.1201242046 3.500671975e-13)
(0.003779980283 0.1164362907 3.393396675e-13)
(0.003873665903 0.1200037202 3.474720511e-13)
(0.005354303939 0.1004649033 2.909339436e-13)
(0.005122949826 0.09549853202 2.783606678e-13)
(0.005200948276 0.08562997064 2.495920137e-13)
(0.005470960313 0.09067475634 2.625816231e-13)
(0.004558501079 0.05592477845 1.619399059e-13)
(0.004233648172 0.05159071146 1.503658309e-13)
(0.003581140705 0.04016153091 1.170452624e-13)
(0.003898498765 0.0440159191 1.274536032e-13)
(0.001520831297 0.013866351 4.013456234e-14)
(0.001306423549 0.01183241048 3.44863027e-14)
(0.0006677652509 0.005685412135 1.657007864e-14)
(0.000907285697 0.007776509836 2.250977182e-14)
(0 0 0)
(0 0 0)
(0 0 0)
(0 0 0)
(0 0 0)
(0 0 0)
(0 0 0)
(0 0 0)
(0 0 0)
(0 0 0)
(0 0 0)
(0 0 0)
(0 0 0)
(0 0 0)
(0 0 0)
(0 0 0)
(0 0 0)
(0 0 0)
(0 0 0)
(0 0 0)
(0 0 0)
(0 0 0)
(0 0 0)
(0 0 0)
(0 0 0)
(0 0 0)
(0 0 0)
(0 0 0)
(0 0 0)