/*--------------------------------*- C++ -*----------------------------------*\
| =========                 |                                                 |
| \\      /  F ield         | OpenFOAM: The Open Source CFD Toolbox           |
|  \\    /   O peration     | Version:  v1912                                 |
|   \\  /    A nd           | Website:  www.openfoam.com                      |
|    \\/     M anipulation  |                                                 |
\*---------------------------------------------------------------------------*/
FoamFile
{
    version     2.0;
    format      ascii;
    class       surfaceVectorField;
    location    "2.13";
    object      Uf;
}
// * * * * * * * * * * * * * * * * * * * * * * * * * * * * * * * * * * * * * //

dimensions      [0 1 -1 0 0 0 0];


internalField   nonuniform List<vector> 
25162
(
(99.9995407 0.001587778106 -1.793600845e-21)
(99.9985131 0.001225406157 5.308642132e-21)
(99.9990192 0.004926161566 -1.775728269e-21)
(99.99687541 0.005240259355 1.780599545e-21)
(99.99800456 0.01190914502 -3.546170568e-21)
(99.99346558 0.01424209531 1.067428138e-20)
(99.99889986 0.01576156607 1.11115003e-21)
(99.98709255 0.03227897701 -7.072570861e-21)
(99.99395535 0.03565087979 -1.180419501e-21)
(99.99770852 0.02972691522 1.718805981e-21)
(99.99933218 0.01820921841 8.575462971e-22)
(99.99273151 0.05444313849 1.713500161e-21)
(99.99831475 0.03156863242 8.428924642e-22)
(99.99875352 0.02379459789 -8.607556678e-22)
(99.99786419 0.04148548244 8.428580379e-22)
(99.98829738 0.0946522402 1.681563905e-21)
(99.99757835 0.05400131169 0)
(99.99737381 0.06819117198 -3.150682456e-21)
(99.98402386 0.152265995 -3.150666058e-21)
(99.99694888 0.08528177815 -8.191677641e-22)
(99.99641505 0.1055769384 2.748291843e-21)
(99.97790402 0.2333007384 3.03255369e-21)
(99.9958666 0.1292350018 3.751142574e-22)
(99.99534436 0.1562536927 -2.589757014e-21)
(99.97181854 0.3412201764 3.652529078e-22)
(99.99490614 0.1864172696 -2.720389343e-21)
(99.99463525 0.2191287705 1.382856173e-22)
(99.96815374 0.4715198083 -1.861201931e-21)
(99.99463136 0.2532166975 2.377589607e-21)
(99.99495268 0.2870629159 2.120393383e-21)
(99.97051987 0.6062572715 -9.600732587e-22)
(99.99558689 0.3186761595 0)
(99.99650804 0.3459096995 0)
(99.98026927 0.7150491584 2.674391575e-22)
(99.99759821 0.3670676932 0)
(99.99877865 0.3804937511 4.769861695e-23)
(99.99533444 0.7692231766 3.450180752e-25)
(100.0001558 0.3855409602 5.833147584e-22)
(100.0015815 0.3813034072 1.505732056e-22)
(100.0120128 0.7528595262 -3.954181799e-22)
(100.002831 0.3684696788 -6.425278403e-22)
(100.0038422 0.3484000491 9.375876783e-23)
(100.0238959 0.673124418 1.450499426e-21)
(100.0045403 0.3228737531 3.60272142e-22)
(100.0049144 0.2938210961 0)
(100.0286703 0.5576667344 0)
(100.0050172 0.2631764627 0)
(100.0050731 0.2323856133 7.075480139e-22)
(100.0274969 0.4356494401 1.46806861e-21)
(100.0053768 0.2029963802 -3.59052954e-21)
(100.0053681 0.1737426772 -1.327847357e-21)
(100.024615 0.3203142589 2.931355291e-21)
(100.0047604 0.1474383103 2.93113655e-21)
(100.0035881 0.1247427463 -8.552799628e-22)
(100.0152816 0.2272015695 -6.283037736e-23)
(100.0006998 0.1084201616 1.652806741e-21)
(100.0104876 0.1095303316 -7.528152069e-21)
(100.0582882 0.2675054157 6.634813594e-22)
(100.0199483 0.2336539669 -2.70601085e-21)
(100.0031441 0.1097974586 -1.606497334e-21)
(100.0077473 0.06489426082 -9.588871899e-22)
(100.0417461 0.1673938582 1.517342583e-20)
(100.0066436 0.03073274315 -7.713974108e-21)
(100.0320988 0.09118759291 -1.618060796e-20)
(100.028963 0.02917395158 1.582346338e-21)
(99.99570026 0.004019623592 8.871049484e-21)
(99.99473794 0.001134856902 1.87911173e-22)
(99.99073479 0.01297374635 1.421006592e-20)
(99.98849107 0.006391139873 -1.238310453e-20)
(99.98159077 0.03215316248 7.384303593e-21)
(99.97552371 0.02088530704 -1.929660115e-20)
(99.97549264 0.06134587871 -1.241732783e-21)
(99.95406025 0.05110782562 3.711016405e-20)
(99.95755473 0.07364031641 -8.197487739e-21)
(99.96242842 0.08044985732 -1.755120408e-21)
(99.97086762 0.0830067379 3.478045155e-21)
(99.98269554 0.05765970448 1.729332248e-21)
(99.97073697 0.1058206664 1.70135731e-21)
(99.9615689 0.11305748 1.724694243e-21)
(99.93492686 0.151265799 -3.472602202e-21)
(99.95098586 0.1513431872 -1.132284128e-23)
(99.95293668 0.1836232372 1.681827805e-21)
(99.93814755 0.199504793 -1.130393541e-23)
(99.89773108 0.2632280484 0)
(99.93144583 0.2416442727 0)
(99.91204825 0.2754324504 -2.105855524e-21)
(99.93241158 0.2882184264 -4.157295625e-21)
(99.9252299 0.301148273 -3.898630293e-23)
(99.90261001 0.3493605888 -9.353010625e-21)
(99.91806115 0.3329784023 -3.215000049e-21)
(99.89359389 0.4685062548 2.779275289e-23)
(99.90546742 0.4453181689 -2.147842431e-21)
(99.86318288 0.542986945 -1.179637527e-20)
(99.88629691 0.5136763669 -2.869025041e-21)
(99.86083784 0.6966751862 -5.544526016e-21)
(99.87775543 0.6566959002 -5.189027283e-21)
(99.82245716 0.8050166822 3.694466181e-22)
(99.85440818 0.7557454499 -6.665665369e-21)
(99.83551192 0.9827300184 -1.050168971e-22)
(99.85802384 0.9167727369 -4.530551011e-21)
(99.79345411 1.130877582 -1.21579771e-21)
(99.83370787 1.051701797 -3.425820742e-21)
(99.83715862 1.295821694 -4.364714856e-21)
(99.86491468 1.193476882 -5.703192682e-21)
(99.80074622 1.484165785 -1.109490289e-19)
(99.84502004 1.364323759 -1.90365646e-21)
(99.87990776 1.569146379 -3.344786185e-21)
(99.91071663 1.425738533 -3.064741967e-21)
(99.85895334 1.785283789 -6.220193263e-22)
(99.89729585 1.624440562 -1.315867025e-21)
(99.95569344 1.726449026 4.151906764e-22)
(99.98318134 1.548358303 -5.24825731e-22)
(99.95501963 1.945660871 -3.031748811e-21)
(99.97718367 1.756409648 -2.551003494e-22)
(100.0413268 1.729516972 -1.407892407e-22)
(100.0471391 1.526068528 -1.86320263e-22)
(100.0585786 1.923496286 -9.597002066e-23)
(100.061993 1.717116507 1.305339417e-21)
(100.1135338 1.579603225 1.842872263e-21)
(100.0900898 1.370872993 3.194796844e-21)
(100.138891 1.730733409 3.217550373e-21)
(100.1248918 1.527265721 4.711043615e-22)
(100.1480804 1.328363066 -5.650239223e-21)
(100.1071723 1.137900794 -5.302532638e-21)
(100.1737525 1.435424426 -1.894506197e-21)
(100.149893 1.2570317 -1.897470406e-21)
(100.1471971 1.050606508 -4.71201774e-21)
(100.0989068 0.891359577 4.396135871e-22)
(100.1647424 1.119692681 -1.28820188e-21)
(100.14228 0.9801198225 5.273768659e-21)
(100.0994077 0.6361158248 -1.265227235e-20)
(100.1561576 0.8608312456 -1.265128929e-20)
(100.2236972 0.94205963 1.281795339e-20)
(100.1391829 0.7278362252 -2.611018567e-20)
(100.1206967 0.6106224137 1.126368873e-20)
(100.1694813 0.6580505985 -1.647932582e-20)
(100.1004715 0.5098363186 2.291434312e-20)
(100.0751595 0.4471629607 2.549569944e-20)
(100.0993705 0.3205730923 2.247368278e-20)
(100.221899 0.5035257702 -2.622720456e-22)
(100.1665746 0.5509446319 4.640078363e-20)
(100.0979679 0.4384599804 2.565327696e-21)
(100.0747412 0.1903022031 -6.838447594e-22)
(100.1640021 0.3144326375 3.237190417e-20)
(100.0617915 0.08851487982 -7.506020763e-21)
(100.1280683 0.1710565603 -1.717334234e-20)
(100.1124551 0.05448282653 7.715274023e-21)
(99.98936644 0.002578491867 -2.127151564e-20)
(99.99231481 -0.001513440714 -1.063072587e-20)
(99.97560895 0.01256828303 -4.614971099e-20)
(99.97912134 -0.0005167688895 1.012177305e-20)
(99.95094138 0.03821262088 1.032140213e-20)
(99.9515113 0.01319179117 -3.907846398e-20)
(99.92147279 0.08694764241 2.362596976e-20)
(99.90695876 0.04600671377 4.254955662e-20)
(99.89526393 0.09043433302 -3.773157777e-20)
(99.93038787 0.09728225769 -7.051926087e-21)
(99.89457167 0.1053875118 -5.20493945e-20)
(99.90209303 0.1252873706 -3.516815811e-21)
(99.88670306 0.1878313911 -6.941140581e-21)
(99.87481996 0.1751897356 -3.462137847e-21)
(99.82770194 0.212789959 2.42359006e-20)
(99.8419472 0.2384017845 6.864304549e-21)
(99.82331149 0.3314606715 -6.029951259e-21)
(99.80281844 0.3175326189 4.412855754e-21)
(99.73111055 0.3846239657 -3.423794821e-20)
(99.77702224 0.4029137751 2.442623905e-21)
(99.74118104 0.4293909083 -1.495506532e-20)
(99.75867176 0.5215198662 -6.277847201e-21)
(99.74179268 0.5155103795 0)
(99.69667322 0.5700480891 6.449283434e-21)
(99.71707806 0.5817917199 -6.272720516e-21)
(99.66040944 0.8246927828 3.100650144e-21)
(99.63421443 0.822695468 1.218997346e-20)
(99.57222106 0.9078528876 6.053562253e-21)
(99.60477738 0.9169994349 1.51693881e-20)
(99.55461044 1.243433897 7.753996823e-20)
(99.51517436 1.251144914 9.386497779e-20)
(99.43578238 1.38172563 8.298068131e-20)
(99.48609882 1.379540126 -1.380950384e-20)
(99.47175543 1.797451779 -5.797215364e-19)
(99.41153462 1.8290314 -9.099709506e-19)
(99.32409699 2.030180281 2.542364508e-20)
(99.39624419 1.994680809 -2.490714604e-20)
(99.48750825 2.428213082 -4.344399793e-19)
(99.40697473 2.512188405 0)
(99.34595447 2.771063197 -3.986037698e-19)
(99.43275594 2.676856885 -3.278955489e-21)
(99.65749793 2.940283441 2.022446738e-19)
(99.55685245 3.08518462 -1.013311192e-19)
(99.57292752 3.364898882 1.408109508e-18)
(99.61682278 3.190630271 1.470192265e-20)
(99.89798957 3.213568636 -8.670063613e-23)
(99.84512434 3.416540815 1.530085448e-19)
(99.88532634 3.67590866 -8.74692465e-22)
(99.92850224 3.446681765 -1.622671811e-22)
(100.1744582 3.164896769 -5.498343673e-20)
(100.1676605 3.403706245 -1.020119556e-19)
(100.2400277 3.601534285 -1.019214719e-19)
(100.2401782 3.344952784 2.001438597e-21)
(100.3853838 2.82315686 2.257576453e-21)
(100.4182951 3.068143674 1.452033631e-21)
(100.5010071 3.199004505 6.905003331e-20)
(100.4609974 2.944954129 4.852758383e-21)
(100.4770194 2.315507599 -5.299714627e-21)
(100.5371209 2.535123122 -1.217164171e-20)
(100.6145834 2.608035483 -4.314252643e-21)
(100.5454196 2.388071875 4.975914373e-21)
(100.5312335 1.952446444 -1.604868235e-20)
(100.4624315 1.773345476 -1.087302066e-20)
(100.593631 1.985066493 -1.088768336e-20)
(100.5202668 1.812019716 5.891612152e-21)
(100.3969794 1.233099607 -4.997254115e-20)
(100.5235417 1.498925585 -2.618541078e-20)
(100.6226216 1.504411372 -7.568744152e-20)
(100.467921 1.259002602 -3.489072053e-20)
(100.3057589 0.8553643263 -5.862169311e-20)
(100.4106062 1.048100972 2.301500151e-20)
(100.4773457 1.033263079 -2.779376593e-20)
(100.3546774 0.8654876463 -2.434493281e-20)
(100.2797212 0.4929473294 1.043572213e-20)
(100.4786234 0.6809271213 -2.53053852e-20)
(100.4355658 0.8136154903 -2.062317818e-22)
(100.3255706 0.7192920179 -1.457421172e-20)
(100.2112731 0.2915895166 1.512685467e-20)
(100.353479 0.4212604524 2.706672531e-20)
(100.1736718 0.1352075802 -1.939776477e-21)
(100.2756132 0.227925061 -3.929999548e-21)
(100.2399693 0.0721283634 0)
(99.98523792 -0.00524894362 2.134952187e-20)
(99.99727893 -0.00768385588 -3.556543595e-21)
(99.95917164 -0.001386047385 1.793190962e-20)
(99.97552666 -0.01862484806 2.492190019e-20)
(99.91256674 0.02127882932 -7.133264201e-21)
(99.93023073 -0.01467067124 -3.553535823e-21)
(99.85028345 0.08338719515 0)
(99.85498452 0.0107647738 5.423788568e-21)
(99.82177191 0.06999760961 1.65704652e-20)
(99.85410521 0.1043218217 -4.86324777e-20)
(99.81128943 0.09262639279 1.245832904e-20)
(99.80909786 0.1290164338 0)
(99.76018502 0.2235788324 3.343388402e-22)
(99.7548626 0.1900808561 -2.77213745e-20)
(99.68633411 0.2181969876 -2.770272556e-20)
(99.68963279 0.269229783 5.627652749e-20)
(99.62615972 0.4174561371 -8.384471514e-20)
(99.61240067 0.3699933783 2.910244853e-20)
(99.50917139 0.4246820967 -5.59784297e-20)
(99.54389306 0.4929623149 -2.783120744e-20)
(99.49618943 0.5003886945 -4.58019844e-20)
(99.47333924 0.6785199761 6.662768702e-21)
(99.45769856 0.6481242951 1.326572307e-20)
(99.38819021 0.7004574651 3.342414024e-20)
(99.40426651 0.7391818818 6.610007557e-21)
(99.24884164 1.111780146 1.479874719e-19)
(99.22142177 1.073748673 2.043102774e-19)
(99.1213458 1.164559896 -3.216852357e-20)
(99.15238789 1.212587081 -2.207824168e-20)
(98.97552247 1.789473114 3.41087685e-19)
(98.92380584 1.749328502 7.149719273e-19)
(98.78419764 1.921839318 7.32140475e-19)
(98.84655727 1.970614674 -6.413807432e-19)
(98.74929956 2.763944172 -9.744737961e-21)
(98.6588091 2.745986972 6.552073017e-19)
(98.50574325 3.023597814 1.274145164e-18)
(98.61946188 3.037353292 1.14582874e-18)
(98.80477538 3.919755813 1.97200242e-18)
(98.61442808 3.956938557 -2.278130849e-19)
(98.56858839 4.359790466 2.052496013e-18)
(98.67994425 4.257093054 1.033890105e-18)
(99.26683078 4.854710528 4.840974114e-21)
(99.07459169 5.022610105 -9.825898399e-20)
(99.15810215 5.436427436 6.431975914e-19)
(99.25433238 5.205258201 6.35587636e-19)
(99.93254579 5.233339749 2.784513521e-22)
(99.85855588 5.499328733 2.248785391e-19)
(100.0000168 5.819731076 1.214714489e-21)
(100.0600503 5.503508521 -2.365205912e-19)
(100.5845065 4.994024712 -6.286819628e-19)
(100.5912453 5.293025366 5.151727949e-20)
(100.7710826 5.486510822 3.078123345e-19)
(100.7359259 5.162411959 -3.924300275e-19)
(100.9970509 4.350640827 2.612591339e-19)
(101.0618246 4.642660989 -4.601192176e-19)
(101.2284568 4.734434465 -1.691472796e-20)
(101.1351127 4.435337416 1.24327545e-21)
(101.1532494 3.471507404 1.160280883e-19)
(101.2557266 3.738696676 1.463382703e-19)
(101.3870459 3.750915385 7.685075377e-20)
(101.2631113 3.490213559 2.673614044e-19)
(101.2125582 2.78880107 0)
(101.0995555 2.58644894 4.2996334e-20)
(101.3028614 2.767774128 0)
(101.1762953 2.5728341 0)
(100.9005068 1.746917193 2.819502763e-20)
(101.1155266 2.043428752 1.819934018e-20)
(101.2280627 1.950132379 -1.683851077e-20)
(100.9867851 1.694305292 3.544277378e-20)
(100.6857199 1.184977557 -3.272717338e-20)
(100.8602722 1.392827573 -1.462236545e-20)
(100.9286562 1.304629122 -1.476613075e-20)
(100.7408627 1.133980472 -7.010023865e-21)
(100.5363648 0.6033676729 -8.776703308e-21)
(100.7996265 0.7696484934 -1.941483145e-20)
(100.8095568 0.9664037561 -2.547714896e-21)
(100.6612983 0.9227041473 4.530400197e-21)
(100.4047333 0.3540259058 7.817677196e-21)
(100.5885932 0.4698426758 1.193299283e-20)
(100.3307307 0.1628689946 -1.989871078e-21)
(100.455909 0.2511597965 -3.526379138e-21)
(100.3935707 0.07877102714 -5.101375016e-22)
(99.99113308 -0.02124414646 0)
(100.0173308 -0.01787649844 0)
(99.95112351 -0.03265339288 3.569780797e-21)
(99.98634542 -0.04935102426 0)
(99.87916045 -0.02470351457 8.978320651e-21)
(99.92283242 -0.06570903736 -3.189444424e-21)
(99.77643837 0.02911474257 1.588966914e-20)
(99.81633962 -0.05945622114 1.993274128e-20)
(99.74859062 0.00390734022 -6.008081109e-21)
(99.77080455 0.06920391332 2.144794875e-20)
(99.72301602 0.03373848847 1.75911017e-21)
(99.70742961 0.08014748341 -8.576601611e-21)
(99.60954199 0.1949544276 0)
(99.61938847 0.1431618354 -1.791217207e-20)
(99.532932 0.1527934698 -1.466072286e-20)
(99.51397618 0.2250567437 3.652627034e-21)
(99.3841098 0.4048795671 0)
(99.38878163 0.3318041493 3.652235972e-21)
(99.25585879 0.3583319935 -3.748214095e-21)
(99.2640774 0.4783832488 1.838752973e-20)
(99.21269287 0.4590064355 4.711302653e-21)
(99.11178351 0.7084114814 2.946668376e-19)
(99.10843367 0.6531287704 8.178632652e-20)
(99.0140394 0.6920178309 1.09808586e-19)
(99.01554981 0.7572985027 3.208145536e-20)
(98.67624073 1.272452546 -2.038117755e-19)
(98.66469985 1.189099059 7.909876184e-19)
(98.50965806 1.284321645 1.952209076e-19)
(98.52085865 1.385933586 -8.226864513e-19)
(98.09496933 2.269766892 7.640870649e-19)
(98.04517429 2.15882743 -1.372828594e-19)
(97.81975338 2.360396683 9.451017939e-20)
(97.88043478 2.492000562 8.048003602e-19)
(97.55917723 3.837124734 -2.680085162e-18)
(97.43032101 3.733806487 1.076232189e-20)
(97.15525844 4.102101906 0)
(97.32925766 4.229412792 0)
(97.60774695 5.85093091 0)
(97.36535823 5.863537462 -2.392980056e-21)
(97.18558786 6.42364857 4.168785387e-20)
(97.52297501 6.407654643 0)
(98.81534455 7.543195222 3.191357158e-20)
(98.44400467 7.782777803 1.822426677e-20)
(98.6878759 8.402987842 -1.928388813e-20)
(98.90871628 8.049135311 5.86974232e-21)
(100.4465722 7.845733642 -6.330989054e-21)
(100.3384909 8.256405362 -1.373244902e-20)
(100.7047185 8.632197728 -1.576908543e-19)
(100.762365 8.136103445 -1.173717593e-20)
(101.6509894 7.033154234 1.833106425e-19)
(101.7271446 7.436177912 1.211239776e-19)
(102.0793077 7.556009703 3.772818732e-18)
(101.9448683 7.138963621 1.081055999e-18)
(102.1995523 5.817360449 -5.305074458e-20)
(102.3574225 6.155597081 -1.136602072e-20)
(102.6369304 6.143651564 1.901214479e-18)
(102.4285912 5.814434096 8.947457837e-19)
(102.2807441 4.516550624 4.543137635e-19)
(102.4664955 4.799726475 -9.732152741e-19)
(102.6453786 4.725566844 -5.263473361e-20)
(102.4306082 4.459370173 4.916610612e-19)
(102.2161591 3.455703538 4.018118017e-20)
(102.031441 3.230945851 -3.796112216e-21)
(102.3195234 3.351401909 1.780462279e-20)
(102.117675 3.148657484 2.201405715e-20)
(101.6002198 2.101574435 -9.325758641e-20)
(101.9155273 2.396391315 -5.922136691e-20)
(102.0089235 2.188921917 -3.334674411e-20)
(101.6787045 1.961356164 -1.72776477e-20)
(101.2008836 1.38668988 1.151615534e-20)
(101.45215 1.588455984 3.456362825e-20)
(101.4963134 1.426130936 -3.924359113e-21)
(101.2453455 1.273889066 -3.805853359e-21)
(100.8381002 0.6339923316 2.046568281e-21)
(101.1606557 0.7402249389 0)
(101.2575061 1.021387726 -1.556521482e-22)
(101.0880456 1.01290534 -1.043184252e-20)
(100.6268407 0.3641933689 4.504197402e-22)
(100.8430551 0.4454631037 2.046383775e-21)
(100.507227 0.1653697147 -2.055382901e-21)
(100.6434582 0.2325130584 -2.057726128e-21)
(100.5495498 0.07195695053 -2.082011701e-21)
(100.0159639 -0.04582974448 0)
(100.0605806 -0.03207434433 1.744870261e-21)
(99.96211851 -0.08225630537 -7.166921098e-21)
(100.0207829 -0.09250094501 -1.756931471e-21)
(99.86496806 -0.1002210864 7.348583416e-21)
(99.9399268 -0.1396536222 -3.586421748e-21)
(99.715128 -0.06377685026 9.678154085e-21)
(99.80324079 -0.1660024596 2.402503489e-21)
(99.69742293 -0.1081573219 1.66695149e-23)
(99.69109388 -0.01536160668 -7.219202251e-21)
(99.65305609 -0.07647548567 -7.236844959e-21)
(99.61552868 -0.02328513222 0)
(99.46067939 0.09100851156 -1.466036094e-20)
(99.49352075 0.02650479066 0)
(99.39633865 0.009657701778 -7.071433584e-23)
(99.34564138 0.09534464721 -4.280136209e-23)
(99.12956817 0.2841268373 7.519713575e-21)
(99.16721662 0.1881841744 1.130575236e-20)
(99.01421385 0.1811437239 1.517243562e-20)
(98.9781334 0.3292887464 -3.080330088e-20)
(98.92938378 0.2936628469 -7.190118844e-21)
(98.71548159 0.5862455353 1.647405513e-19)
(98.73793719 0.5092622152 6.717969464e-20)
(98.61606185 0.530278994 2.697643995e-19)
(98.5862369 0.6202670511 1.579444404e-19)
(97.96715118 1.230522657 0)
(97.99208844 1.10548497 4.008745895e-19)
(97.78276678 1.17585052 4.929248137e-19)
(97.75125032 1.326850592 0)
(96.87894573 2.458964704 4.276329346e-20)
(96.87367786 2.255994596 -1.852655771e-20)
(96.52437299 2.425021347 -7.99943731e-19)
(96.53086524 2.681504042 8.568171105e-20)
(95.61478791 4.720949243 0)
(95.47028495 4.415594463 0)
(94.97163881 4.811413703 5.451107583e-19)
(95.17274183 5.186502047 0)
(95.2989523 8.254906852 -5.005790508e-19)
(94.81911566 8.016195203 0)
(94.34939284 8.816989686 0)
(95.02881153 9.10206424 0)
(97.91196017 11.67030648 1.979459974e-19)
(97.18320599 12.00681135 7.629166756e-20)
(97.45405427 13.12196788 0)
(98.33656214 12.54972896 -2.459220051e-20)
(102.0021052 11.46431172 0)
(101.8304941 12.25955859 2.861793956e-20)
(102.6695661 12.62622366 7.844602025e-20)
(102.6904133 11.69632192 0)
(103.9350229 9.07883728 8.18579079e-19)
(104.184386 9.655231328 4.389968816e-20)
(104.7812123 9.54713788 8.318018315e-19)
(104.4164387 8.993467712 6.079038639e-19)
(104.2717397 6.910129755 -1.319049519e-18)
(104.597954 7.259175351 -5.534196923e-20)
(104.9313379 7.067168179 -1.397918631e-18)
(104.555062 6.756546455 -1.34925772e-18)
(103.9483281 5.147342976 0)
(104.257642 5.40184656 -1.767706618e-19)
(104.4481143 5.198768166 0)
(104.1146198 4.98253769 -6.270414222e-19)
(103.5883748 3.791472093 -3.285805411e-20)
(103.3064283 3.578152129 -3.401376657e-20)
(103.6764662 3.592556114 -3.384851445e-20)
(103.3862966 3.411104512 -3.259491595e-20)
(102.4494873 2.200633629 2.703563478e-20)
(102.8793301 2.456577487 -2.761151434e-22)
(102.9083365 2.125502406 1.675197935e-20)
(102.4849765 1.967852296 1.245210772e-20)
(101.8003527 1.413316024 -1.648551686e-20)
(102.126243 1.569937685 -8.444836107e-21)
(102.1113173 1.339354034 -8.446472175e-21)
(101.8042538 1.239413999 1.301398663e-20)
(101.1485185 0.5582438626 0)
(101.5161503 0.5800865558 1.389464529e-21)
(101.7119174 0.8994817419 -1.144556721e-20)
(101.5476608 0.9707356348 2.826600174e-20)
(100.8448744 0.3116794198 -5.215337384e-22)
(101.0755774 0.3365708187 -1.639284195e-21)
(100.6740708 0.1384772264 -2.094595264e-21)
(100.8068019 0.1671649329 -2.387504514e-21)
(100.6801561 0.0504887968 2.648108139e-21)
(100.0683443 -0.07833504857 -1.15057055e-23)
(100.1344853 -0.04976269782 4.618316583e-23)
(100.00223 -0.1488296136 1.82087106e-21)
(100.0873309 -0.1464435865 -5.559220749e-23)
(99.88289927 -0.2043765731 -9.565881281e-21)
(99.99244721 -0.2333875201 1.422536639e-21)
(99.68889309 -0.2035176624 -8.735582655e-21)
(99.83135297 -0.3039899226 -1.454372312e-20)
(99.68734346 -0.264258829 -1.233356563e-20)
(99.64102894 -0.1512095686 -6.823540592e-21)
(99.62302182 -0.2363952797 -2.676888555e-21)
(99.55954751 -0.1842414059 3.774944961e-23)
(99.34373983 -0.09050970668 1.097178461e-20)
(99.40549585 -0.1602582216 1.11186256e-20)
(99.3063123 -0.2082140614 5.49994276e-21)
(99.21919688 -0.1203989491 1.885980286e-20)
(98.91350715 0.04923098413 -1.51036086e-20)
(98.99273527 -0.05999777975 -1.132055737e-20)
(98.83314813 -0.1096890943 -1.904331478e-20)
(98.73510316 0.05596813203 -3.192248803e-20)
(98.70043423 -0.002908090983 -1.659566377e-19)
(98.33898232 0.2967177951 -1.05981203e-19)
(98.39869123 0.2065203101 -2.095809363e-19)
(98.25755252 0.1977495949 -4.272666863e-19)
(98.18375323 0.3008961123 -1.720466615e-20)
(97.26009104 0.8715418464 -2.969626456e-19)
(97.34812716 0.7144123852 1.942234925e-20)
(97.10561019 0.7246243239 4.370491217e-19)
(96.98854558 0.9095446685 -4.012706258e-19)
(95.46037647 2.047077118 9.54870437e-19)
(95.56930862 1.764798476 6.350414362e-19)
(95.13605711 1.811594546 1.137501782e-18)
(94.97806341 2.163262472 -1.08111206e-19)
(92.83289771 4.380271192 -4.790719164e-20)
(92.86387819 3.852700239 -8.412257219e-20)
(92.12946532 3.946233479 -4.556287329e-24)
(92.05545 4.647484437 -3.114939695e-19)
(89.96857438 9.517504905 0)
(89.4504321 8.42289115 4.48922124e-20)
(87.76837524 9.378188749 0)
(88.06031369 8.746933827 0)
(89.04815679 10.71261369 0)
(88.22139083 10.67028675 0)
(92.64505978 19.73335681 -7.104363378e-20)
(93.85562945 19.54912323 -1.02476949e-19)
(92.86330297 21.34259876 -2.80207771e-19)
(94.40892895 20.82597531 -2.283137124e-19)
(106.0079863 18.45842106 -1.607591982e-19)
(106.2359451 16.96160589 -6.236545764e-20)
(107.732133 16.72086973 -2.388890812e-19)
(106.7031975 19.29645577 -1.609233792e-19)
(108.5727643 18.27233151 -1.580553233e-19)
(108.1759335 18.93558312 -1.585492629e-19)
(108.7245604 11.33223729 -1.514464922e-19)
(108.0447923 10.57050443 -4.085282665e-19)
(109.3808228 10.68317614 -3.046507582e-19)
(108.5763856 10.10318188 -4.980939401e-19)
(107.2288398 7.109019413 -9.350077826e-19)
(107.7929692 7.402226947 6.466776246e-21)
(108.0870196 6.94242965 2.899254371e-20)
(107.4948795 6.744226232 1.321336542e-20)
(106.0975712 5.014077654 8.361368758e-19)
(106.5440166 5.162492919 -1.520531034e-19)
(106.6609235 4.808274608 1.078294789e-18)
(106.2142272 4.713822298 1.477373766e-18)
(105.1885145 3.50181636 2.731469527e-19)
(104.814285 3.382661688 3.565725377e-19)
(105.1982232 3.220115728 -1.100363969e-19)
(104.8329368 3.131052681 3.597154409e-19)
(103.3691596 1.953849445 4.478698777e-21)
(103.9185793 2.100296975 -3.843706651e-22)
(103.8087102 1.676998913 -2.700308256e-21)
(103.3103859 1.633726639 -4.77910329e-21)
(102.4081452 1.19690915 4.755977284e-21)
(102.7907966 1.269706751 -1.958453657e-23)
(102.6876348 0.9906282075 -7.596858852e-21)
(102.3442069 0.973310725 9.634987554e-21)
(101.418388 0.3668702616 -1.622158675e-22)
(101.7877735 0.2892835936 -3.218627574e-22)
(102.1190145 0.5955403752 8.196768443e-22)
(101.9787902 0.7144332998 6.954373278e-21)
(101.0214231 0.1922393217 -3.517909068e-21)
(101.2401816 0.1428704994 -2.433801853e-22)
(100.8008238 0.08012384866 2.600408204e-21)
(100.9124957 0.05685096273 -2.431235067e-21)
(100.7557194 0.01486961093 4.701096251e-22)
(100.1556923 -0.1172561066 1.213969201e-23)
(100.2450964 -0.06999685076 -2.584606192e-21)
(100.0803069 -0.2291389208 -4.678290681e-22)
(100.192888 -0.2082561269 1.126288398e-21)
(99.94446959 -0.3313515896 -3.703966373e-21)
(100.0889146 -0.3413902148 -2.440649009e-21)
(99.71333246 -0.3796749353 7.602905835e-21)
(99.91197942 -0.4642667347 -8.380416337e-22)
(99.7331985 -0.4538253572 7.837923076e-22)
(99.63850348 -0.3325417539 3.688996997e-21)
(99.65009922 -0.4348391858 7.684415231e-21)
(99.5598551 -0.3918889827 5.409406357e-21)
(99.28784889 -0.3401964245 -1.852660092e-21)
(99.38154344 -0.4045424464 2.843846655e-21)
(99.29041575 -0.4838203334 1.881379586e-21)
(99.16552343 -0.4071499579 5.692650458e-21)
(98.77822994 -0.2911278867 -1.931251367e-21)
(98.90293611 -0.3962515868 1.266334479e-23)
(98.7525203 -0.4898224674 1.900578765e-21)
(98.58980851 -0.3298424721 7.388176565e-20)
(98.57631025 -0.4071926417 -7.623077627e-20)
(98.07191411 -0.1599843066 1.009613773e-21)
(98.1745665 -0.2479282485 0)
(98.0339928 -0.2943457473 0)
(97.91424054 -0.1987763642 5.22455892e-22)
(96.74229836 0.1673163354 3.709052314e-19)
(96.90779811 0.01598782973 5.836351164e-19)
(96.66871303 -0.04773838557 -5.461584734e-20)
(96.45926697 0.119094945 4.294214714e-19)
(94.3940923 0.8244763592 1.926474929e-19)
(94.66302303 0.5509879857 -1.172067872e-19)
(94.25415913 0.4359423275 4.825714205e-20)
(93.90251589 0.7326019673 6.39005765e-20)
(90.66038786 1.836606529 1.886527332e-19)
(91.06405399 1.331993064 -8.671329711e-20)
(90.49598285 1.007753215 3.030037179e-19)
(89.90423484 1.515378668 0)
(83.99483503 2.964666906 0)
(84.59132591 2.33433466 0)
(84.01351946 1.715836385 0)
(83.15963937 2.332347119 0)
(120.8711821 22.84769606 -1.075046714e-18)
(119.2901279 21.73096291 -3.771881585e-19)
(121.6532143 21.12377648 -9.055810426e-21)
(120.075311 20.37425896 -3.760630196e-19)
(115.4898523 10.09396466 5.8357812e-19)
(114.0611297 9.650615049 -1.48399614e-19)
(115.5951506 8.720824818 -1.489905454e-19)
(114.2373005 8.578144812 -1.534916158e-19)
(110.6280338 5.694702066 5.45874057e-19)
(111.4100253 5.727690712 8.031566537e-20)
(111.4213091 5.033373668 3.610936014e-20)
(110.6803303 5.11219185 7.669213159e-20)
(108.2935026 3.778082932 -5.578660179e-19)
(108.8357443 3.747586985 0)
(108.7916158 3.288869781 0)
(108.287398 3.385855625 2.665013227e-19)
(106.7088543 2.424798968 3.452108134e-20)
(106.2763882 2.440619512 -1.070988317e-19)
(106.5964578 2.087159488 -9.842758489e-20)
(106.1946495 2.131877719 7.48440601e-20)
(104.1973568 1.295617976 -5.274602249e-21)
(104.8239586 1.269023039 -2.558336684e-21)
(104.5114829 0.820866888 8.602448143e-21)
(104.0005851 0.93537804 1.240814992e-21)
(102.9174258 0.722948428 -2.01125865e-21)
(103.3260533 0.682188902 1.466381207e-20)
(103.1024031 0.4008831754 5.381287486e-21)
(102.76768 0.485834172 1.06197097e-20)
(101.5906429 0.07081760584 -3.630821053e-22)
(101.9215603 -0.1126017748 -1.116622026e-21)
(102.3821235 0.1216471941 -1.140590617e-21)
(102.3040649 0.3041100946 -1.381977945e-21)
(101.1175418 0.008974288392 1.121752509e-21)
(101.2984123 -0.1194780251 1.396289048e-21)
(100.856319 -0.007155711784 -4.503292162e-21)
(100.9276601 -0.08952794145 1.708129248e-21)
(100.7489548 -0.0322976123 -2.23837331e-21)
(100.2835045 -0.1602637149 -1.470424814e-21)
(100.3962738 -0.09151302488 8.147208106e-22)
(100.2029331 -0.3181350751 -8.54405627e-22)
(100.3418278 -0.2740202234 -6.059561162e-22)
(100.0581984 -0.4725483823 4.355954865e-22)
(100.2346033 -0.4564384625 -2.15846041e-22)
(99.80130647 -0.5798272042 4.904094244e-22)
(100.0519901 -0.6357710796 7.354250476e-22)
(99.84560791 -0.662026018 4.343385848e-22)
(99.69942535 -0.544799013 1.27920701e-21)
(99.74655341 -0.6567560451 -1.155356834e-23)
(99.63162977 -0.6297161524 -1.155521162e-23)
(99.31602934 -0.6360267527 -1.875618114e-21)
(99.43982174 -0.6859122949 0)
(99.36570439 -0.7934514743 -9.182850959e-22)
(99.20767919 -0.7384711327 -9.67070316e-22)
(98.75910701 -0.700689602 -1.073510664e-20)
(98.92619934 -0.7860713182 -1.547613967e-20)
(98.79890968 -0.9181212466 4.748351269e-21)
(98.57766004 -0.7848786099 -8.4446892e-20)
(98.58944339 -0.8722935804 -8.39308966e-20)
(97.98669884 -0.7271036588 1.078937935e-19)
(98.12175137 -0.7956725428 1.648238112e-19)
(97.99630555 -0.8768544518 5.389190449e-20)
(97.84573314 -0.8068408754 2.097060695e-19)
(96.56572148 -0.7343262173 1.647620369e-19)
(96.78603444 -0.8441224689 2.69917463e-19)
(96.5758328 -0.9669516276 -2.81840939e-20)
(96.31158824 -0.8568131338 -4.354253142e-21)
(94.12357758 -0.754757084 2.188881774e-21)
(94.48195328 -0.9263749046 0)
(94.16645721 -1.132100593 -1.678602065e-20)
(93.74753094 -0.9802566193 3.872172902e-20)
(90.77423652 -1.171963455 1.990611204e-19)
(91.29141295 -1.369028467 3.816585183e-19)
(91.00744019 -1.736659346 -2.956633075e-19)
(90.44354414 -1.615492495 2.522335327e-19)
(87.29989576 -3.115718672 2.23833332e-19)
(87.72021424 -3.048125606 2.389555739e-21)
(87.73629284 -3.359047497 2.225786514e-19)
(87.38204818 -3.506439738 -2.294341098e-19)
(134.643433 8.517484856 -6.02894816e-19)
(132.9760357 9.259544458 1.164200957e-18)
(133.5590953 7.120553594 5.871762636e-19)
(132.1673317 7.909026696 5.872659488e-19)
(120.6298611 3.851278545 -1.196700078e-18)
(119.0742482 4.367230828 -3.563751942e-19)
(119.6929087 2.591974933 1.808124186e-20)
(118.4457313 3.231295915 1.843154138e-19)
(113.2040488 2.373574665 -1.540665521e-21)
(113.9626512 2.011630265 9.064702135e-20)
(113.5471296 1.33518659 4.482787625e-20)
(112.9005439 1.746357712 -5.112055134e-20)
(109.8842469 1.440238936 -3.437818371e-19)
(110.3791968 1.17461851 3.521133084e-19)
(110.0983057 0.7354068968 0)
(109.6695216 1.027974922 -1.533486578e-19)