/*--------------------------------*- C++ -*----------------------------------*\
| =========                 |                                                 |
| \\      /  F ield         | OpenFOAM: The Open Source CFD Toolbox           |
|  \\    /   O peration     | Version:  v1912                                 |
|   \\  /    A nd           | Website:  www.openfoam.com                      |
|    \\/     M anipulation  |                                                 |
\*---------------------------------------------------------------------------*/
FoamFile
{
    version     2.0;
    format      ascii;
    class       surfaceScalarField;
    location    "0.14";
    object      meshPhi;
}
// * * * * * * * * * * * * * * * * * * * * * * * * * * * * * * * * * * * * * //

dimensions      [0 3 -1 0 0 0 0];
oriented        oriented;


internalField   nonuniform List<scalar> 
25162
(
0
0
0
0
0
0
0
0
0
0
0
0
0
0
0
0
0
0
0
0
0
0
0
0
0
0
0
0
0
0
0
0
0
0
0
0
0
0
0
0
0
0
0
0
0
0
0
0
0
0
0
0
0
0
0
0
0
0
0
0
0
0
0
0
0
0
0
0
0
0
0
0
0
0
0
0
0
0
0
0
0
0
0
0
0
0
0
0
0
0
0
0
0
0
0
0
0
0
0
0
0
0
0
0
-4.077035601e-09
6.58794149e-08
-7.377581512e-07
0
9.08091917e-09
6.27200602e-07
0
0
0
0
0
0
0
0
0
0
0
0
0
0
0
0
0
0
0
0
0
0
0
0
0
0
0
0
0
0
0
0
0
0
0
0
0
0
0
0
0
0
0
0
0
0
0
0
0
0
0
0
0
0
0
0
0
0
0
0
0
0
0
0
0
0
1.928879297e-08
-9.916017221e-07
-1.706049611e-06
6.282153151e-06
6.539025716e-06
-5.605172458e-05
-1.495505582e-05
7.933757714e-05
9.065483714e-06
-0.0001470775132
-1.62769368e-05
0.0001646273212
-3.380435391e-07
-0.0001899401331
-2.443580385e-07
0.0001877571344
-8.913929384e-06
-0.0001503751356
1.56731184e-05
0.000129564027
-4.418245994e-06
-5.788661293e-05
1.217839921e-05
3.610324649e-05
0
-1.06966232e-06
2.704664764e-07
0
0
0
0
0
0
0
0
0
0
0
0
0
0
0
0
0
0
0
0
0
0
0
0
0
0
0
0
0
0
0
0
0
0
0
0
0
0
0
0
0
0
0
0
0
0
0
0
0
0
0
9.191010549e-07
-1.927486421e-06
-4.499215669e-06
1.38463123e-05
2.977435177e-05
-0.0001215022573
-4.53186382e-05
0.0001737780776
5.7993635e-05
-0.0003476506261
-7.724662434e-05
0.000404312914
5.127304099e-05
-0.0005466162841
-6.703926161e-05
0.000580615688
8.818951343e-06
-0.0006308846804
-1.46152352e-05
0.0006289744577
-4.022299943e-05
-0.0005661081957
4.787213596e-05
0.0005271500766
-5.427573827e-05
-0.0003686697403
7.233722659e-05
0.0003072506825
-2.237653988e-05
-0.0001287634694
3.790409692e-05
8.007975951e-05
0
-1.947349457e-06
7.0749885e-07
0
0
0
0
0
0
0
0
0
0
0
0
0
0
0
0
0
0
0
0
0
0
0
0
0
0
0
0
0
0
0
0
0
0
0
0
0
0
0
0
0
0
0
0
0
-3.062967166e-07
6.516105948e-07
3.288433544e-05
-7.981321892e-05
-4.544338498e-05
0.000137358403
0.0001027924975
-0.0003664200234
-0.0001238094662
0.0004516504797
0.0001435938789
-0.0006979893006
-0.0001665507927
0.0007698219512
0.0001204033805
-0.0009348699777
-0.0001377326031
0.0009711059959
3.868843665e-05
-0.00102360583
-4.724536147e-05
0.001023004326
-6.31177474e-05
-0.0009649703153
6.517595178e-05
0.0009253364878
-0.0001275451241
-0.0007424742495
0.0001439770614
0.000662898164
-9.72697521e-05
-0.0004034204003
0.0001201914431
0.0003199592814
-2.352077682e-05
-9.687106986e-05
3.765156255e-05
4.81009341e-05
0
0
0
0
0
0
0
0
0
0
0
0
0
0
0
0
0
0
0
0
0
0
0
0
0
0
0
0
0
0
0
0
0
0
0
0
0
0
0
0
0
0
8.780784397e-06
-8.439090289e-06
-1.393771206e-05
3.645323078e-05
9.378317746e-05
-0.000219901356
-0.0001087309106
0.0003051435124
0.0001830492805
-0.0005976719416
-0.0002063979444
0.0006961045056
0.0002306422209
-0.0009355823656
-0.0002426955369
0.0009901511774
0.0001769215796
-0.001100220112
-0.00018368757
0.001116380222
6.536238723e-05
-0.001130905899
-6.707219196e-05
0.001130886106
-6.223087965e-05
-0.001116641616
5.944774953e-05
0.00109850085
-0.0001640364931
-0.0009917023209
0.000170886431
0.0009237709464
-0.0001982512193
-0.0006475176793
0.0002187585583
0.0005460990717
-9.0292008e-05
-0.0002489187258
0.0001086206638
0.0001658069256
-1.123611451e-05
-2.22934366e-06
3.963534327e-06
1.692925864e-07
0
0
0
0
0
0
0
0
0
0
0
0
0
0
0
0
0
0
0
0
0
0
0
0
0
0
0
0
0
0
0
0
0
0
0
-2.698134056e-07
5.499225719e-09
2.020654098e-07
3.021965434e-05
-3.762025006e-05
-3.595677881e-05
8.455185708e-05
0.0001425695897
-0.0003106546334
-0.0001551640728
0.0004113037902
0.0002593823178
-0.0007046281609
-0.0002704724591
0.0007917204096
0.0002777501412
-0.0009867200925
-0.0002924537037
0.001026968262
0.0001772994428
-0.001060433877
-6.55056347e-05
-9.239853057e-05
0.0005193300915
0.0005217085081
-0.0005175062659
3.740686735e-05
-3.754780098e-05
0.0005176471995
-0.0005301532746
-3.581437595e-05
0.001056415538
-0.0005309288127
2.896858737e-05
1.151233791e-05
-0.001003287864
-0.0001986265094
0.0001974606877
0.0009649177358
-0.000262222644
-0.0007560387612
0.0002698506082
0.0006631249379
-0.0001582987907
-0.0003557466239
0.0001752189093
0.0002613382838
-5.210786373e-05
-1.89237277e-05
2.483205785e-05
1.649214146e-05
0
0
0
0
0
0
0
0
0
0
0
0
0
0
0
0
0
0
0
0
0
0
0
0
0
0
0
0
0
0
0
0
0
1.131953502e-06
0
-2.430717961e-06
1.705091204e-06
2.503187421e-06
4.750571237e-05
-5.550380748e-05
-4.887798599e-05
0.0001085378663
0.0001769460219
-0.0003437488094
-0.0001796678243
0.0004368044642
0.0002950039297
-0.0007063174324
-0.0002986040396
0.0007812805321
0.0003083549628
-0.0009204128861
-0.0003109037549
0.0009313668289
9.890233418e-05
-0.0004754225798
-9.824141969e-05
0.0004747616653
-0.0004715059677
-2.467175016e-05
2.541505238e-05
0.0004707626655
-0.0009244376301
-0.0001936748591
0.0001921588498
0.000906406026
-0.0002970574269
-0.000748312576
0.0003001656371
0.0006680120506
-0.0002093768425
-0.0003894724667
0.0002142342889
0.0002975568999
-8.091171991e-05
-3.891249801e-05
4.519276124e-05
3.538806266e-05
0
0
0
0
0
0
0
0
0
0
0
0
0
0
0
0
0
0
0
0
0
0
0
0
0
0
0
0
0
0
0
0
0
3.164598158e-06
0
-3.991542586e-06
4.035107302e-06
4.374895683e-06
5.594367611e-05
-6.020652276e-05
-5.741887814e-05
0.0001108654942
0.0001898817153
-0.0003261201507
-0.0001919157007
0.0004089587044
0.0003078058923
-0.0006433008488
-0.000309494897
0.0007058218668
0.0003141170785
-0.0008108170115
-0.0003145005256
0.0008144494718
0.0001007014598
-0.0004108374733
-0.0001006864905
0.0004108225039
-0.0004132561993
-2.694633872e-05
2.715779447e-05
0.0004130447435
-0.0008177175537
-0.0001905823537
0.0001902317963
0.0008082603618
-0.0003070655679
-0.0006863042215
0.0003081116478
0.0006194648817
-0.0002334598129
-0.0003776047654
0.0002371031251
0.0002946882619
-8.765808578e-05
-5.320258529e-05
5.583053288e-05
4.257997181e-05
0
0
0
0
0
0
0
0
0
0
0
0
0
0
0
0
0
0
0
0
0
0
0
0
0
0
0
0
0
0
0
0
0
4.786373145e-06
0
-5.872438433e-06
5.202658535e-06
5.54696037e-06
6.106907586e-05
-5.806536756e-05
-6.253327191e-05
0.000103627454
0.0001967717553
-0.0002927111584
-0.0001987204126
0.0003644144385
0.0003133502555
-0.0005644937745
-0.0003149295891
0.0006169046971
0.0003151955194
-0.0007012743709
-0.0003154043822
0.0007030191687
0.0001005699333
-0.0003546102979
-0.000100431427
0.0001780143956
0.000176457396
-0.0003563640119
-2.756553311e-05
2.765004183e-05
0.0003562795032
-0.0007045210977
-0.0001907070718
0.0001911053635
0.0006948567089
-0.0003062798642
-0.0005859965033
0.000305085287
0.0005278336015
-0.0002342746226
-0.0003200861735
0.0002325403897
0.0002495386563
-7.404198888e-05
-5.404062456e-05
5.320970426e-05
3.583770309e-05
0
0
0
0
0
0
0
0
0
0
0
0
0
0
0
0
0
0
0
0
0
0
0
0
0
0
0
0
0
0
0
0
0
7.051628711e-06
0
-8.395181182e-06
6.453868924e-06
6.719352272e-06
6.707804722e-05
-5.519290756e-05
-6.866604969e-05
9.534766143e-05
0.0002046813829
-0.0002578339028
-0.0002067340029
0.0003184650303
0.0003197471637
-0.0004851994884
-0.0003214116122
0.0005279812188
0.0003160352672
-0.0005934736408
-0.000316203065
0.0005940973472
0.0001002868023
-0.0003002862016
-0.0001002234374
0.0001509500112
0.0001492728256
-0.0003008290889
-2.761514696e-05
2.763696369e-05
0.0003008072721
-0.0005917807068
-0.0001934233505
0.0001943132411
0.0005770863135
-0.0002971051288
-0.0004671612371
0.0002901671415
0.0004193303222
-0.0002142603576
-0.0002441945914
0.0002083578681
0.0001868294188
-4.914488034e-05
-4.169929744e-05
3.903766725e-05
2.116346856e-05
0
0
0
0
0
0
0
0
0
0
0
0
0
0
0
0
0
0
0
0
0
0
0
0
0
0
0
0
0
0
0
0
0
9.998742092e-06
0
-1.058982079e-05
7.480894434e-06
7.312667501e-06
7.381097706e-05
-5.073724305e-05
-7.58063239e-05
8.484063687e-05
0.0002133097034
-0.0002192790546
-0.0002158351019
0.0002686298217
0.000326756445
-0.0004023286739
-0.000328817552
0.0004359371711
0.0003166139616
-0.0004845302355
-0.000316673077
0.0004846099216
9.991500372e-05
-0.000245648701
-9.987939741e-05
0.0001236134834
0.0001219996113
-0.0002451166366
-2.739689395e-05
2.730488316e-05
0.0002452086474
-0.0004733891422
-0.0001961523371
0.0001966635649
0.0004539239352
-0.0002755526384
-0.0003540788456
0.0002738481608
0.0003071949319
-0.000181769361
-0.0001643797842
0.0001690936319
0.0001209962669
-2.580101957e-05
-2.564988394e-05
2.17509514e-05
8.476945102e-06
0
0
0
0
0
0
0
0
0
0
0
0
0
0
0
0
0
0
0
0
0
0
0
0
0
0
0
0
0
0
0
0
0
1.459964277e-05
0
-1.852171326e-05
8.719159022e-06
9.219468587e-06
8.206555613e-05
-4.485222322e-05
-8.700281867e-05
7.148082344e-05
0.0002244095797
-0.0001775533395
-0.0002286184864
0.0002158402309
0.0003357906327
-0.0003186633625
-0.0003353609997
0.0003417623141
0.0003168690051
-0.0003748117042
-0.0003168257601
0.000190829166
0.0001839392932
5.082612833e-05
-9.622083891e-05
-5.080003781e-05
9.619474839e-05
1.6727437e-05
-4.77150837e-05
-1.668440878e-05
9.503249162e-05
-4.736043614e-05
-0.0001898245379
-2.663473858e-05
6.024675543e-05
0.000373477676
-0.0001829946692
-3.427048576e-05
-0.0001958382986
-0.0003507525745
0.0001959404123
0.0003279051878
-0.00025266401
-0.0002394817195
0.0002437886425
0.0002043979912
-0.0001368960328
-9.962161276e-05
0.0001276286252
6.927928557e-05
-8.059685596e-06
-8.511815557e-06
6.612010894e-06
8.079841958e-07
0
0
0
0
0
0
0
0
0
0
0
0
0
0
0
0
0
0
0
0
0
0
0
0
0
0
0
0
0
0
0
0
0
2.125811052e-05
0
-1.770103174e-05
8.379069622e-06
6.931852687e-06
9.446198684e-05
-3.804798929e-05
-9.195335186e-05
5.965304805e-05
0.0002378511438
-0.0001399073277
-0.0002339501436
0.0001677051586
0.0003450594223
-0.0002367038202
-0.0003406320491
0.0002515234808
0.0003143358567
-0.0002648433832
-0.0003143358567
0.0001358720605
0.0001289713227
5.04797247e-05
-0.0001358720605
-9.902152076e-05
4.854179609e-05
6.875977542e-05
6.711228507e-05
3.700718474e-05
-6.87598096e-05
-3.700713348e-05
0.0001358720605
-6.711230216e-05
-0.0002648433832
-5.790877062e-05
5.840635305e-05
0.0002636700134
-0.0001911479851
-0.0002311864355
0.0001882126317
0.000212603175
-0.000212589318
-0.0001418334458
0.0002056904698
0.0001141209329
-9.242318162e-05
-4.640982048e-05
7.961211615e-05
3.051902072e-05
-7.877639486e-07
-1.229822539e-06
5.534017705e-07
0
0
0
0
0
0
0
0
0
0
0
0
0
0
0
0
0
0
0
0
0
0
0
0
0
0
0
0
0
0
0
0
0
0
1.125175879e-05
0
-4.215379808e-06
2.351100225e-06
1.235828637e-06
7.399142088e-05
-1.73774493e-05
-6.514154069e-05
2.995575222e-05
0.0002062627222
-8.15326209e-05
-0.0001923132815
0.0001002923929
0.0003088643514
-0.0001466142489
-0.0002925562934
0.000156004527
0.0003060413395
-0.0001626958653
-0.0002963686854
0.0001592254585
9.902152079e-05
-0.0001554361035
-0.0001902951408
0.0001554361035
9.127362003e-05
6.626195346e-05
-0.0001554361035
-6.626195347e-05
0.0001554361035
-6.127955368e-05
-0.0001512990792
6.238390266e-05
0.000145257464
-0.0001787439633
-0.0001137676162
0.0001728297543
0.0001004980045
-0.0001685412155
-5.950374031e-05
0.0001557655085
4.672109804e-05
-4.751316288e-05
-1.50226781e-05
3.876378361e-05
7.81935127e-06
0
0
0
0
0
0
0
0
0
0
0
0
0
0
0
0
0
0
0
0
0
0
0
0
0
0
0
0
0
0
0
0
0
0
0
0
0
1.041214346e-07
0
0
4.791959529e-09
0
3.438959971e-05
-2.308079565e-06
-2.425993453e-05
5.724241298e-06
0.0001400648617
-2.575306802e-05
-0.0001203606937
3.461173173e-05
0.0002299657332
-5.930892242e-05
-0.0002057375929
6.492018254e-05
0.0002487060583
-7.019388213e-05
-0.0002272400966
6.867000048e-05
0.0001778509673
-6.028444675e-05
-0.0001658646537
5.749222106e-05
6.125752761e-05
-4.98695604e-05
-5.536549679e-05
4.683746409e-05
-6.42005779e-05
-3.394479564e-05
6.365883264e-05
2.869307905e-05
-0.0001446796197
-1.419720473e-05
0.0001316795148
1.072170185e-05
-0.0001074936401
-5.043324181e-06
8.951299271e-05
4.106934726e-06
-1.527055934e-05
-1.336465141e-06
8.90587558e-06
4.606985171e-07
0
0
0
0
0
0
0
0
0
0
0
0
0
0
0
0
0
0
0
0
0
0
0
0
0
0
0
0
0
0
0
0
0
0
0
0
0
0
0
0
0
0
2.778259718e-06
3.384180586e-09
-4.69307967e-07
-2.239467905e-07
6.095180808e-05
1.808190629e-06
-4.306808237e-05
-1.84363857e-06
0.0001292842004
8.288088791e-07
-0.0001043213162
-8.198892263e-07
0.000153530584
4.498049686e-06
-0.0001282051861
-7.138892283e-06
0.0001148463332
1.791462722e-05
-9.585940757e-05
-2.187595975e-05
3.059290169e-05
3.262804013e-05
-2.227780181e-05
-3.537616666e-05
-5.530290418e-05
3.899462944e-05
4.982582568e-05
-3.814141034e-05
-8.451638319e-05
2.864896152e-05
6.762040539e-05
-2.367611294e-05
-3.82970094e-05
8.367759139e-06
2.44356546e-05
-4.546060473e-06
-1.194483302e-07
1.140277353e-08
0
0
0
0
0
0
0
0
0
0
0
0
0
0
0
0
0
0
0
0
0
0
0
0
0
0
0
0
0
0
0
0
0
0
0
0
0
0
0
0
0
0
0
0
0
0
0
0
5.419821828e-06
3.63714079e-07
-8.719272851e-07
-1.626257654e-06
3.943788844e-05
1.009359509e-05
-2.331334324e-05
-1.370304255e-05
5.969135e-05
2.529106102e-05
-4.130580581e-05
-2.917857264e-05
4.46911206e-05
3.965806797e-05
-3.142214472e-05
-4.233339909e-05
4.69528706e-06
4.588940622e-05
-1.861765756e-06
-4.516470914e-05
-2.736038691e-05
3.652955241e-05
1.937816344e-05
-3.17377947e-05
-2.275757439e-05
1.488849118e-05
1.213849667e-05
-9.672746725e-06
-1.123331735e-06
4.8158663e-07
3.084569028e-09
-5.028171233e-09
0
0
0
0
0
0
0
0
0
0
0
0
0
0
0
0
0
0
0
0
0
0
0
0
0
0
0
0
0
0
0
0
0
0
0
0
0
0
0
0
0
0
0
0
0
0
0
0
0
0
0
0
0
0
1.355876622e-07
0
0
-1.039702664e-07
5.449065807e-06
2.770305408e-06
-8.674271124e-07
-4.292688647e-06
5.832391426e-06
8.478484017e-06
-1.905077984e-06
-9.281832807e-06
-2.937293466e-07
8.857179528e-06
1.189967779e-07
-7.777871074e-06
-2.127105423e-06
3.091434586e-06
1.763443461e-07
-1.686045042e-06
0
0
0
0
0
0
0
0
0
0
0
0
0
0
0
0
0
0
0
0
0
0
0
0
0
0
0
0
0
0
0
0
0
0
0
0
0
0
0
0
0
0
0
0
0
0
0
0
0
0
0
0
0
0
0
0
0
0
0
0
0
0
0
0
0
0
0
0
0
0
0
0
0
0
0
0
0
0
0
0
0
0
0
0
0
0
0
0
0
0
0
0
0
0
0
0
0
0
0
0
0
0
0
0
0
0
0
0
0
0
0
0
0
0
0
0
0
0
0
0
0
0
0
0
0
0
0
0
0
0
0
0
0
0
0
0
0
0
0
0
0
0
0
0
0
0
0
0
0
0
0
0
0
0
0
0
0
0
0
0
0
0
0
0
0
0
0
0
0
0
0
0
0
0
0
0
0
0
0
0
0
0
0
0
0
0
0
0
0
0
0
0
0
0
0
0
0
0
0
0
0
0
0
0
0
0
0
0
0
0
0
0
0
0
0
0
0
0
0
0
0
0
0
0
0
0
0
0
0
0
0
0
0
0
0
0
0
0
0
0
0
0
0
0
0
0
0
0
0
0
0
0
0
0
0
0
0
0
0
0
0
0
0
0
0
0
0
0
0
0
0
0
0
0
0
0
0
0
0
0
0
0
0
0
0
0
0
0
0
0
0
0
0
0
0
0
0
0
0
0
0
0
0
0
0
0
0
0
0
0
0
0
0
0
0
0
0
0
0
0
0
0
0
0
0
0
0
0
0
0
0
0
0
0
0
0
0
0
0
0
0
0
0
0
0
0
0
0
0
0
0
0
0
0
0
0
0
0
0
0
0
0
0
0
0
0
0
0
0
0
0
0
0
0
0
0
0
0
0
0
0
0
0
0
0
0
0
0
0
0
0
0
0
0
0
0
0
0
0
0
0
0
0
0
0
0
0
0
0
0
0
0
0
0
0
0
0
0
0
0
0
0
0
0
0
0
0
0
0
0
0
0
0
0
0
0
0
0
0
0
0
0
0
0
0
0
0
0
0
0
0
0
0
0
0
0
0
0
0
0
0
0
0
0
0
0
0
0
0
0
0
0
0
0
0
0
0
0
0
0
0
0
0
0
0
0
0
0
0
0
0
0
0
0
0
0
0
0
0
0
0
0
0
0
0
0
0
0
0
0
0
0
0
0
0
0
0
0
0
0
0
0
0
0
0
0
0
0
0
0
0
0
0
0
0
0
0
0
0
0
0
0
0
0
0
0
0
0
0
0
0
0
0
0
0
0
0
0
0
0
0
0
0
0
0
0
0
0
0
0
0
0
0
0
0
0
0
0
0
0
0
0
0
0
0
0
0
0
0
0
0
0
0
0
0
0
0
0
0
0
0
0
0
0
0
0
0
0
0
0
0
0
0
0
0
0
0
0
0
0
0
0
0
0
0
0
0
0
0
0
0
0
0
0
0
0
0
0
0
0
0
0
0
0
0
0
0
0
0
0
0
0
0
0
0
0
0
0
0
0
0
0
0
0
0
0
0
0
0
0
0
0
0
0
0
0
0
0
0
0
0
0
0
0
0
0
0
0
0
0
0
0
0
0
0
0
0
0
0
0
0
0
0
0
0
0
0
0
0
0
0
0
0
0
0
0
0
0
0
0
0
0
0
0
0
0
0
0
0
0
0
0
0
0
0
0
0
0
0
0
0
0
0
0
0
0
0
0
0
0
0
0
0
0
0
0
0
0
0
0
0
0
0
0
0
0
0
0
0
0
0
0
0
0
0
0
0
0
0
0
0
0
0
0
0
0
0
0
0
0
0
0
0
0
0
0
0
0
0
0
0
0
0
0
0
0
0
0
0
0
0
0
0
0
0
0
0
0
0
0
0
0
0
0
0
0
0
0
0
0
0
0
0
0
0
0
0
0
0
0
0
0
0
0
0
0
0
0
0
0
0
0
0
0
0
0
0
0
0
0
0
0
0
0
0
0
0
0
0
0
0
0
0
0
0
0
0
0
0
0
0
0
0
0
0
0
0
0
0
0
0
0
0
0
0
0
0
0
0
0
0
0
0
0
0
0
0
0
0
0
0
0
0
0
0
0
0
0
0
0
0
0
0
0
0
0
0
0
0
0
0
0
0
0
0
0
0
0
0
0
0
0
0
0
0
0
0
0
0
0
0
0
0
0
0
0
0
0
0
0
0
0
0
0
0
0
0
0
0
0
0
0
0
0
0
0
0
0
0
0
0
0
0
0
0
0
0
0
0
0
0
0
0
0
0
0
0
0
0
0
0
0
0
0
0
0
0
0
0
0
0
0
0
0
0
0
0
0
0
0
0
0
0
0
0
0
0
0
0
0
0
0
0
0
0
0
0
0
0
0
0
0
0
0
0
0
0
0
0
0
0
0
0
0
0
0
0
0
0
0
0
0
0
0
0
0
0
0
0
0
0
0
0
0
0
0
0
0
0
0
0
0
0
0
0
0
0
0
0
0
0
0
0
0
0
0
0
0
0
0
0
0
0
0
0
0
0
0
0
0
0
0
0
0
0
0
0
0
0
0
0
0
0
0
0
0
0
0
0
0
0
0
0
0
0
0
0
0
0
0
0
0
0
0
0
0
0
0
0
0
0
0
0
0
0
0
0
0
0
0
0
0
0
0
0
0
0
0
0
0
0
0
0
0
0
0
0
0
0
0
0
0
0
0
0
0
0
0
0
0
0
0
0
0
0
0
0
0
0
0
0
0
0
0
0
0
0
0
0
0
0
0
0
0
0
0
0
0
0
0
0
0
0
0
0
0
0
0
0
0
0
0
0
0
0
0
0
0
0
0
0
0
0
0
0
0
0
0
0
0
0
0
0
0
0
0
0
0
0
0
0
0
0
0
0
0
0
0
0
0
0
0
0
0
0
0
0
0
0
0
0
0
0
0
0
0
0
0
0
0
0
0
0
0
0
0
0
0
0
0
0
0
0
0
0
0
0
0
0
0
0
0
0
0
0
0
0
0
0
0
0
0
0
0
0
0
0
0
0
0
0
0
0
0
0
0
0
0
0
0
0
0
0
0
0
0
0
0
0
0
0
0
0
0
0
0
0
0
0
0
0
0
0
0
0
0
0
0
0
0
0
0
0
0
0
0
0
0
0
0
0
0
0
0
0
0
0
0
0
0
0
0
0
0
0
0
0
0
0
0
0
0
0
0
0
0
0
0
0
0
0
0
0
0
0
0
0
0
0
-0.0004183374652
0.0004183436841
0.0001006952409
1.877026968e-05
0.0004195491426
-1.851996777e-05
-0.0002093873378
-0.0002104121067
-1.424028735e-05
-0.0004735241166
1.625843623e-05
-0.0003614531499
0.0001006789646
0.0001816257893
0.0001797183292
2.010498321e-05
0.0003637086326
-1.99657003e-05
-0.0001810334388
-0.0001828144767
1.946166823e-05
-0.0002061300994
-0.0002078174984
-0.0003070867766
0.000100360932
0.000154396402
0.0001526162448
2.001936417e-05
0.0003074045786
-2.028326522e-05
-0.0001526567769
-0.0001544839007
2.018901718e-05
-0.0001771290297
-0.0001793190163
-0.0002524056175
9.999746267e-05
0.0001270250447
0.0001252981138
2.002724249e-05
0.000251854148
-1.994152213e-05
-0.0002519398684
-0.0003008966016
2.008687697e-05
-9.802209404e-05
9.802241912e-05
5.082580325e-05
4.827205213e-05
-9.089324521e-06
9.105945476e-06
-4.828867308e-05
-4.869069394e-05
9.689208905e-05
1.679809402e-05
1.909298973e-05
0.00019676767
-1.923153385e-05
-0.0001966291259
-0.0002450174237
1.992802954e-05
-7.053507204e-05
7.053507204e-05
5.04797247e-05
7.053516707e-05
-2.141086788e-05
2.141116347e-05
-7.053546267e-05
-4.778738683e-05
-9.017021394e-06
0.0001427144564
-6.36553382e-05
1.458435696e-05
1.389887671e-05
2.885416548e-05
0.0002902929084
-0.0001424265707
-0.0001484696893
-1.029741266e-05
-1.795340121e-05
-0.0001896576246
1.892607641e-05
-0.0004823257286
0.0004822035659
9.902449682e-05
4.474591485e-05
-0.0005175803035
-4.467187723e-05
0.0004807416069
-1.483733146e-05
-0.0004801445627
-9.558767616e-06
-0.0005267515966
6.157089682e-06
-2.011487293e-06
0.0001125761734
2.083891436e-06
-0.0001126485776
0.0002403968855
8.16179021e-06
-0.0002411178289
-7.440846789e-06
0.0004193933358
-2.679053192e-05
0.0001538457389
0.0008439520038
-0.0001528345695
-0.000845164783
-0.0001514405821
-0.000929630833
0.0001533652933
-0.0007283023046
0.0007304025203
0.0003150062159
-0.0001082479214
0.0001082865462
-0.0003614917746
0.0001083816982
-0.0004108117842
-0.0001084073872
-2.340780499e-06
9.731663006e-05
2.266924324e-06
-9.724277389e-05
1.671117133e-06
0.0001040631015
-0.0001039470195
-1.787199145e-06
0.0003636508508
-2.750775135e-05
0.0001546094149
0.0007335935112
-0.0001544371549
-0.0007338138377
-0.0008181130033
0.0001541789053
-0.0006206404558
0.0006214744043
0.0003158595918
-0.0001080101281
0.0001080492356
-0.0003071258841
-0.0003546532207
-0.0001082049986
-0.0001003859914
-0.0003345510089
0.0001004338383
0.0001680779502
0.0001664252118
-3.791935084e-05
8.305060093e-05
3.779919871e-05
-0.0001664507856
8.352033676e-05
3.786285032e-05
8.906438289e-05
-0.0001779113645
-3.777111645e-05
8.875524778e-05
-1.8077544e-06
8.328381487e-05
1.821123091e-06
-8.329718357e-05
2.194602187e-06
8.9832546e-05
-8.96944448e-05
-2.332703382e-06
0.0003075042339
-2.771480224e-05
0.000155804472
0.0006198724149
-0.0001552607391
-0.0006217388631
-0.0007048578035
0.0001548038892
-0.0005116563433
0.0005118965911
0.0003164555094
-0.0001077246182
0.0001077662405
-0.0002524472397
-0.0003003164875
-0.0001079798422
-0.0001001994838
-0.0002798121875
0.0001001820202
0.000140787403
0.0001390422481
-1.874313273e-05
6.917358588e-05
1.880954049e-05
-6.923999364e-05
3.75168266e-05
7.560942948e-05
-0.0001509036823
-3.750217306e-05
7.527959929e-05
-3.992361523e-06
0.0001387681328
4.017490208e-06
-0.0001387932615
4.104120429e-06
0.0001511835045
-3.796306272e-06
-7.560266648e-05
-7.588865221e-05
-0.0004023147219
0.0003167525792
0.0002046223125
0.0001978088354
-0.0001075588757
9.982336206e-05
0.0001075449393
-0.0001978315198
-0.0002456854262
-0.000107687893
-5.08648917e-05
-0.0001117957764
0.0001117975558
5.086311227e-05
-1.992733963e-05
5.608498467e-05
1.971366537e-05
-5.587131041e-05
1.940713254e-05
6.165578805e-05
-6.180196888e-05
-1.926095171e-05
-5.590268067e-05
-8.880690268e-06
5.566448083e-05
9.118890108e-06
-4.1904051e-06
0.0001112038834
4.122392847e-06
-0.0001111358712
4.08962957e-06
0.0001232501076
-0.00012322516
-4.114577169e-06
-0.0003121824819
0.0003165378025
0.0001672660798
0.0001427144564
-0.0001067780637
7.217938431e-05
0.0001067780637
-0.0001427144564
9.468033423e-05
-0.0001908959103
-0.0001075641385
-5.083698609e-05
-8.427523787e-05
8.426641188e-05
5.084581208e-05
-1.883434685e-05
4.052015979e-05
1.931423951e-05
-4.100005245e-05
2.022338429e-05
4.740388941e-05
-4.773617948e-05
-1.989109422e-05
-8.798164553e-05
8.798164554e-05
9.902152078e-05
8.798164554e-05
-4.475931409e-05
4.475931411e-05
-8.798164554e-05
-6.875997073e-05
-2.141070673e-05
3.599246371e-05
-0.0002210334591
-3.583827724e-05
0.000110533952
0.0001103453206
-3.630103189e-05
-0.0002081593786
3.619649311e-05
0.000104538185
0.0001037257324
-0.0002402160914
3.157035453e-05
-3.114409177e-05
0.0002397898287
-0.0002233755101
0.0002235517235
3.581625035e-05
0.0001046030499
1.577154886e-06
-0.0001045090877
0.0001118185346
-0.0001119121172
-1.917904706e-06
-1.768822338e-05
0.0004422597751
1.818916831e-05
-0.0002209011809
-0.0002218595392
3.665368059e-06
-0.0001110511057
-3.259797113e-06
0.0002224640694
-1.336340847e-06
0.0001046524103
1.286980511e-06
8.943935043e-05
3.796613348e-05
-0.0001796140277
9.00713941e-05
0.0001918687803
3.782976946e-05
-0.0001918961862
-3.780236352e-05
0.0001006771487
-0.0003823903951
-0.0001006409444
0.0003823541908
3.5903247e-05
-3.574059422e-05
9.606879375e-05
9.563733375e-05
-1.833611392e-05
8.943000446e-05
1.834545989e-05
-0.0002061380003
-3.619999746e-05
0.0001032593979
0.000102777568
-0.0001937596549
3.591081326e-05
9.713993636e-05
9.661215231e-05
9.011425927e-05
2.038348665e-06
-8.995800575e-05
9.711607117e-05
-9.697994952e-05
-2.476902152e-06
-1.08063192e-05
0.0001935935025
-0.0001936249092
1.083772597e-05
1.724855073e-06
-1.771885855e-06
9.716310195e-05
-1.594778845e-06
9.019990741e-05
1.50913071e-06
-1.396626338e-06
0.000104123387
9.737506946e-05
1.666415672e-06
0.0001950593059
-1.080904039e-05
-0.0001950565847
7.600376182e-05
3.763407486e-05
-0.000152506566
7.638555596e-05
8.273697702e-05
-0.000164845631
-3.802493022e-05
8.221423338e-05
-0.000327832999
-0.000100437307
0.0001648289984
0.0001630553162
1.860325365e-05
-1.864738587e-05
8.278110924e-05
-1.794519301e-05
7.593851879e-05
1.801043605e-05
-1.829358302e-05
8.902185199e-05
8.321610476e-05
1.843774982e-05
0.0001527083803
4.053825061e-06
-7.611418841e-05
-7.654389649e-05
8.284132184e-05
-8.281246441e-05
-1.83661183e-06
-2.046579923e-05
0.00032813484
2.035523662e-05
-0.0001630238482
-0.0001650004292
2.239652173e-06
-8.217811815e-05
-2.126355707e-06
0.0001649061435
-2.198010213e-06
0.0001527054497
2.200940813e-06
-1.679136117e-06
8.991690327e-05
-8.360376578e-05
0.0001667839538
1.352415918e-06
9.908630641e-07
0.0003351594824
-2.020439336e-05
-0.0001668193784
-0.0001686015099
6.211890967e-05
1.952123805e-05
-6.223301519e-05
6.873373901e-05
-6.879360408e-05
-1.868326767e-05
-0.0002727865124
-0.0001000757661
0.0001372435766
0.0001354192181
1.847153025e-05
-1.832743705e-05
6.858964581e-05
-1.946702523e-05
6.191230186e-05
1.967363304e-05
-1.791979876e-05
7.558403523e-05
6.905552288e-05
1.858959325e-05
0.0001250517893
4.069743331e-06
-0.000125031903
0.0001371359577
-0.0001371176104
-4.010708844e-06
4.841186826e-05
2.043215939e-05
-4.862064336e-05
5.515059989e-05
-5.521907757e-05
-1.985886196e-05
-0.0001100541337
-5.086064293e-05
0.000110049885
8.871636045e-06
5.492686556e-05
-5.465160419e-05
-9.146897421e-06
1.991700119e-05
-1.974397897e-05
5.497757767e-05
-1.937563891e-05
4.799323792e-05
1.979426925e-05
-1.922844682e-05
6.141720963e-05
5.626900409e-05
1.973298177e-05
9.322178695e-06
-5.635322332e-05
-1.096620436e-05
0.000196113004
1.073889942e-05
-9.703100179e-05
-9.885469728e-05
0.000109399144
-0.0001093260909
-4.263458221e-06
-8.880389996e-06
5.492656529e-05
7.120753597e-05
-3.664537326e-05
-7.072898098e-05
1.831643043e-05
1.785038785e-05
4.002919355e-05
-4.038306227e-05
-1.848047813e-05
-8.25181831e-05
-5.082596905e-05
8.250716606e-05
1.831252448e-05
8.048655669e-05
-8.045651645e-05
-1.834256473e-05
1.577590152e-05
-1.564675778e-05
3.990004981e-05
-3.48970293e-05
7.141510751e-05
1.72852286e-05
1.740422916e-05
-1.897770595e-05
4.700595645e-05
1.609766453e-05
4.019839678e-05
8.22030458e-05
1.835716655e-05
-8.224768786e-05
-0.0008382880885
0.0008429525931
0.0003134020274
0.0001083579898
-0.0004183137568
0.00010675036
-0.0004747315911
-0.0001074413487
-0.0001002323944
-0.0004487662123
0.0004487437932
0.0001002548135
-3.780081362e-05
3.776467394e-05
-0.0002233393705
3.647176706e-05
-0.0002408456711
-3.584218741e-05
-1.896800914e-05
0.0001147597956
-7.316213731e-07
-9.506016511e-05
0.00012402423
8.998810811e-06
-0.0001257724444
-7.25059647e-06
-0.000389447615
0.0003894615391
0.0001006632246
3.785229709e-05
-0.0001937821826
3.795925885e-05
-0.0002061373721
-3.795988711e-05
-2.527381228e-05
7.343090102e-05
1.181478585e-05
-5.997187459e-05
0.0002518535504
-2.739629635e-05
0.0001587706494
0.0005037811144
-0.000157751119
-0.0005114967384
-0.0005943708659
0.0001561073444
-2.590274399e-05
5.906181658e-05
1.38343964e-05
-4.699346898e-05
-1.14809477e-05
0.0001179674989
1.154277097e-05
-5.879777586e-05
-5.923154627e-05
5.516229495e-06
6.179655502e-05
-6.177880882e-05
-5.533975693e-06
-1.700999848e-05
8.225981741e-05
1.695322688e-05
-1.267427965e-05
0.0001683674644
1.207974339e-05
-0.0001677729281
0.0001891337266
-1.121765709e-05
-9.355248318e-05
-9.532979071e-05
3.79328794e-05
-0.0002081329991
-0.0002210436815
-3.779059123e-05
-0.0004391778907
-0.0001005037524
0.0004394492487
1.263723973e-05
-0.0001061235773
-1.277894789e-05
0.0001062652854
-0.0001242290338
9.693543395e-06
-1.13483213e-05
0.0001258838117
-0.0001169224913
-1.294354779e-05
0.000116924484
1.294155517e-05
7.634310484e-06
-5.64180471e-06
0.0002384043797
-0.0001126532674
0.0002247240239
4.170784955e-06
0.0004490199921
-1.844985119e-05
-0.0002233809054
-0.0002248774589
6.233894823e-05
5.562458302e-06
-6.238517704e-05
6.319221603e-06
6.5423787e-05
-6.564340179e-05
-6.099606805e-06
-2.001536673e-05
0.0002724906614
-0.0002724952099
2.001991525e-05
2.207456636e-06
-2.183448327e-06
0.0001371119494
-2.26373984e-06
0.0001250511539
2.264375193e-06
-2.113194532e-06
0.0001510986888
0.00013878741
2.188179444e-06
0.0002797514105
-2.007098527e-05
-0.0002796957919
9.745503283e-06
5.151193148e-05
-5.175961234e-05
-9.497822422e-06
-4.408601865e-05
-1.376099123e-05
4.420179949e-05
1.36452104e-05
-1.829356336e-05
8.954527707e-05
1.826875833e-05
-4.450332587e-05
-4.501714617e-05
0.0002463177501
2.101886089e-05
-0.000246303396
-2.103321506e-05
-0.0005214186836
5.835107869e-05
-2.124619721e-05
-2.934791649e-05
0.0002557974131
0.0002578643055
-0.0002399697085
0.0002446967158
2.684334722e-05
0.0002417060437
8.565888024e-06
-0.0002421101415
0.0005134886449
2.93503529e-05
-0.0002566920141
-0.0002491304163
-1.318468248e-05
-2.38318849e-05
2.374022212e-05
-2.410357581e-05
0.0002466811038
0.0001458250376
-0.0001647930468
6.086222389e-06
0.000231586589
-5.553376519e-06
-0.0001157386577
-0.0001163807772
8.00288916e-06
2.032852785e-05
0.0001174936206
7.136909419e-06
-6.2404527e-06
0.0001231277733
0.0001176183412
5.144343579e-06
0.0002326028119
5.430406991e-06
-0.000115914811
-0.0001160321856
2.123451881e-06
0.0001005358969
-0.0001005498394
-2.109509309e-06
0.0001010491936
2.121003653e-06
-0.0001010467453
1.718450672e-06
8.65463613e-05
-8.653094254e-05
-1.733869422e-06
8.72050129e-05
1.825070475e-06
-8.731163271e-05
6.902304725e-05
-6.354403508e-06
5.792623962e-06
-6.846126771e-05
7.417568941e-05
-9.50159852e-05
-4.433516495e-06
4.039200646e-06
0.0001438838641
-0.0001438663601
-4.056704586e-06
6.584774969e-06
-5.463681866e-06
7.305459631e-05
-5.796189284e-06
6.917419473e-05
5.645041805e-06
5.888274835e-06
-1.125994291e-05
7.497342505e-05
-6.960175698e-05
7.297061099e-05
7.045065005e-06
0.0001457187617
4.037765089e-06
-7.261866481e-05
-7.309866132e-05
5.837017832e-05
1.816742569e-05
-5.850334436e-05
-1.803425965e-05
4.307604377e-05
-0.0001167601796
-4.304767506e-05
0.0001167318109
-4.302506461e-05
-0.0001117498907
0.0001117500815
4.302487375e-05
-1.140057015e-05
0.0001109991432
1.140415345e-05
-0.0001110027265
0.0001162095659
-1.141993467e-05
-5.794023139e-05
-5.833034752e-05
-7.795698728e-05
-7.861978784e-06
5.991622208e-05
1.721898003e-05
4.437023195e-05
-4.473377277e-05
-1.685543921e-05
4.274204061e-05
-8.940920336e-05
-4.275095157e-05
8.941811431e-05
-4.275855641e-05
-8.42501764e-05
4.281581279e-05
4.232830642e-05
4.186461361e-05
4.292100638e-05
-9.615057264e-05
-4.285823138e-05
9.608779764e-05
-9.110354408e-05
9.106730344e-05
4.277828125e-05
4.437140562e-05
1.761984639e-05
-4.477227198e-05
-0.0001154461699
1.176411225e-05
-4.485648647e-05
0.0001485385441
-0.0001060359488
1.278238281e-05
0.0001058908058
-3.586109313e-05
-0.000215584312
3.597098142e-05
0.0001077981634
0.0001076762604
-1.458195986e-05
1.49858412e-05
-0.0001064398302
1.468415138e-05
-0.0001135677628
-1.656255854e-05
-1.554719762e-05
2.286786856e-05
-0.0001044967882
9.717611731e-05
-0.0001064656086
-1.423992854e-05
-0.0002140423919
-3.607575134e-05
0.0001074641575
0.0001067928927
-3.525793659e-05
-0.0002347458958
0.0002349332248
3.507060759e-05
-1.446968573e-05
1.458281286e-05
-0.0001170356185
7.692446448e-06
-0.0001205655078
-1.135597242e-05
0.000113812491
1.399888441e-05
-0.000113127224
0.0001165645531