/*--------------------------------*- C++ -*----------------------------------*\
| =========                 |                                                 |
| \\      /  F ield         | OpenFOAM: The Open Source CFD Toolbox           |
|  \\    /   O peration     | Version:  v1912                                 |
|   \\  /    A nd           | Website:  www.openfoam.com                      |
|    \\/     M anipulation  |                                                 |
\*---------------------------------------------------------------------------*/
FoamFile
{
    version     2.0;
    format      ascii;
    class       volVectorField;
    location    "2.95";
    object      U;
}
// * * * * * * * * * * * * * * * * * * * * * * * * * * * * * * * * * * * * * //

dimensions      [0 1 -1 0 0 0 0];


internalField   nonuniform List<vector> 
12556
(
(99.9993165 0.001719568309 -3.985955182e-21)
(99.9989255 0.006159489425 -1.786934241e-25)
(99.99798722 0.01406179132 -3.98440597e-21)
(99.996245 0.02805591017 -3.968230372e-21)
(99.99968743 0.02306136315 3.842127664e-21)
(99.99804327 0.03952425733 0)
(99.99692793 0.06585810456 0)
(99.99651709 0.1029859455 -6.913817558e-21)
(99.99537612 0.1534202614 8.158180243e-22)
(99.99443092 0.2172334579 -5.500402432e-21)
(99.99417833 0.2890082333 6.042056677e-22)
(99.99535219 0.3562391455 0)
(99.99793407 0.4013437279 0)
(100.0011057 0.4102536713 4.191432102e-22)
(100.0038171 0.3818265454 -1.047641899e-21)
(100.0052049 0.3271908501 7.954342409e-22)
(100.005387 0.262092718 0)
(100.0050778 0.1992396201 1.429957616e-21)
(100.0048456 0.1437435402 5.89807217e-21)
(100.0026025 0.1025285553 -1.686338696e-21)
(100.0108643 0.1188751098 -1.473241402e-20)
(100.0076342 0.07411403938 0)
(100.005735 0.03989310187 -1.861953868e-21)
(100.0055674 0.01267535629 -1.312453854e-20)
(99.99374996 0.00430845489 1.594819393e-20)
(99.98963885 0.01593685924 3.988828069e-21)
(99.98078684 0.03716708656 2.790152586e-20)
(99.96552632 0.07644845944 -1.195165535e-20)
(99.96662068 0.108675052 3.8680948e-21)
(99.94219814 0.1888120076 -3.536796708e-23)
(99.90999822 0.3150413303 0)
(99.89173519 0.4332481986 -6.895210962e-21)
(99.85243268 0.6532733578 -6.474366107e-21)
(99.81668852 0.9379523523 -1.15384384e-20)
(99.79930759 1.268122668 -4.914395199e-21)
(99.82085681 1.590171206 -6.807553512e-21)
(99.89124876 1.814494227 -1.845833969e-21)
(99.98135831 1.873288987 -4.240086999e-22)
(100.0698096 1.759239312 -3.759538949e-22)
(100.1251929 1.512781896 4.091409199e-21)
(100.141526 1.210813886 -8.401514025e-21)
(100.1285268 0.9222731125 0)
(100.140141 0.7045536036 -2.524125415e-20)
(100.1017295 0.4868592435 4.888470963e-20)
(100.101843 0.3399043047 1.426656402e-20)
(100.0728664 0.2111698246 2.956439234e-20)
(100.0556257 0.1139536709 -2.965191386e-20)
(100.0491495 0.03622869149 1.498728743e-20)
(99.98392399 0.004412501571 -1.591268014e-20)
(99.97239468 0.01799656449 -3.192613481e-20)
(99.94784077 0.04623074458 -7.17690601e-20)
(99.90726722 0.09915282731 9.554436303e-20)
(99.88186617 0.1665003272 -7.898082273e-21)
(99.81111506 0.3022637165 -7.737484461e-21)
(99.71207851 0.5163291971 -1.345382867e-20)
(99.65124231 0.757699017 0)
(99.52522653 1.170815601 2.673744704e-20)
(99.40765038 1.721986634 0)
(99.3546331 2.395886773 0)
(99.44680064 3.081992622 4.499297079e-19)
(99.70847434 3.567637914 1.627561936e-20)
(100.0666268 3.697187021 2.092195636e-20)
(100.3738913 3.432071825 -3.446686574e-19)
(100.5480181 2.90563727 3.2836187e-21)
(100.5832565 2.287769515 -9.104600938e-21)
(100.5206433 1.69825645 -2.211582021e-20)
(100.4656003 1.208257947 -1.514396472e-19)
(100.3466754 0.8227265369 -3.395221934e-20)
(100.2832114 0.5164983181 -1.470009084e-20)
(100.2047109 0.3194223843 3.34427647e-20)
(100.1570003 0.1722647102 -3.76670274e-21)
(100.1362216 0.05448420656 0)
(99.97540616 0.0004146832758 -8.005733843e-21)
(99.95335814 0.007100744763 5.608659755e-20)
(99.9066631 0.03258222676 -1.604293904e-20)
(99.83007386 0.08589200905 0)
(99.76675813 0.1785216072 0)
(99.6251271 0.350750206 -6.2280645e-20)
(99.42610776 0.6308602263 -1.248127753e-19)
(99.25745157 0.9829294874 2.957268247e-20)
(98.97046305 1.575971764 -5.478502844e-20)
(98.68419374 2.436858389 -1.008677958e-18)
(98.53439159 3.579007381 0)
(98.72615333 4.833272601 -2.1238955e-18)
(99.40773144 5.745559018 3.823217141e-19)
(100.3292305 5.878816826 -1.574567844e-19)
(101.022798 5.284296352 -2.052311893e-20)
(101.3264447 4.3247719 -4.334770272e-19)
(101.3311728 3.290357881 0)
(101.1703097 2.378177054 0)
(100.9721459 1.606714657 5.566533041e-20)
(100.7180005 1.06830615 -4.332814266e-20)
(100.5379538 0.6260264761 -3.774346907e-20)
(100.3901564 0.3815881221 1.915759094e-20)
(100.2983185 0.2038804436 -3.850158829e-21)
(100.2563391 0.06399207525 0)
(99.97786411 -0.008707722457 0)
(99.94355646 -0.02004890921 0)
(99.87167712 -0.01070197674 8.056950005e-21)
(99.75227343 0.02968507649 1.221109233e-20)
(99.64023311 0.1321337624 2.022450641e-20)
(99.40813045 0.3111136879 0)
(99.08111396 0.6090646926 0)
(98.75491974 1.040732463 0)
(98.22066606 1.795644703 0)
(97.62443249 2.998208381 -8.973222714e-19)
(97.16787392 4.806358393 -9.627831421e-19)
(97.45571738 7.033907628 -1.352654769e-18)
(99.00230726 8.739787799 0)
(101.1022234 8.712736218 -1.911366541e-19)
(102.3806694 7.344955352 1.902151574e-20)
(102.7162653 5.638422286 -1.452688598e-18)
(102.5024054 4.111449496 -4.406217629e-19)
(102.0720632 2.848015633 -6.036762277e-22)
(101.6364398 1.829578802 -9.342197974e-20)
(101.1908347 1.182628498 7.79905291e-21)
(100.8352461 0.6383690895 0)
(100.6012768 0.3838655167 3.942547874e-21)
(100.4551922 0.2010021302 -2.960285421e-21)
(100.3871391 0.06230903038 -9.824660822e-22)
(100.002373 -0.02331651262 0)
(99.95551223 -0.06432155671 0)
(99.85862511 -0.08549034786 -1.616558111e-20)
(99.69560352 -0.0761248725 3.282560361e-20)
(99.52220566 0.01757771573 0)
(99.19632165 0.1683088817 0)
(98.72284838 0.4396457134 2.571619095e-20)
(98.20405994 0.8896566766 -3.689450824e-21)
(97.35068291 1.697539049 -5.057865806e-19)
(96.18342866 3.147780568 -1.026203523e-18)
(94.94468001 5.685640228 -2.595917408e-19)
(94.76133517 9.665448776 0)
(98.08701357 13.48249494 -5.8872244e-20)
(103.0485988 12.73354668 0)
(105.0299102 9.41343769 0)
(104.9367181 6.570316245 0)
(104.1376317 4.512622745 0)
(103.222989 2.999649634 6.610919177e-20)
(102.3961805 1.798192327 2.411531473e-20)
(101.7106586 1.124619476 -1.623396623e-20)
(101.1399303 0.5388144217 0)
(100.8062441 0.3157850683 0)
(100.6003803 0.1580780151 -1.000488139e-21)
(100.5039481 0.04794795975 -3.00943667e-21)
(100.0596753 -0.04308861276 3.938818157e-21)
(100.0014252 -0.124614314 -3.966888708e-21)
(99.8823919 -0.1899470259 8.089337175e-21)
(99.68044191 -0.2289981213 -2.963852101e-20)
(99.44586518 -0.1662665074 8.093649276e-23)
(99.03162056 -0.07917111643 2.525062247e-20)
(98.42318872 0.1130022596 -1.140073192e-19)
(97.70666274 0.4989988074 1.263528127e-19)
(96.49108812 1.197829326 2.697371396e-19)
(94.5770554 2.543471769 3.210902696e-19)
(91.81046592 5.088683094 -7.564125856e-19)
(88.37660151 10.96595763 0)
(94.06724475 22.4706545 -7.139790864e-19)
(108.6107336 18.57135813 0)
(109.6623041 10.75767654 0)
(107.991123 6.557650107 -5.950954589e-19)
(106.1245478 4.174854158 -7.450581528e-19)
(104.4962468 2.651281467 6.362050359e-19)
(103.1495599 1.444798771 0)
(102.2081404 0.8492739225 8.99213934e-21)
(101.4021419 0.3255576189 2.645427862e-21)
(100.9682492 0.1707762026 -3.126163906e-21)
(100.7057137 0.07406423028 -3.560460338e-21)
(100.5817565 0.0208413137 8.552162016e-21)
(100.1590764 -0.06704751325 -3.939233812e-21)
(100.0919301 -0.1978725271 3.968315383e-21)
(99.95621631 -0.3181210372 -5.030809062e-21)
(99.72513746 -0.4194890143 -3.376545252e-21)
(99.4362939 -0.4078447784 1.437840198e-20)
(98.95421154 -0.4137164922 8.54060397e-21)
(98.24457787 -0.351577641 6.717404647e-20)
(97.38763796 -0.1178176967 0)
(95.88339515 0.2838550367 -1.147967766e-18)
(93.42038619 1.022874159 1.550416648e-19)
(89.45474611 2.07928634 9.019294848e-19)
(82.11692565 3.661121991 2.289135673e-20)
(122.8796347 21.6661309 -1.432659036e-18)
(116.0949463 9.013352145 -9.04033529e-20)
(111.3197041 4.830325245 0)
(108.0472375 2.856546201 9.688008799e-19)
(105.6576551 1.693180684 7.856774887e-19)
(103.7572148 0.750794275 -4.819558377e-21)
(102.5850834 0.3668633811 2.037092592e-20)
(101.5647116 0.004332511833 -3.242161937e-21)
(101.0498575 -0.04121553357 2.649922186e-21)
(100.7430144 -0.04557247435 -5.167078535e-22)
(100.5960702 -0.01763157847 -8.063491393e-21)
(100.3075037 -0.09367121141 -1.895729829e-21)
(100.2349595 -0.279344806 -1.42402385e-21)
(100.0899593 -0.461099385 -4.879199748e-22)
(99.84276491 -0.633048295 1.474444313e-21)
(99.513362 -0.6869706983 -2.7460526e-23)
(98.99296745 -0.8034406349 0)
(98.2333191 -0.897811338 2.203649879e-21)
(97.31325395 -0.8657398104 4.249554825e-21)
(95.69631801 -0.842251624 -1.466290377e-19)
(93.18571033 -0.8310863421 -3.890786579e-19)
(89.65853757 -1.26788091 -1.781263429e-18)
(85.54010839 -3.121177091 0)
(135.4479268 6.881877024 -2.413047549e-18)
(120.6393868 2.749368432 1.504121343e-18)
(113.566652 1.266874975 0)
(109.2961393 0.6016450753 1.908762151e-18)
(106.3817906 0.2253822643 7.574402531e-19)
(104.0726757 -0.2019398454 -4.963417748e-21)
(102.7496904 -0.2749621158 1.152930532e-20)
(101.5844725 -0.3921929474 1.121031578e-21)
(101.0213574 -0.2999885982 0)
(100.688579 -0.1898917749 4.077804778e-21)
(100.5268621 -0.0642141024 4.026526499e-21)
(100.5085804 -0.1211023394 3.735045334e-21)
(100.4345911 -0.3632784804 5.72218657e-23)
(100.2884876 -0.608219278 0)
(100.0396011 -0.8533535935 1.91798837e-22)
(99.68605622 -0.9804160896 -1.970054876e-21)
(99.15955171 -1.210891074 2.091014048e-21)
(98.40494949 -1.464064365 0)
(97.49126045 -1.632430381 5.421706655e-19)
(95.92546894 -1.94433813 -1.48589679e-18)
(93.64600006 -2.428672517 3.374998125e-19)
(90.84387025 -3.366866404 8.364881197e-19)
(88.2535823 -4.855733476 -1.307840181e-20)
(133.0421025 -8.778793707 4.328952214e-18)
(120.4741853 -4.714201958 1.471826116e-18)
(113.6798668 -2.998768736 5.880137053e-19)
(109.3843515 -2.042623556 9.847023005e-19)
(106.4326272 -1.479666589 7.696695125e-19)
(103.9968455 -1.271673851 4.218978311e-20)
(102.6490798 -0.9929077257 0)
(101.4355884 -0.818034399 -1.101047721e-21)
(100.8655896 -0.5777968469 -4.536649892e-21)
(100.5284867 -0.3444926839 5.057702267e-22)
(100.3623365 -0.114274065 0)
(100.7622371 -0.1475257292 -1.839155369e-21)
(100.6905781 -0.4439437266 1.854399217e-21)
(100.5508871 -0.7488553282 1.80794083e-21)
(100.3153549 -1.064526846 -1.687809223e-21)
(99.95225979 -1.265027681 -1.941371768e-21)
(99.44922001 -1.600001909 0)
(98.74471851 -1.996856661 -6.820617062e-20)
(97.88501365 -2.33896441 3.064449595e-20)
(96.44762351 -2.904223183 -1.403016753e-19)
(94.43744718 -3.677714459 0)
(92.06848204 -4.754591112 -1.494989173e-18)
(89.91465487 -5.923550387 -3.609232039e-19)
(124.589735 -17.44165624 0)
(116.85488 -10.23080702 8.517168902e-20)
(111.8917349 -6.572751361 -1.026915273e-18)
(108.3981193 -4.42594243 -4.333867303e-19)
(105.8029612 -3.089163901 -1.453661455e-18)
(103.5224431 -2.283818887 0)
(102.2831326 -1.684744131 -2.751618513e-20)
(101.1159244 -1.224731215 -1.375274884e-20)
(100.5806792 -0.8441349503 1.030996294e-21)
(100.2605847 -0.4936704583 -3.269812688e-21)
(100.1003569 -0.1627967408 4.788266725e-22)
(101.0647999 -0.1713004698 6.753400118e-21)
(100.9989061 -0.516105428 0)
(100.8714979 -0.8720500145 -1.804409809e-21)
(100.659792 -1.257320415 0)
(100.297609 -1.521317778 0)
(99.84629628 -1.941612073 -5.768413973e-21)
(99.22353786 -2.456180946 -1.947136086e-21)
(98.44869429 -2.937052253 -6.265240321e-20)
(97.17638662 -3.685217744 -5.391800144e-19)
(95.41154744 -4.653378863 1.187052863e-18)
(93.27555751 -5.859606185 -1.640013358e-20)
(91.18333436 -7.019738247 -6.775298198e-19)
(115.5864521 -20.55010997 0)
(111.9244464 -13.01485321 9.930765072e-19)
(109.0352203 -8.791638064 2.829475169e-20)
(106.6351427 -6.111428141 1.522322282e-18)
(104.6423191 -4.329403587 1.644802715e-19)
(102.7282665 -3.099320896 2.198885628e-21)
(101.6937942 -2.266434185 -3.341926985e-20)
(100.6488101 -1.574392641 8.135787562e-21)
(100.1806862 -1.072200993 0)
(99.89414642 -0.6236852844 3.767401213e-21)
(99.74836339 -0.205361856 0)
(101.409887 -0.1918596708 6.744770088e-21)
(101.3519121 -0.5789881224 1.064664353e-19)
(101.23973 -0.9779897355 -2.144266883e-19)
(101.054801 -1.417554187 -4.575880042e-22)
(100.7277722 -1.730343343 -1.694602383e-21)
(100.3317406 -2.216045785 0)
(99.8098996 -2.816988776 -1.075188364e-19)
(99.13474719 -3.397260717 0)
(98.05290653 -4.270220909 2.428690821e-19)
(96.54660019 -5.389623973 -5.673391551e-19)
(94.65705122 -6.819320698 -7.178335011e-19)
(92.6585495 -8.244593314 6.242661403e-22)
(103.4665491 -29.3565216 -1.440260478e-19)
(107.344572 -19.02318624 -1.707208706e-19)
(107.1736412 -13.40468584 -3.393260384e-19)
(105.9688109 -9.610542738 3.119840115e-19)
(104.5800526 -6.970923193 9.058368403e-19)
(103.2128671 -5.083706852 6.233182679e-19)
(101.7447211 -3.641736906 -6.670384332e-20)
(100.9509942 -2.683983579 0)
(100.0790808 -1.841170726 0)
(99.69142282 -1.244900486 1.178378569e-20)
(99.44735714 -0.7254888623 2.173078364e-21)
(99.3216046 -0.2389145581 -7.035342465e-21)
(101.7887087 -0.207247651 0)
(101.740098 -0.6266579064 0)
(101.6464341 -1.05745484 0)
(101.4909494 -1.530394803 0)
(101.1984581 -1.892558842 0)
(100.8618983 -2.429424603 0)
(100.4393816 -3.08903595 0)
(99.88304321 -3.723642542 0)
(99.00236591 -4.663107803 0)
(97.79255949 -5.872312165 0)
(96.31663772 -7.519847414 -2.403034632e-21)
(94.78419013 -9.820554935 0)
(96.86337036 -18.98081267 1.830527327e-21)
(102.4140619 -15.60351129 0)
(103.5170101 -12.1900925 -1.474658189e-20)
(103.3003711 -9.35860727 -9.045682132e-19)
(102.6172674 -7.128791672 0)
(101.7353007 -5.372651186 -1.166194497e-19)
(100.6986295 -3.916919383 -9.202975564e-20)
(100.1311753 -2.930043031 -3.462901479e-20)
(99.45054133 -2.00428986 -1.917067082e-20)
(99.14208669 -1.360136254 1.886660615e-20)
(98.94338454 -0.7954309346 0)
(98.84001368 -0.2619502689 1.883956321e-20)
(102.1921485 -0.2173500481 0)
(102.1538391 -0.6581788172 0)
(102.0811188 -1.109761154 0)
(101.957374 -1.598060311 0)
(101.7007348 -1.989833015 0)
(101.4357743 -2.551357277 0)
(101.114314 -3.219216367 -9.980193212e-20)
(100.6850001 -3.878002968 0)
(100.0281632 -4.798830798 1.848334725e-19)
(99.13372925 -5.963498819 -6.980898511e-19)
(98.19654786 -7.499056889 -7.39919645e-19)
(97.45766294 -9.664416115 8.558556596e-20)
(98.44747729 -12.35494306 -2.631124117e-19)
(100.4453948 -12.00583564 1.61958754e-19)
(101.227746 -10.36317056 0)
(101.2810646 -8.511662754 2.335740525e-19)
(100.9420497 -6.801950766 3.590322345e-19)
(100.3894731 -5.326457983 -2.432633598e-20)
(99.67789034 -3.972780613 0)
(99.31072849 -3.030037676 0)
(98.79695144 -2.074360688 -3.553213626e-20)
(98.56077529 -1.419483636 1.753313863e-20)
(98.40623015 -0.8330240951 7.345700262e-22)
(98.32473357 -0.2743684425 -1.296682167e-20)
(102.6103046 -0.222316431 0)
(102.5819066 -0.6735255997 0)
(102.5293827 -1.134870184 0)
(102.4361497 -1.625016484 0)
(102.2143898 -2.031945486 0)
(102.0145104 -2.594500784 0)
(101.7810368 -3.241459733 4.190513655e-23)
(101.4607805 -3.893039573 -6.417891477e-19)
(100.9905651 -4.733495481 -6.238382746e-19)
(100.3397457 -5.74352869 0)
(99.71596582 -6.942797774 -1.383359599e-19)
(96.8067968 -7.926770336 0)
(99.34339704 -9.505206784 1.156464487e-19)
(99.791194 -9.470675077 0)
(99.94613761 -8.660418772 0)
(99.86757596 -7.49033463 -2.506039461e-19)
(99.61587513 -6.230686967 -4.580424128e-21)
(99.2407453 -5.049638752 0)
(98.75167509 -3.865026562 -2.96727164e-20)
(98.53321175 -3.010257632 4.535784876e-20)
(98.14849673 -2.069575097 1.102422514e-20)
(97.97399019 -1.430051353 1.881305472e-20)
(97.85783529 -0.841680809 -2.136510962e-20)
(97.79542169 -0.2772634739 0)
(103.033669 -0.2227203817 0)
(103.0139847 -0.6744451892 0)
(102.9787611 -1.135573266 0)
(102.9119346 -1.616625872 0)
(102.7220731 -2.026284885 0)
(102.5769049 -2.571378001 0)
(102.4120637 -3.177408465 0)
(102.1688988 -3.792626174 0)
(101.8202575 -4.531648615 -6.625098324e-20)
(101.3060971 -5.347115735 -6.413774754e-20)
(100.7771702 -6.215234605 -6.209078516e-20)
(95.83072571 -6.444214337 -1.268396623e-21)
(99.85821207 -7.715993349 -3.438325798e-20)
(99.53120066 -7.726503518 9.591157003e-21)
(99.20076705 -7.265193715 5.791089362e-20)
(98.90217802 -6.496046974 -8.876230958e-20)
(98.59910992 -5.581571572 0)
(98.29865211 -4.659117603 0)
(97.94771018 -3.659498523 0)
(97.81678787 -2.899959895 0)
(97.52872716 -2.007834913 3.798771117e-20)
(97.40247187 -1.401190706 -3.553120078e-20)
(97.31629421 -0.8263989852 -2.405170959e-21)
(97.26891872 -0.272638416 2.413155483e-21)
(103.4537973 -0.2193106956 0)
(103.4413344 -0.6633724599 0)
(103.4198638 -1.115949656 0)
(103.3741236 -1.579112962 0)
(103.2116437 -1.980876993 0)
(103.1080218 -2.496318889 0)
(102.9907833 -3.051358447 0)
(102.7907939 -3.610925351 0)
(102.4980114 -4.240959259 4.164816807e-20)
(102.0250548 -4.88684312 -1.496598153e-19)
(101.5120942 -5.523858278 8.792238469e-20)
(94.94571618 -5.360989328 2.817073272e-20)
(100.1172391 -6.464866875 3.944211261e-20)
(99.36165128 -6.459052581 -1.411298786e-21)
(98.70896738 -6.153969456 -2.397848589e-20)
(98.21596109 -5.616553407 1.453876193e-22)
(97.83242197 -4.943132797 0)
(97.5417268 -4.22622295 0)
(97.25605105 -3.391226573 0)
(97.17189237 -2.727923972 0)
(96.950551 -1.904281969 0)
(96.85889619 -1.34104347 0)
(96.79499908 -0.7936664005 0)
(96.7586893 -0.2629169701 0)
(103.8639037 -0.2128616625 0)
(103.8570811 -0.6428245108 0)
(103.845757 -1.080364888 0)
(103.815491 -1.519633626 0)
(103.6744689 -1.905560278 0)
(103.599212 -2.38464465 0)
(103.509526 -2.885310581 0)
(103.3293138 -3.383411597 0)
(103.0438147 -3.91199156 0)
(102.5597908 -4.424315235 1.176590432e-21)
(101.9987337 -4.9011991 -3.130588786e-20)
(94.98297505 -4.681844684 0)
(100.2252287 -5.520478486 2.488820431e-20)
(99.21509935 -5.488721772 3.089538203e-21)
(98.35676982 -5.260726172 0)
(97.71394704 -4.86597069 0)
(97.24893114 -4.35793006 0)
(96.93358644 -3.791835443 0)
(96.66969333 -3.095813838 0)
(96.60272875 -2.523909482 0)
(96.42106291 -1.776360713 0)
(96.35141997 -1.261057269 0)
(96.30195513 -0.748363786 0)
(96.27405891 -0.2485350479 0)
(104.2588599 -0.2041537572 0)
(104.2560809 -0.6153112326 0)
(104.2514039 -1.0331613 0)
(104.231228 -1.445155298 0)
(104.1057637 -1.81006541 0)
(104.0470691 -2.24991535 0)
(103.9690144 -2.698978049 0)
(103.7904293 -3.135548986 0)
(103.488715 -3.57759789 0)
(102.9738631 -3.987248224 0)
(102.3028021 -4.345031772 0)
(95.59618362 -4.173026632 0)
(100.2764631 -4.767251605 0)
(99.10085397 -4.720127129 0)
(98.09409908 -4.537053336 0)
(97.33500728 -4.233522066 0)
(96.79416895 -3.83776001 0)
(96.43966951 -3.382416776 0)
(96.17343241 -2.799245031 0)
(96.10441294 -2.308087109 0)
(95.9423463 -1.637067936 0)
(95.88452537 -1.170182627 0)
(95.84304999 -0.6960459267 0)
(95.82031146 -0.2316387852 0)
(104.6350789 -0.1939334691 0)
(104.6348435 -0.5832118065 0)
(104.6336204 -0.9783576015 0)
(104.6187286 -1.361778006 0)
(104.5036271 -1.702756107 0)
(104.4517313 -2.1034457 0)
(104.3724345 -2.505764614 0)
(104.1842712 -2.884912079 0)
(103.853344 -3.25569089 0)
(103.3012618 -3.587515844 0)
(102.4770237 -3.855447023 0)
(96.32155463 -3.739128221 0)
(100.2908469 -4.153484921 -5.010326148e-35)
(98.99801929 -4.097954149 0)
(97.88549082 -3.943412797 0)
(97.03763561 -3.699842964 0)
(96.43110489 -3.38234612 0)
(96.03442884 -3.010430715 0)
(95.75120182 -2.517368863 0)
(95.66910077 -2.094180872 0)
(95.51286769 -1.495498305 0)
(95.45911006 -1.075215274 0)
(95.42066411 -0.640803418 0)
(95.40067209 -0.2136946493 0)
(104.9903319 -0.1828556075 0)
(104.9913384 -0.5486134508 0)
(104.9908723 -0.919460072 0)
(104.977201 -1.27437652 0)
(104.8683804 -1.590322184 0)
(104.8156353 -1.953856797 0)
(104.7257919 -2.313921737 0)
(104.5211342 -2.642499845 0)
(104.1549242 -2.955502713 0)
(103.5645942 -3.228367926 0)
(102.5595857 -3.428455193 0)
(97.05055375 -3.366079265 0)
(100.2792737 -3.646366147 0)
(98.9022421 -3.585140598 0)
(97.71244832 -3.449983558 0)
(96.796377 -3.247744724 0)
(96.13459293 -2.986362532 0)
(95.69763758 -2.677183614 0)
(95.38976149 -2.256993124 0)
(95.28856413 -1.890440462 0)
(95.1291066 -1.357879638 0)
(95.07394592 -0.9810351636 0)
(95.03499769 -0.58560722 0)
(95.01592004 -0.1956930087 0)
(105.3235767 -0.1714537405 0)
(105.3247568 -0.5132069901 0)
(105.3229327 -0.8593318531 0)
(105.3072517 -1.186720663 0)
(105.2014557 -1.477816734 0)
(105.1422828 -1.807127867 0)
(105.0355802 -2.128978683 0)
(104.8104936 -2.414707762 0)
(104.4072602 -2.681161585 0)
(103.7797769 -2.909064131 0)
(102.5762375 -3.056940159 0)
(97.72232276 -3.040118501 0)
(100.2511169 -3.221620961 -6.666935445e-35)
(98.81180818 -3.156800556 0)
(97.56420769 -3.035734442 0)
(96.59516816 -2.86323077 0)
(95.88738832 -2.643232279 0)
(95.41359546 -2.381955966 0)
(95.07851432 -2.020802298 0)
(94.95505505 -1.701503619 0)
(94.78672999 -1.228193575 0)
(94.72658238 -0.8908917902 0)
(94.68478372 -0.532475841 0)
(94.66530702 -0.1783012964 0)
(105.6347348 -0.160143339 0)
(105.6352409 -0.478281478 0)
(105.6304923 -0.8001517918 0)
(105.6103948 -1.101605677 0)
(105.505065 -1.368859443 0)
(105.4356158 -1.667224212 0)
(105.3082644 -1.954423914 0)
(105.0604237 -2.204890264 0)
(104.6211293 -2.433827251 0)
(103.9577414 -2.626972723 0)
(102.5459879 -2.734151474 0)
(98.30670215 -2.751718357 0)
(100.2120592 -2.862637343 0)
(98.72583141 -2.795649559 0)
(97.43414193 -2.685399823 0)
(96.42350139 -2.535123611 0)
(95.67752872 -2.3464759 0)
(95.17078928 -2.122434261 0)
(94.80840868 -1.809416148 0)
(94.66167042 -1.529598509 0)
(94.48125032 -1.10872572 0)
(94.41393303 -0.8067985322 0)
(94.36782118 -0.4826970922 0)
(94.34704574 -0.1619495386 0)
(105.9244262 -0.1492375479 0)
(105.9236042 -0.4447814208 0)
(105.9148199 -0.7434952542 0)
(105.8886098 -1.021006 0)
(105.7817923 -1.26591858 0)
(105.6995078 -1.536537887 0)
(105.5497293 -1.793336713 0)
(105.2778079 -2.014263483 0)
(104.8048412 -2.213081608 0)
(104.1060223 -2.378803536 0)
(102.4838335 -2.454120596 0)
(98.79382242 -2.495720997 0)
(100.1658083 -2.557441445 2.291264093e-35)
(98.64378709 -2.48930127 0)
(97.31797695 -2.387708542 0)
(96.27431124 -2.254597923 0)
(95.49659203 -2.090275878 0)
(94.96073961 -1.895676988 0)
(94.57218435 -1.622182681 0)
(94.40243322 -1.375421545 0)
(94.20831318 -1.0005736 0)
(94.13264015 -0.7298854699 0)
(94.08139445 -0.437025875 0)
(94.05873605 -0.1468953673 0)
(106.1937551 -0.1389639008 0)
(106.1911158 -0.413374258 0)
(106.1775425 -0.6904527447 0)
(106.1440862 -0.9462384076 0)
(106.0343336 -1.170564228 0)
(105.9375956 -1.416573087 0)
(105.764545 -1.647125577 0)
(105.4684986 -1.843116821 0)
(104.9648027 -2.01772182 0)
(104.2302416 -2.16145007 0)
(102.4011156 -2.211780043 0)
(99.18684363 -2.269096962 0)
(100.1148566 -2.297092034 0)
(98.56529494 -2.228543544 0)
(97.21279336 -2.134093949 0)
(96.14265977 -2.014595797 0)
(95.33846748 -1.869537322 0)
(94.77703825 -1.698564478 0)
(94.36398848 -1.457761459 0)
(94.17220986 -1.238733774 0)
(93.96383406 -0.9040498919 0)
(93.87930239 -0.6606635373 0)
(93.82255542 -0.3958341617 0)
(93.79766426 -0.1332719661 0)
(106.4441686 -0.1294788235 0)
(106.4393595 -0.3845067453 0)
(106.4205195 -0.6417401249 0)
(106.3791079 -0.8781179079 0)
(106.2653316 -1.083745744 0)
(106.15321 -1.308130838 0)
(105.9567458 -1.516188821 0)
(105.6372957 -1.691108625 0)
(105.1058497 -1.846196429 0)
(104.334805 -1.972025935 0)
(102.3058423 -2.002733542 0)
(99.4958486 -2.069490596 0)
(100.0609055 -2.074783055 0)
(98.49005596 -2.006401419 0)
(97.1165194 -1.917973651 0)
(96.02500028 -1.809490384 0)
(95.19863402 -1.679932037 0)
(94.61477539 -1.528132891 0)
(94.17911252 -1.314535821 0)
(93.9666448 -1.118796968 0)
(93.74405292 -0.8189825867 0)
(93.65060368 -0.5992276162 0)
(93.5882893 -0.359228251 0)
(93.56098151 -0.1211250881 0)
(106.6773579 -0.1208822499 0)
(106.670133 -0.3584541108 0)
(106.6457533 -0.5977879231 0)
(106.5959868 -0.817087034 0)
(106.4773766 -1.005930709 0)
(106.3494153 -1.211483621 0)
(106.1298563 -1.400357682 0)
(105.7881868 -1.557520592 0)
(105.2316424 -1.696818794 0)
(104.4231754 -1.807923268 0)
(102.2039108 -1.823304796 0)
(99.73412895 -1.894994951 0)
(100.0051418 -1.885234899 0)
(98.41779973 -1.817447692 0)
(97.02759811 -1.734164791 0)
(95.91866937 -1.634720942 0)
(95.07362378 -1.517775507 0)
(94.47007162 -1.381656752 0)
(94.01366034 -1.190787961 0)
(93.78196712 -1.014594019 0)
(93.54553683 -0.744911141 0)
(93.44338018 -0.5454084374 0)
(93.37561591 -0.3271427402 0)
(93.34581769 -0.1104431612 0)
(106.8951184 -0.1132334828 0)
(106.8853135 -0.3353689877 0)
(106.8552678 -0.5588259328 0)
(106.7969644 -0.7633489259 0)
(106.67291 -0.9372881039 0)
(106.528979 -1.126603224 0)
(106.2868399 -1.299062975 0)
(105.9244804 -1.441500562 0)
(105.3450036 -1.567991292 0)
(104.4981607 -1.666948171 0)
(102.099534 -1.670375403 0)
(99.91530409 -1.744027614 0)
(99.94838749 -1.724344919 0)
(98.34827542 -1.657439797 0)
(96.94482201 -1.578575404 0)
(95.82161503 -1.486607321 0)
(94.96072539 -1.379987321 0)
(94.33982151 -1.256732883 0)
(93.86439951 -1.084870258 0)
(93.61493085 -0.9250267905 0)
(93.3651977 -0.6812480153 0)
(93.25468951 -0.4988933643 0)
(93.18169334 -0.2994160174 0)
(93.149401 -0.1011819753 0)
(107.0993903 -0.1065610131 0)
(107.0868919 -0.3153145371 0)
(107.051146 -0.5249405227 0)
(106.9842729 -0.7169239498 0)
(106.8542335 -0.8777918192 0)
(106.6944335 -1.053261153 0)
(106.4303852 -1.211438747 0)
(106.0488695 -1.342151696 0)
(105.4481915 -1.458202852 0)
(104.5620731 -1.547100949 0)
(101.9958163 -1.541295844 0)
(100.05194 -1.615011234 0)
(99.89122365 -1.588839206 0)
(98.28122314 -1.522990617 0)
(96.86719818 -1.447914067 0)
(95.73218497 -1.362140893 0)
(94.85773798 -1.263983955 0)
(94.22144439 -1.151253982 0)
(93.72860048 -0.99527086 0)
(93.46270049 -0.8490192261 0)
(93.20018883 -0.6273493342 0)
(93.08175169 -0.459300215 0)
(93.00378137 -0.2758354604 0)
(92.96902603 -0.09327859794 0)
(107.2918519 -0.1008813691 0)
(107.2766022 -0.2983106151 0)
(107.2351868 -0.4961273036 0)
(107.1598138 -0.6778105249 0)
(107.0234758 -0.8272797462 0)
(106.8480691 -0.9910434919 0)
(106.5630801 -1.137060175 0)
(106.1635704 -1.25847148 0)
(105.5430374 -1.366066375 0)
(104.6167722 -1.446634633 0)
(101.8951124 -1.433854392 0)
(100.1548374 -1.506524996 0)
(99.83405516 -1.476131282 -3.783493681e-36)
(98.21637271 -1.411393201 0)
(96.79388573 -1.339535688 0)
(95.64901876 -1.258877462 0)
(94.76285009 -1.167642737 0)
(94.11272214 -1.063583119 0)
(93.60390885 -0.9207398763 0)
(93.32276736 -0.7855612941 0)
(93.04809708 -0.5826389809 0)
(92.92216145 -0.4262305125 0)
(92.83948497 -0.2561825148 0)
(92.80232943 -0.08666927975 0)
(107.4752068 -0.09617883445 0)
(107.4571031 -0.2843132017 0)
(107.410016 -0.4723142125 0)
(107.326214 -0.6457173284 0)
(107.1826696 -0.785548959 0)
(106.9919416 -0.9395075343 0)
(106.6873427 -1.076013038 0)
(106.2704774 -1.189451725 0)
(105.6311103 -1.290391161 0)
(104.6638504 -1.364172572 0)
(101.7991613 -1.346304434 0)
(100.2324405 -1.417397919 0)
(99.77710783 -1.384158036 0)
(98.15344513 -1.320489712 0)
(96.72415615 -1.251327076 0)
(95.57097181 -1.174842155 0)
(94.67457449 -1.089209224 0)
(94.01208022 -0.9924007593 0)
(93.48807509 -0.8602933463 0)
(93.19288729 -0.7338024785 0)
(92.90608405 -0.5464232292 0)
(92.77305595 -0.3993034581 0)
(92.68588436 -0.24022116 0)
(92.64634143 -0.08127531216 0)
(107.6482734 -0.09251000125 0)
(107.627425 -0.2734061978 0)
(107.5747848 -0.4534873001 0)
(107.4827744 -0.6211825696 0)
(107.3336804 -0.7522585461 0)
(107.1279236 -0.8983097141 0)
(106.8046262 -1.028183582 0)
(106.3714999 -1.134290014 0)
(105.7138331 -1.230150243 0)
(104.7046644 -1.298467716 0)
(101.7091687 -1.277150798 0)
(100.2909702 -1.346365716 0)
(99.72050908 -1.311211504 0)
(98.09215674 -1.248552173 0)
(96.65734693 -1.181600457 0)
(95.49702331 -1.108437676 0)
(94.5915656 -1.027192462 0)
(93.91793242 -0.9358467966 0)
(93.37929623 -0.8126144119 0)
(93.07091966 -0.6926953743 0)
(92.77395454 -0.5187296944 0)
(92.63425786 -0.3781912986 0)
(92.54284477 -0.2278389982 0)
(92.50108175 -0.07708527829 0)
(107.8243059 -0.08968505109 0)
(107.8001601 -0.2652665925 0)
(107.7416087 -0.4394195157 0)
(107.6401616 -0.6012126748 0)
(107.4791487 -0.7274335716 0)
(107.2576676 -0.8675713941 0)
(106.9163287 -0.9924767761 0)
(106.4680582 -1.092448279 0)
(105.7924016 -1.184462213 0)
(104.740414 -1.248488422 0)
(101.6259131 -1.225059251 0)
(100.3350654 -1.292380146 0)
(99.66439071 -1.25597203 0)
(98.03224662 -1.194251239 0)
(96.5928561 -1.129054107 0)
(95.42625158 -1.058431293 0)
(94.51256403 -0.9804792701 0)
(93.82836452 -0.8930688407 0)
(93.27619475 -0.7767710877 0)
(92.95517666 -0.6624654922 0)
(92.64288709 -0.4968967209 0)
(92.49592941 -0.3625113847 0)
(92.40015328 -0.2186386819 0)
(92.35577422 -0.07389714929 0)
(107.9610744 -0.08832233667 0)
(107.9349388 -0.2609184007 0)
(107.8719031 -0.4313863487 0)
(107.7650948 -0.5933475647 0)
(107.6173614 -0.7102977255 0)
(107.3824073 -0.8465584873 0)
(107.0237965 -0.9683555603 0)
(106.5613376 -1.063268197 0)
(105.8678553 -1.152514148 0)
(104.7723166 -1.213396077 0)
(101.5500149 -1.189036084 0)
(100.3681761 -1.254731527 0)
(99.60884703 -1.217504292 0)
(97.97344418 -1.156602009 0)
(96.53010934 -1.092707372 0)
(95.35781004 -1.023894692 0)
(94.43647769 -0.9482529678 0)
(93.74226411 -0.8635512204 0)
(93.17729973 -0.7523461702 0)
(92.84439723 -0.6420940096 0)
(92.53862781 -0.4865928648 0)
(92.38742222 -0.3530660781 0)
(92.28838151 -0.2133885094 0)
(92.24252113 -0.07221155873 0)
(108.2256792 -0.08662811122 0)
(108.1949189 -0.2570969028 0)
(108.1228589 -0.424830375 0)
(107.9984774 -0.5799212188 0)
(107.7469023 -0.7021966779 0)
(107.4975279 -0.8357610741 0)
(107.1236914 -0.9558009458 0)
(106.6522202 -1.04630199 0)
(105.9410164 -1.133486453 0)
(104.8016613 -1.192387954 0)
(101.4822383 -1.168422517 0)
(100.3928209 -1.23316221 0)
(99.55398557 -1.195209949 0)
(97.91552143 -1.134933339 0)
(96.46860323 -1.07186738 0)
(95.29096073 -1.004165037 0)