/*--------------------------------*- C++ -*----------------------------------*\
| =========                 |                                                 |
| \\      /  F ield         | OpenFOAM: The Open Source CFD Toolbox           |
|  \\    /   O peration     | Version:  v1912                                 |
|   \\  /    A nd           | Website:  www.openfoam.com                      |
|    \\/     M anipulation  |                                                 |
\*---------------------------------------------------------------------------*/
FoamFile
{
    version     2.0;
    format      ascii;
    class       volScalarField;
    location    "1100";
    object      k;
}
// * * * * * * * * * * * * * * * * * * * * * * * * * * * * * * * * * * * * * //

dimensions      [0 2 -2 0 0 0 0];


internalField   nonuniform List<scalar> 
12556
(
36.829
36.8288
36.8289
36.8308
36.9166
36.9183
36.9196
36.9223
36.9273
36.9363
36.9494
36.9642
36.9749
36.9759
36.967
36.9534
36.9405
36.9309
36.9244
36.9208
36.833
36.8298
36.8291
36.8287
36.6491
36.6493
36.6497
36.6537
36.7326
36.7401
36.7473
36.7947
36.8093
36.8345
36.8712
36.9127
36.9434
36.9483
36.9259
36.8886
36.8513
36.8223
36.7634
36.7487
36.66
36.6526
36.6506
36.6496
36.4704
36.4708
36.4717
36.4776
36.5523
36.5656
36.5815
36.6335
36.6689
36.728
36.8118
36.8989
36.9549
36.9637
36.9245
36.8492
36.7659
36.6989
36.617
36.5855
36.4924
36.4795
36.4751
36.4733
36.2934
36.2939
36.2955
36.3038
36.3749
36.3955
36.4239
36.4905
36.5645
36.687
36.8337
36.9653
37.0476
37.0562
36.994
36.8824
36.7467
36.617
36.4966
36.437
36.3321
36.3108
36.3028
36.2996
36.1181
36.1188
36.1215
36.1328
36.203
36.233
36.28
36.3712
36.5144
36.7182
36.946
37.1667
37.3072
37.3044
37.1833
36.9993
36.7967
36.6037
36.4138
36.3078
36.1801
36.1466
36.133
36.1277
35.9447
35.9457
35.9498
35.9649
36.0365
36.0795
36.1542
36.2883
36.5179
36.8148
37.1957
37.6472
37.9779
37.8966
37.5877
37.2459
36.9264
36.6461
36.3774
36.2029
36.0374
35.9868
35.9651
35.9568
35.7736
35.7753
35.7815
35.8012
35.8753
35.9352
36.0474
36.2413
36.5581
36.9901
37.6419
38.7869
39.5428
39.3627
38.3655
37.6705
37.1493
36.7405
36.3842
36.1246
35.9048
35.8314
35.799
35.7866
35.6058
35.6085
35.6175
35.6431
35.7217
35.8023
35.9594
36.2187
36.6234
37.213
38.222
40.4652
42.0973
39.6578
38.2877
37.4639
36.8849
36.4153
36.071
35.7828
35.6815
35.6358
35.6183
35.4424
35.4464
35.4588
35.4914
35.5764
35.6809
35.8868
36.2085
36.6998
37.4278
38.6872
41.9011
46.2731
41.2062
39.0279
37.8423
37.0662
36.463
36.0371
35.6722
35.539
35.4778
35.4542
35.2844
35.29
35.3065
35.347
35.44
35.5705
35.8257
36.2038
36.7759
37.6119
39.0194
42.2742
49.0649
42.5657
39.7564
38.2336
37.2622
36.5203
36.0162
35.5734
35.4061
35.328
35.2976
35.1326
35.1401
35.161
35.2103
35.3124
35.4703
35.7728
36.2026
36.8506
37.7801
39.3192
42.0615
50.4443
43.5845
40.3836
38.5934
37.4504
36.5783
36.0031
35.4855
35.2844
35.1889
35.1511
34.9873
34.9967
35.0223
35.0808
35.1934
35.3789
35.7258
36.2058
36.927
37.9526
39.6163
41.5804
50.9147
44.2672
40.8674
38.8919
37.6127
36.6288
35.9916
35.4064
35.1735
35.0614
35.0162
34.8481
34.8601
34.8912
34.9596
35.0816
35.2945
35.6828
36.2126
37.0071
38.1404
39.914
40.9393
42.2761
50.4776
44.6709
41.2005
39.1132
37.7362
36.6654
35.9753
35.3325
35.0718
34.9445
34.8922
34.7146
34.7287
34.7648
34.8422
34.9794
35.2223
35.6521
36.2381
37.1156
38.381
40.2547
39.2379
48.9322
50.4172
44.8407
41.3894
39.2544
37.8153
36.6835
35.9484
35.2599
34.976
34.8355
34.7769
34.5853
34.6016
34.6424
34.7282
34.877
35.1433
35.6071
36.238
37.1902
38.5627
40.4277
32.9844
49.7665
49.8443
44.7598
41.4418
39.317
37.85
36.6788
35.9061
35.184
34.8822
34.7308
34.667
34.4588
34.4771
34.5223
34.6157
34.7755
35.0619
35.554
36.223
37.241
38.6937
40.2156
28.3426
48.1631
48.8961
44.4955
41.3907
39.3088
37.8372
36.6397
35.8462
35.1017
34.7875
34.6269
34.5591
34.334
34.354
34.403
34.503
34.6728
34.9761
35.4904
36.1886
37.2501
38.7145
39.6625
24.597
46.5976
47.9092
44.0708
41.2201
39.2302
37.7733
36.5666
35.7659
35.0106
34.6885
34.5211
34.4502
34.2096
34.2311
34.2834
34.389
34.5674
34.8843
35.4152
36.1337
37.2174
38.6223
38.89
21.8452
45.1461
46.9813
43.6055
40.9717
39.0789
37.659
36.4637
35.666
34.9085
34.5828
34.4115
34.3381
34.0848
34.1075
34.1626
34.2728
34.4586
34.786
35.3289
36.0602
37.149
38.4495
37.9765
19.8593
43.8095
46.1192
43.1447
40.6936
38.8891
37.5125
36.3391
35.5506
34.7969
34.4704
34.2964
34.2216
33.9591
33.9828
34.0402
34.154
34.3459
34.6816
35.2327
35.9709
37.0518
38.2183
36.9983
18.4189
42.5762
45.3133
42.7034
40.4083
38.6808
37.3468
36.1987
35.4227
34.6767
34.3513
34.1759
34.1002
33.8321
33.8566
33.9159
34.0328
34.2296
34.5715
35.1281
35.8689
36.9313
37.9435
36.0106
17.3597
41.4335
44.5564
42.2843
40.1258
38.4652
37.1702
36.0473
35.2852
34.5494
34.2262
34.0502
33.974
33.704
33.7291
33.7899
33.9093
34.11
34.4567
35.0168
35.7569
36.7918
37.6339
35.0408
16.5672
40.3699
43.8423
41.8839
39.8509
38.2483
36.988
35.8887
35.1408
34.4163
34.096
33.9199
33.8435
33.5747
33.6004
33.6625
33.7839
33.9877
34.3381
34.9002
35.6369
36.6367
37.2958
34.1063
15.9632
39.3758
43.1657
41.4978
39.5849
38.0336
36.8038
35.7257
34.9916
34.2788
33.9616
33.7857
33.7092
33.4446
33.4706
33.5338
33.6571
33.8633
34.2167
34.7796
35.5105
36.4683
36.9368
33.2175
15.4942
38.4431
42.5214
41.1235
39.3271
37.8228
36.6198
35.5605
34.8394
34.1382
33.8241
33.6486
33.572
33.3137
33.3402
33.4043
33.5293
33.7376
34.0932
34.6562
35.3791
36.2878
36.5647
32.3798
15.1233
37.5652
41.9056
40.7594
39.0761
37.6167
36.4374
35.3947
34.6856
33.9954
33.6842
33.5091
33.4324
33.1825
33.2093
33.2743
33.4009
33.6109
33.9684
34.5308
35.2435
36.0963
36.1855
31.5946
14.825
36.7366
41.3149
40.4046
38.8307
37.4151
36.2576
35.2294
34.5311
33.8512
33.5427
33.3679
33.2911
33.0511
33.0783
33.1441
33.2723
33.4837
33.8429
34.4041
35.1043
35.8951
35.803
30.8611
14.5815
35.9528
40.7464
40.058
38.5902
37.2179
36.0806
35.0653
34.3767
33.7062
33.4002
33.2257
33.1487
32.9198
32.9473
33.014
33.1437
33.3564
33.717
34.2764
34.9617
35.6858
35.4202
30.177
14.3803
35.21
40.1981
39.7188
38.3539
37.0246
35.9066
34.9027
34.2228
33.561
33.2572
33.0828
33.0057
32.7888
32.8166
32.8841
33.0154
33.2293
33.5912
34.1479
34.8159
35.4701
35.0392
29.5392
14.2127
34.505
39.6681
39.3864
38.1212
36.8349
35.7354
34.742
34.0699
33.4159
33.114
32.9397
32.8623
32.6582
32.6864
32.7547
32.8875
33.1025
33.4655
34.0188
34.6671
35.2496
34.6614
28.9439
14.0722
33.8352
39.1552
39.0602
37.8919
36.6482
35.5671
34.5833
33.9182
33.2712
32.971
32.7967
32.719
32.5282
32.5568
32.626
32.7604
32.9764
33.3402
33.8893
34.5156
35.0255
34.288
28.3874
13.9546
33.1984
38.658
38.7396
37.6655
36.4644
35.4014
34.4267
33.7678
33.1272
32.8284
32.6541
32.576
32.399
32.428
32.498
32.6339
32.8509
33.2154
33.7593
34.3616
34.7989
33.9197
27.8657
13.8567
32.5926
38.1758
38.4243
37.4419
36.2832
35.2383
34.2721
33.6189
32.984
32.6865
32.512
32.4336
32.2706
32.3
32.3709
32.5084
32.7263
33.0913
33.6289
34.2055
34.5705
33.5572
27.3754
13.7762
32.0163
37.7078
38.114
37.2206
36.1042
35.0775
34.1197
33.4716
32.8418
32.5453
32.3706
32.2918
32.143
32.1728
32.2447
32.3839
32.6027
32.9679
33.4981
34.0476
34.341
33.2007
26.9129
13.7115
31.468
37.2535
37.8086
37.0018
35.9273
34.9189
33.9693
33.3258
32.7007
32.405
32.23
32.1507
32.0175
32.0477
32.1205
32.2611
32.48
32.8452
33.3671
33.8882
34.111
32.8505
26.475
13.6616
30.9467
36.8124
37.5079
36.785
35.7524
34.7624
33.821
33.1817
32.5614
32.2668
32.0914
32.0117
31.8986
31.9292
32.003
32.145
32.3597
32.7243
33.2366
33.7276
33.881
32.5065
26.0587
13.6258
30.4514
36.3843
37.2118
36.5705
35.5794
34.608
33.6759
33.0406
32.431
32.137
31.9612
31.881
41.7863
46.643
42.4681
42.2762
49.9639
47.1686
42.107
51.4219
50.2317
41.6518
51.9176
51.5198
40.9878
40.5168
41.9098
51.9572
51.9398
39.7221
44.9264
40.7025
48.6267
52.1616
51.8988
40.2008
39.4708
41.9329
39.3193
50.9615
44.2727
45.8054
41.6103
40.1773
38.9421
41.6443
41.1439
53.9941
55.5738
48.8004
43.3114
42.0741
39.2448
41.6798
41.6703
42.2388
43.5111
44.4711
51.952
52.1229
50.3316
44.5456
43.6644
39.5419
41.4821
41.6634
41.9034
40.1009
41.9619
52.3589
51.8312
39.8402
41.1434
41.4477
41.3457
35.6292
37.8603
40.9864
53.4872
53.0264
40.1832
40.4574
41.0873
40.5691
31.8409
33.1851
36.0779
45.3946
45.366
45.6925
46.8309
42.5773
45.4057
55.5424
51.4198
44.9029
50.0888
54.5583
44.591
45.3392
42.2333
45.8312
44.6242
46.7814
45.9767
52.2077
53.8377
48.605
54.3778
53.2856
54.6813
54.4661
48.4228
42.147
43.3512
42.2145
42.9969
41.3025
44.5414
43.11
51.7689
51.9867
51.0394
53.3555
53.339
53.2336
53.3676
50.8739
37.9823
39.9843
41.845
39.093
36.7547
41.1852
39.2189
52.955
52.4397
33.2864
35.492
41.305
42.8828
34.15
32.444
36.6345
34.2811
43.8135
53.6546
53.5459
40.5694
40.5715
31.7859
40.5142
42.7251
32.2778
63.1808
32.368
32.2329
42.3661
38.5881
41.0408
39.914
41.163
44.526
42.1902
59.0187
48.9953
42.1849
45.4344
45.8914
46.2757
50.8948
45.3494
44.7828
49.2433
45.5485
45.2151
45.0239
53.9868
53.7611
45.8658
44.7636
41.3501
51.0347
44.4814
51.0399
43.7287
49.3721
44.2903
44.9401
42.8611
51.8005
53.4873
53.6156
53.3454
53.4643
51.7436
39.5985
48.1365
41.0066
40.8783
40.557
42.1987
43.4904
41.1428
40.9572
59.9473
48.2457
58.5319
47.3746
57.2187
47.2465
55.1742
55.2711
51.8763
51.8906
42.2407
45.2821
52.1319
42.928
42.8676
46.5426
43.1252
52.0614
36.8652
40.7546
40.392
46.9479
45.8938
47.6124
32.4672
38.4759
37.9606
39.1385
38.6492
32.5611
54.4255
51.4908
46.3826
51.662
53.1187
48.4255
51.367
46.5737
43.9202
48.8136
43.7973
52.9007
49.6142
44.3432
52.0159
54.458
54.3479
54.0876
45.3024
42.5118
45.214
46.5014
45.3155
48.0079
42.7902
44.9667
46.3814
52.9411
53.0574
53.8244
52.5611
52.0793
53.0251
52.6948
53.7468
55.0108
50.9572
50.0541
51.8904
51.2179
54.996
42.2157
42.1041
43.9275
43.8363
52.2295
46.7589
52.2008
38.1705
37.9918
40.2289
40.0991
42.9925
44.6119
52.6681
42.6496
42.1151
34.571
39.7384
39.2935
40.2673
39.8769
34.698
39.6978
33.4748
33.3744
35.7876
35.6627
50.0168
39.9968
48.3219
47.2972
37.794
36.9171
33.0205
35.7746
39.4464
42.9061
31.9346
56.29
43.7602
54.0518
31.8992
41.3276
46.8113
40.6837
56.083
40.8705
41.9822
40.4126
39.3561
40.3272
38.2633
32.0988
40.3328
50.133
51.4748
52.0514
52.6353
42.5479
44.9411
49.5975
48.6511
40.1417
54.0603
54.036
45.405
42.5122
41.9757
43.9577
46.951
42.5355
42.6359
54.521
57.0908
56.4245
55.535
51.8519
46.7498
46.826
49.604
48.9396
51.9428
40.968
42.3057
42.0539
42.6198
42.3867
41.1213
41.1993
40.87
36.9937
32.0566
35.1495
34.778
58.1367
44.0624
45.0051
55.229
57.8039
57.3001
52.3953
48.0982
46.676
49.7078
48.5347
52.7751
52.4961
50.5895
49.8834
53.4549
42.6805
42.9026
42.6936
38.2286
38.6438
41.6493
46.8111
46.656
52.0777
53.3332
53.5274
53.4942
53.0445
53.3163
53.1127
53.4732
53.3666
53.0326
39.0032
41.6016
41.3036
41.9672
41.6963
39.1459
38.7163
34.802
35.0837
33.6712
33.7801
37.1598
40.7945
37.5059
38.0875
35.1852
35.5097
39.5967
52.7403
44.8734
47.1275
52.0271
40.9148
33.8421
32.7599
36.274
33.4635
33.6287
33.0982
34.94
47.9595
38.0348
36.0622
35.0244
34.6584
34.2853
31.6771
40.2123
38.6171
43.7539
32.3875
66.2606
40.3666
39.2601
43.9049
32.1567
32.1325
55.988
55.2001
54.6126
46.9594
46.9011
40.469
40.659
49.7092
49.6842
49.2519
46.9444
55.7811
47.4392
57.1043
47.9755
44.691
42.4585
43.5909
46.1586
47.9956
47.7343
43.8115
39.8707
48.5534
52.4755
43.7097
47.2419
54.2585
40.6022
42.7489
39.1745
40.1148
52.4743
60.4767
55.0643
52.4502
57.5382
55.7594
51.4795
48.4351
53.9635
55.1409
54.7689
54.7163
55.4883
56.1789
55.3895
47.5697
46.8665
51.8482
48.0434
48.4809
46.6624
47.8264
48.5327
51.9186
48.6911
47.8405
42.9687
43.3644
42.6203
48.0804
47.4063
44.6574
46.4697
45.9848
47.1378
46.6355
44.1603
43.9381
40.9524
40.5292
35.7392
35.269
32.1396
32.8204
36.2536
35.8751
53.3163
52.8612
52.5
49.1041
49.2963
48.3455
48.9652
52.7548
49.9301
49.0823
48.7614
49.2862
49.147
50.3853
51.9862
47.2373
48.1033
54.2315
54.4022
57.8337
57.6448
55.0318
58.5521
58.8887
58.6387
58.4184
57.9824
59.0019
58.6114
53.0912
57.3886
57.9123
41.4641
45.2789
44.3377
46.0473
45.5053
41.7227
43.3387
42.8377
44.0812
43.5099
46.406
48.0167
47.54
48.6218
48.1719
46.7934
43.6856
46.7202
46.2167
47.378
46.8862
43.991
51.5241
50.8271
52.6017
53.3614
52.4841
51.7355
38.1979
37.7768
38.8537
38.3454
37.0981
36.7178
37.6391
37.2301
42.0214
41.5269
42.6751
42.1855
40.5056
39.1134
41.3604
40.7946
45.4196
45.3499
45.8642
45.529
47.1059
45.5267
46.3431
45.3568
45.3675
34.4151
34.7112
38.5896
34.0932
33.8461
34.3911
34.1712
33.7753
37.3395
33.8189
34.2824
36.154
37.1288
40.6435
35.8153
35.1769
36.5924
36.1237
34.7332
34.4722
35.0884
34.8226
39.7221
35.6243
35.9997
47.9618
42.1914
47.8096
45.8675
47.6499
42.1114
52.5766
40.4658
52.2065
49.6778
33.7506
32.9187
33.235
33.4044
36.1529
35.1869
33.0906
33.1877
49.695
31.6862
34.1344
33.2142
61.3837
63.5844
32.4838
62.043
55.6523
40.9613
32.0889
56.5641
47.0483
62.4364
48.4584
32.1461
41.6121
39.7254
38.5848
49.6024
49.1904
50.9498
45.8178
45.4953
48.9725
40.0352
42.8885
40.7473
53.6361
53.8413
51.9752
44.2353
43.4996
47.0167
54.1665
44.37
44.4512
40.6129
41.0379
43.1217
49.6224
53.8237
55.723
43.9543
43.351
43.2041
43.5064
43.394
44.0899
42.2213
41.3188
42.9881
47.4178
48.303
53.2321
36.7416
36.3761
32.9113
56.2278
57.0954
52.6954
43.1491
42.968
42.8528
42.6603
39.9341
40.4458
40.6952
41.6923
43.4451
33.7633
37.2642
36.8654
46.9009
45.7256
42.1175
32.5212
32.4895
32.5302
44.9353
49.97
48.4038
39.8586
43.2127
42.501
32.3044
32.2981
32.5797
32.5588
32.1985
58.3607
46.8374
43.695
44.6806
49.8728
40.9058
40.821
45.9025
50.5644
46.172
44.6226
47.0518
43.9896
41.9523
41.0499
54.0046
54.2232
54.8439
51.4993
53.4052
42.0304
42.4107
45.7813
59.0943
57.2433
56.4176
60.8813
60.2087
42.4215
44.4181
43.7737
46.785
46.6757
44.4447
48.7655
48.2697
42.6204
46.1543
43.737
43.9553
46.1076
42.0705
42.8078
54.1297
54.9572
51.9435
51.9483
51.2493
51.0807
48.8327
49.318
49.018
50.9004
50.7087
51.0595
45.9802
46.9431
51.6307
53.1411
56.3205
54.9478
55.4825
55.8933
54.4799
40.9022
41.8588
41.6183
44.5169
44.2688
42.2405
39.8773
39.6639
41.3571
41.0896
45.6781
47.1274
46.8559
48.742
48.4738
47.5962
43.078
45.0198
44.7666
46.5858
46.3183
44.6286
39.3549
39.7863
42.5504
41.7629
38.7846
39.2122
42.5926
43.0425
44.1975
38.3166
38.1423
39.4633
39.263
37.1654
37.973
37.8088
43.547
41.9279
42.4399
47.0859
47.1659
44.2618
44.6299
46.8829
47.1878
47.3429
52.1039
46.6712
46.9817
37.7812
37.4007
34.0038
35.0374
38.2258
37.8962
32.592
32.6602
33.5691
33.2588
32.4632
32.5256
50.2981
32.1472
31.9533
32.1123
103.504
33.6765
40.4388
54.0115
50.8913
32.4967
32.5077
31.9781
57.0876
58.3748
58.2257
51.8022
31.8835
32.4757
32.4837
43.5184
38.9847
39.0789
49.0025
49.6902
45.3689
44.4875
41.5303
55.1904
55.7207
57.2154
43.2377
47.9657
46.6004
48.4026
48.3794
44.0208
43.6177
44.1994
52.1798
53.8285
54.0566
53.3222
53.5885
56.8761
56.3172
56.5044
55.9316
56.126
56.6394
49.4197
48.9097
49.1156
48.6492
48.7437
49.2043
57.635
56.9644
57.0144
56.6849
56.8459
57.483
50.3068
49.8106
50.0568
49.34
49.572
50.1182
52.835
53.0589
52.378
52.5811
34.8922
36.275
36.1641
33.7083
34.17
34.0703
34.4022
34.2783
33.7448
51.2798
51.294
48.9724
50.6746
32.9262
32.9272
32.9343
32.9292
32.9723
32.6301
32.4736
32.4896
33.5226
33.7942
33.7053
33.9764
33.8847
33.5787
32.9557
32.9412
33.0102
32.9943
33.3021
50.6485
50.4817
46.2517
51.1237
32.9605
32.148
41.5338
31.7008
32.2056
32.1326
32.327
66.494
65.9172
64.4312
65.3506
61.5875
32.5521
32.5763
32.2281
32.1629
57.8053
58.9589
57.6303
56.7831
55.7152
53.1074
58.2021
56.8485
47.0338
46.9727
49.8626
45.8167
47.3338
50.1176
48.6416
54.3772
49.7844
51.6594
56.7377
57.3585
53.4186
55.9784
58.376
47.4893
48.3382
47.9502
50.2207
53.3751
53.6052
51.9482
44.8135
50.9633
48.9181
53.6366
52.9825
46.0255
48.002
49.5403
54.7628
50.7579
45.4351
46.6198
59.0753
57.9402
59.6004
56.8736
58.5178
59.4408
59.8557
59.4773
54.8821
54.6372
54.8645
54.2601
54.416
54.6962
55.9153
55.5186
55.729
55.0859
55.3041
55.6605
47.3072
48.5268
48.618
48.2066
48.3713
47.0327
47.9286
47.8133
47.5096
48.7584
49.0494
48.3538
48.6908
48.6431
48.6935
48.7232
48.1037
46.3603
45.3157
42.6568
47.1707
47.3851
47.2245
43.8479
46.8351
46.8196
43.5002
43.5975
45.3389
53.7491
52.3982
50.0249
49.6536
49.1883
50.7396
50.5069
50.2895
56.5755
56.5029
53.8685
57.7818
58.0687
54.4709
56.2601
56.5078
57.7347
56.916
56.8749
56.9761
56.9437
57.6614
58.6666
58.7468
58.3297
59.9269
59.9321
59.6471
59.8242
58.2156
59.0797
59.9415
60.2437
59.1158
43.3756
42.8044
41.2132
41.9805
44.0177
43.7406
40.335
40.1014
40.8296
40.578
47.6654
47.3963
46.037
47.1912
48.2057
47.9359
45.5367
45.2774
43.3781
44.302
46.0542
45.7948
51.2974
50.8247
51.0911
50.3064
50.5618
51.0236
52.229
51.8814
52.1042
51.3623
51.6306
52.0018
38.0548
36.7729
36.9124
36.4989
36.6359
37.9152
38.6639
37.3642
37.5247
37.0565
37.2068
38.4992
36.9688
35.7242
35.8421
35.4975
35.6101
36.8424
37.5019
36.2261
36.3621
35.9648
36.093
37.365
38.6807
38.496
41.8569
40.348
40.5237
40.0006
40.1737
41.6921
39.0642
38.87
37.3501
37.228
40.0644
38.5551
39.0038
37.6832
37.8393
39.5127
41.1901
39.6555
39.8283
39.2779
39.4778
41.0082
37.65
37.4967
46.3426
46.8158
46.9345
45.0663
45.6427
45.7638
47.5738
47.4628
47.7613
47.6933
46.0431
45.331
46.1716
45.6749
47.2098
46.7977
45.3127
34.5206
35.811
35.6592
36.0526
35.9369
34.6176
34.01
33.9259
34.3145
34.2442
33.749
33.9025
33.8764
34.81
34.5649
35.4517
35.1435
34.0924
35.369
35.0725
35.0084
35.2677
36.4628
35.2757
35.3857
35.0723
35.1705
36.3182
34.6443
34.557
35.0002
34.9117
47.737
43.241
43.8604
42.218
42.6907
47.1907
46.8149
47.355
44.5947
45.6239
47.5496
52.2898
46.1021
47.3569
43.8492
44.96
51.6206
32.8721
32.833
32.9202
32.9029
32.3839
32.4096
33.1126
32.7164
32.7316
32.7914
32.7511
33.2886
33.4526
33.374
33.6185
33.5342
33.3459
33.1201
33.1615
33.0906
33.2992
33.2286
33.1481
50.3397
32.0561
31.961
31.7715
59.7613
77.7838
79.0207
71.7899
73.9857
61.6015
32.7747
59.6828
51.6364
53.2617
32.0289
32.5133
32.5286
56.9897
59.5328
59.9652
54.9931
57.2733
62.355
59.901
50.0587
57.5862
55.3971
32.7745
32.5273
31.9287
36.6724
36.6926
36.8037
36.7013
36.7356
36.8252
36.7498
36.8005
36.8585
36.8192
36.8771
36.8997
36.8947
36.937
36.9358
36.946
36.9567
36.9499
36.9544
36.9315
36.9354
36.9188
36.8702
36.9011
36.8525
36.7989
36.8625
36.7826
36.7391
36.8305
36.5242
36.5674
36.6582
36.5862
36.6594
36.7108
36.6894
36.7885
36.7894
36.8213
36.9129
36.8793
36.9394
37.0007
36.945
37.0135
37.0267
36.9663
37.0226
36.9868
36.9384
36.968
36.8956
36.8699
36.8675
36.776
36.7856
36.7444
36.657
36.7137
36.3982
36.4841
36.5421
36.5216
36.6564
36.6519
36.7045
36.8556
36.7973
36.907
37.0543
36.9357
37.098
37.1983
37.0335
37.2182
37.231
37.0612
37.2205
37.1528
37.0151
37.1207
37.0047
36.9135
36.9605
36.823
36.7819
36.7773
36.6443
36.6463
36.3055
36.4533
36.4707
36.513
36.7096
36.6648
36.7829
37.0283
36.8877
37.1174
37.3963
37.1156
37.487
37.7036
37.2843
37.743
37.736
37.3185
37.6973
37.5268
37.2212
37.4594
37.2424
37.0496
37.1693
36.9545
36.8471
36.8857
36.6914
36.6509
36.2501
36.465
36.4535
36.5451
36.8284
36.7334
36.94
37.3452
37.092
37.5107
38.1399
37.5324
38.3998
39.166
37.9277
39.2405
39.0514
37.9523
38.8695
38.2968
37.6727
38.1253
37.6771
37.3302
37.5454
37.191
37.0031
37.0847
36.7978
36.7122
36.2228
36.4991
36.4717
36.6055
36.9954
36.8669
37.1559
37.7881
37.4481
38.0782
39.6902
38.429
39.1982
39.9058
38.9447
40.7103
40.6813
39.5772
40.0212
39.5786
39.0926
39.2928
38.3538
37.8238
38.1171
37.5383
37.2677
37.3773
36.9633
36.8338
36.2104
36.547
36.5101
36.6805
37.1726
37.0405
37.3771
38.1999
37.9012
38.3564
38.792
38.6212
40.7167
41.3909
41.0665
43.7293
42.1024
41.042
40.8229
39.2136
38.5572
38.8388
37.9733
37.641
37.7445
37.1764
37.0131
36.2046
36.5991
36.5599
36.7571
37.3321
37.2144
37.5682
38.5055
38.2847
38.7778
39.2999
39.1947
42.0087
42.9467
42.8265
47.4929
44.8191
43.8745
42.2564
40.0853
39.4375
39.5816
38.4351
38.0889
38.1375
37.4111
37.2341
36.2026
36.652
36.6122
36.8319
37.4771
37.3692
37.7384
38.7657
38.5721
39.0952
39.6732
39.5839
42.2682
43.0697
43.1415
49.725
46.6377
46.0828
43.3629
40.8382
40.2874
40.239
38.8653
38.5472
38.5083
37.6407
37.4698
36.2047
36.7073
36.6655
36.9076
37.6214
37.5127
37.9082
39.0314
38.8305
39.3934
39.9961
39.9213
42.0121
42.3449
42.518
50.7049
47.5597
47.2927
44.1251
41.4207
41.001
40.7605
39.2262
38.9631
38.824
37.8431
37.6944
36.2107
36.7663
36.7217
36.9867
37.7749
37.6587
38.092
39.3198
39.1014
39.6939
40.381
40.201
41.5055
41.2072
41.4546
50.9508
48.6132
48.5086
44.5923
41.8237
41.5382
41.1313
39.498
39.3029
39.0654
38.0031
37.8874
36.2358
36.8512
36.7816
37.0941
37.9732
37.815
38.33
39.6751
39.3949
39.9896
40.6572
40.5691
40.7843
39.5239
39.8979
43.4541
50.8257
49.8931
50.4915
46.0115
45.8902
44.8181
42.0588
41.8975
41.3551
39.676
39.5511
39.2265
38.1124
38.0351
36.2392
36.9105
36.8679
37.1727
38.131
38.0153
38.5209
39.9342
39.7488
40.3218
40.7744
40.8153
39.0267
35.5748
36.5581
49.2792
53.5875
54.0116
50.0394
45.9228
46.0225
44.7953
42.134
42.0937
41.4414
39.7638
39.7065
39.3099
38.1705
38.1314
36.2285
36.9485
36.9225
37.2319
38.2561
38.166
38.6676
40.0122
39.9772
40.308
36.1531
38.6307
29.4426
42.4579
42.9381
48.5677
50.2863
51.1987
49.1447
45.6038
45.8674
44.5837
42.0823
42.1299
41.4112
39.7664
39.7706
39.3158
38.1726
38.1752
36.1991
36.9544
36.9533
37.2519
38.3147
38.2802
38.7214
39.7933
39.9822
39.8245
32.8083
35.2985
25.4333
41.4458
42.2264
46.9789
49.0693
49.9765
48.1517
45.0945
45.4863
44.1837
41.901
42.052
41.2728
39.6984
39.7578
39.2583
38.1245
38.166
36.1493
36.9254
36.9503
37.2292
38.2805
38.3141
38.654
39.3733
39.7037
39.0992
29.7879
32.0168
22.4516
40.3399
41.1715
45.4978
47.9363
48.7775
47.2067
44.5438
44.9575
43.7224
41.625
41.8375
41.0379
39.545
39.6663
39.1214
38.0155
38.1021
36.0801
36.8655
36.9131
37.1691
38.1743
38.26
38.4989
38.8204
39.2459
38.214
27.1826
29.097
20.297
39.2508
40.0642
44.1335
46.8904
47.667
46.3291
44.0054
44.4071
43.2584
41.316
41.5494
40.7645
39.346
39.4983
38.9389
37.8673
37.9813
35.9945
36.7802
36.8464
37.0785
38.0138
38.1387
38.2807
38.1727
38.6659
37.2452
24.9812
26.5959
18.7379
38.21
38.9855
42.8756
45.9224
46.6414
45.51
43.4947
43.8749
42.8116
41.001
41.2372
40.4796
39.1258
39.2922
38.7339
37.6964
37.8262
35.8955
36.6742
36.7554
36.9633
37.8122
37.9669
38.0157
37.4682
38.0003
36.2567
23.1354
24.4885
17.5957
37.2245
37.9584
41.7114
45.0226
45.6914
44.7414
43.012
43.3716
42.3871
40.6913
40.9228
40.1958
38.8979
39.0692
38.5194
37.5132
37.6515
35.7857
36.5517
36.645
36.8283
37.5784
37.7565
37.7142
36.7419
37.2876
35.2805
21.59
22.723
16.745
36.2932
36.9867
40.6289
44.1811
44.8071
44.0171
42.5516
42.8951
41.9825
40.3915
40.6153
39.9188
38.6692
38.8406
38.3024
37.3241
37.4663
35.6675
36.4155
36.5188
36.6768
37.3182
37.5156
37.3826
36.0141
36.5596
34.3359
20.2941
21.2445
16.0998
35.4126
36.0684
39.6182
43.3895
43.9788
43.3316
42.1086
42.4393
41.5931
40.1027
40.3184
39.6505
38.4435
38.6124
38.0869
37.1331
37.2764
35.5426
36.2678
36.3796
36.5116
37.0355
37.2495
37.0281
35.2968
35.8335
33.4351
19.2038
20.0038
15.601
34.5789
35.1999
38.6709
42.6409
43.1986
42.6797
41.6806
42.0003
41.216
39.8234
40.0321
39.3908
38.2227
38.3878
37.8751
36.9427
37.0854
35.4124
36.1102
36.2293
36.334
36.735
36.9619
36.6586
34.5981
35.1202
32.5843
18.2828
18.9589
15.2084
33.7888
34.3774
37.7799
41.9297
42.4598
42.0571
41.2661
41.5758
40.8495
39.5515
39.7548
39.1383
38.0072
38.1683
37.6678
36.7545
36.8954
35.2778
35.9435
36.0694
36.1451
36.4219
36.6577
36.2807
33.9233
34.427
31.7859
17.5017
18.0754
14.8938
33.0391
33.5977
36.9394
41.2512
41.7571
41.4603
40.8634
41.1643
40.4924
39.2859
39.4846
38.8916
37.7968
37.9541
37.4651
36.5693
36.7079
35.1394
35.7684
35.9005
35.9462
36.1007
36.3422
35.8988
33.2756
33.7587
31.0397
16.8368
17.3254
14.638
32.3274
32.8578
36.1448
40.6021
41.0864
40.8865
40.4716
40.7645
40.1439
39.0255
39.2203
38.6499
37.591
37.7449
37.2669
36.3873
36.5235
34.9976
35.5856
35.7234
35.7387
35.7749
36.0196
35.5158
32.6564
33.1181
30.3436
16.269
16.6865
14.4272
31.6514
32.1552
35.3921
39.9793
40.4441
40.3334
40.0894
40.3752
39.803
38.7698
38.9612
38.4126
37.3893
37.5402
37.0726
36.2087
36.3423
34.8526
35.3965
35.5389
35.5245
35.4469
35.6931
35.1342
32.0662
32.5062
29.6946
15.7828
16.1403
14.2518
31.009
31.4877
34.6779
39.3806
39.8274
39.799
39.716
39.9953
39.4689
38.5182
38.7065
38.1791
37.1912
37.3394
36.882
36.0332
36.1645
34.7046
35.202
35.3483
35.3051
35.1183
35.3647
34.7555
31.5043
31.9231
29.089
15.3658
15.6725
14.1051
30.3987
30.8535
33.9995
38.804
39.2344
39.2819
39.3505
39.6239
39.1412
38.2703
38.4559
37.949
36.9964
37.1422
36.6946
35.8608
35.9898
34.5537
35.0032
35.1526
35.0818
34.7905
35.0362
34.3808
30.9695
31.3681
28.5231
15.0077
15.2711
13.9821
29.8188
30.2509
33.3546
38.248
38.6631
38.7809
38.9924
39.2603
38.8192
38.0258
38.2089
37.7219
36.8044
36.9481
36.5101
35.6912
35.8181
34.4003
34.8012
34.953
34.8557
34.4645
34.7088
34.0112
30.4605
30.8399
27.9931
14.7003
14.9264
13.8795
29.2681
29.6785
32.7412
37.7113
38.112
38.295
38.6412
38.904
38.5027
37.7843
37.9651
37.4975
36.615
36.7568
36.3282
35.5242
35.6492
34.2447
34.5966
34.7503
34.6277
34.1411
34.3834
33.6472
29.9754
30.3371
27.4952
14.4367
14.6305
13.7947
28.7454
29.1349
32.1577
37.1931
37.5801
37.8235
38.2965
38.5544
38.1912
37.5456
37.7244
37.2757
36.4279
36.568
36.1487
35.3596
35.4829
34.0872
34.3903
34.5452
34.3985
33.8208
34.0607
33.2892
29.5125
29.8577
27.0261
14.2113
14.377
13.7262
28.2496
28.6189
31.6025
36.6924
37.0663
37.3658
37.9581
38.2113
37.8845
37.3096
37.4864
37.0563
36.2429
36.3815
35.9714
35.1973
35.3189
33.9281
34.1826
34.3385
34.1685
33.504
33.7413
32.9374
29.0698
29.4
26.5823
14.0193
14.1603
13.6728
27.7799
28.1298
31.0746
36.2085
36.5698
36.9214
37.6258
37.8744
37.5826
37.0761
37.251
36.839
36.0599
36.197
35.796
35.0371
35.1571
33.7678
33.9742
34.1306
33.9384
33.191
33.4254
32.5919
28.6455
28.9621
26.1609
13.8566
13.976
13.6335
27.3354
27.6664
30.5728
35.7412
36.0902
36.4901
37.2995
37.5437
37.2854
36.845
37.0181
36.6239
35.8787
36.0145
35.6224
34.8789
34.9974
33.6162
33.7766
33.922
33.7203
32.894
33.1134
32.264
28.245
28.5421
25.7642
13.7203
13.8201
13.608
26.9205
27.2282
30.1036
35.3018
35.6268
36.0843
36.9927
37.2189
37.006
36.6288
36.7877
36.423
35.7105
35.8338
35.4616
34.733
34.8397
42.696
42.551
41.659
46.0871
47.5385
48.6432
42.7803
43.4706
43.0682
43.161
43.2003
42.274
49.6661
51.6771
52.0541
48.9761
49.8622
47.6644
42.5724
42.7255
42.148
51.3112
52.8373
52.8906
52.1603
52.4267
50.4716
41.5328
41.756
41.7194
51.8864
52.8398
52.8583
52.6219
52.6801
51.6042
40.0164
40.3541
41.1308
40.3617
39.4647
39.5163
44.5597
44.1561
41.5715
51.9768
53.881
53.9815
52.8718
52.8846
51.9575
36.8229
37.4678
39.9773
44.0793
38.5908
38.7685
40.2364
39.3154
40.4743
51.758
51.5583
46.7278
51.7389
54.0488
53.943
54.0081
54.0514
51.7691
41.8555
40.2876
39.4239
52.4051
49.9239
55.6521
39.1786
40.1449
40.6194
53.3494
53.2463
41.449
41.679
42.1913
39.4952
40.5834
40.2524
50.4935
51.4879
52.1152
44.9564
46.1385
45.2436
43.5371
42.4641
44.2728
41.1328
41.9198
42.4975
40.7632
41.3352
40.6506
39.4923
39.3981
38.8621
41.5007
39.9183
40.089
39.6739
39.8601
41.4217
54.1598
53.6009
53.3479
56.1587
56.0629
55.5798
45.8646
45.1029
47.8536
42.9283
44.0684
44.5172
43.0548
43.5808
42.5154
39.8425
39.7596
39.1702
41.7062
40.3331
40.4452
40.1425
40.2894
41.7064
42.9407
43.0413
42.2566
43.6659
43.6669
43.5605
44.2165
44.134
44.3479
51.9061
50.3491
50.4021
50.6109
50.4854
52.0474
47.1815
46.7954
49.9034
44.281
45.6168
45.9037
44.9246
45.2913
43.9878
40.1356
40.0673
39.4676
41.572
40.5855
40.6511
40.4778
40.5602
41.598
42.0956
42.2845
41.9592
40.4549
41.5914
41.4408
42.446
42.306
41.7678
52.2815
50.3236
50.4806
48.0898
48.5466
51.9018
40.538
40.4291
39.7673
41.2938
40.7263
40.7847
40.6721
40.7082
41.3359
40.852
41.1206
41.4298
36.2079
38.7135
38.6856
39.9109
39.7243
37.4929
40.065
40.1644
41.5139
53.2986
48.5932
49.441
51.8097
51.9481
53.0975
40.7948
40.6864
40.0812
40.843
40.8744
40.9267
40.8033
40.857
40.9085
38.9887
39.3929
40.7324
31.9058
32.5172
32.4294
34.4126
34.2984
33.0929
28.0409
30.8419
37.8005
45.1319
41.5114
36.9928
38.7106
38.7269
44.535
45.9445
47.7658
46.9659
48.2342
48.4198
46.8213
42.9976
43.4735
42.9395
46.5531
46.1382
45.0834
55.4821
56.2939
56.2391
52.6801
53.1818
51.8652
45.8405
47.1371
45.5042
50.7779
49.383
48.7717
52.1751
51.7937
53.9884
44.9353
43.627
43.5391
43.7647
43.6551
45.0424
42.2639
43.1982
43.0423
45.6814
45.768
46.1902
43.7762
44.2176
44.8751
46.7056
47.8258
48.1429
46.3245
46.7213
46.1176
52.2982
50.9003
50.7513
53.1027
52.8808
53.6921
51.0128
51.5312
49.1093
54.1317
54.0379
53.9319
54.3087
54.3064
53.4627
54.9214
52.8238
52.5178
53.8883
53.7601
54.7448
47.8565
50.1242
50.8158
42.3275
42.7146
42.582
43.4497
43.3352
43.1881
42.184
42.7728
42.9022
42.883
42.3725
42.5124
40.549
40.6806
41.4193
44.284
43.1907
43.6307
42.6599
42.8135
43.2253
51.7155
47.5082
47.9462
50.4465
50.4863
52.021
52.7144
52.814
51.184
53.3444
54.1645
54.1912
53.5267
53.5303
53.3349
53.1149
54.299
54.3059
54.218
54.2441
53.009
50.6856
52.498
52.6715
38.3709
40.2747
40.0939
41.2871
41.1308
39.6358
41.7837
41.8269
42.0304
38.9672
37.7919
37.9175
35.3417
35.4549
36.8782
41.0628
40.2739
40.4147
38.0436
38.1699
39.345
52.8837
51.5255
51.6685
50.6433
50.7913
52.5188
33.406
34.6747
34.5351
38.6122
38.3295
35.1466
41.175
40.46
40.7582
34.0388
33.0209
33.1142
36.5148
35.1262
35.2333
33.2196
33.3482
34.4515
53.5431
50.7457
51.4571
49.7159
50.4965
53.7087
40.2501
40.0515
40.0309
44.0956
31.82
31.7736
32.35
32.2765
31.7391
40.2223
38.1325
38.8526
40.3641
40.6403
43.0749
63.1773
62.1193
67.4015
42.0175
39.8683
40.1021
39.0778
38.9446
38.4784
40.6594
39.3745
39.607
39.0007
39.2877
40.5001
41.9592
41.6926
40.9516
43.6606
42.3208
42.7878
41.7686
42.1524
43.3141
50.9269
53.3593
51.1159
43.0482
43.0239
42.108
45.6906
43.8391
43.7892
43.6801
43.8351
45.7617
48.3791
47.634
50.7706
45.1824
46.5657
46.7343
46.1552
46.3752
44.9941
45.2192
40.9325
41.5404
43.1281
43.4012
45.453
51.7226
51.0973
43.8514
53.9228
52.8728
53.0585
51.6655
52.6694
53.8466
45.5117
43.3595
43.6091
42.9207
43.2651
45.3506
41.5147
42.384
42.1885
45.124