/*--------------------------------*- C++ -*----------------------------------*\
| =========                 |                                                 |
| \\      /  F ield         | OpenFOAM: The Open Source CFD Toolbox           |
|  \\    /   O peration     | Version:  v1912                                 |
|   \\  /    A nd           | Website:  www.openfoam.com                      |
|    \\/     M anipulation  |                                                 |
\*---------------------------------------------------------------------------*/
FoamFile
{
    version     2.0;
    format      ascii;
    class       volScalarField;
    location    "1100";
    object      nut;
}
// * * * * * * * * * * * * * * * * * * * * * * * * * * * * * * * * * * * * * //

dimensions      [0 2 -1 0 0 0 0];


internalField   nonuniform List<scalar> 
12556
(
1.15562
1.15558
1.15553
1.15552
1.15589
1.15591
1.15593
1.15597
1.15603
1.15615
1.15633
1.15652
1.15666
1.15667
1.15656
1.15638
1.15621
1.15608
1.15599
1.15595
1.15555
1.15554
1.15558
1.15562
1.15486
1.15476
1.15466
1.15463
1.15492
1.15501
1.1551
1.15537
1.15557
1.15592
1.15642
1.15699
1.15741
1.15748
1.15719
1.15668
1.15616
1.15576
1.15533
1.15513
1.15473
1.1547
1.15478
1.15487
1.15407
1.15391
1.15377
1.15375
1.15399
1.15414
1.15435
1.1547
1.15521
1.15604
1.15721
1.13
1.03491
1.03179
1.11091
1.15772
1.15656
1.15562
1.15488
1.15443
1.15396
1.15388
1.15397
1.15411
1.15326
1.15305
1.15288
1.15287
1.15309
1.15333
1.15372
1.15428
1.15536
1.15709
0.96079
0.780837
0.705483
0.716295
0.797516
0.948202
1.15788
1.15609
1.15477
1.15392
1.15327
1.1531
1.15317
1.15335
1.15244
1.15218
1.152
1.15201
1.15225
1.15262
1.15327
1.15423
1.15629
0.933959
0.656686
0.490232
0.420435
0.440932
0.528789
0.670315
0.882486
1.15748
1.15519
1.15368
1.15267
1.15235
1.15238
1.15257
1.15162
1.15132
1.15113
1.15118
1.15147
1.15202
1.15309
1.1547
1.09342
0.712876
0.449018
0.278426
0.208388
0.239874
0.333802
0.471243
0.662921
0.947056
1.15625
1.15377
1.1522
1.15164
1.15158
1.15177
1.1508
1.15047
1.15029
1.1504
1.15076
1.15156
1.15319
1.15569
0.947448
0.588654
0.330835
0.142312
0.0743523
0.11448
0.211726
0.342301
0.518163
0.77031
1.15316
1.15425
1.15187
1.15098
1.15078
1.15095
1.15
1.14966
1.14949
1.14968
1.15014
1.15125
1.15356
1.15701
0.887548
0.567354
0.329094
0.125513
0.0625482
0.154585
0.272078
0.43241
0.658998
1.02769
1.15507
1.15168
1.1504
1.15002
1.15014
1.14925
1.14889
1.14876
1.14905
1.14963
1.15111
1.15417
1.15846
0.895659
0.633298
0.476505
0.372048
0.0708175
0.14526
0.247089
0.392366
0.59797
0.946249
1.15616
1.15166
1.14991
1.14931
1.14937
1.14855
1.14819
1.1481
1.1485
1.14924
1.15112
1.15493
1.15992
0.932575
0.72271
0.658968
0.707096
0.0959898
0.160069
0.252302
0.386571
0.576732
0.905331
1.1574
1.1518
1.14955
1.14872
1.1487
1.14793
1.14756
1.14752
1.14805
1.14897
1.15128
1.1558
1.16138
0.965739
0.777627
0.73807
0.605706
0.129768
0.189512
0.278492
0.407166
0.587226
0.899259
1.1587
1.15211
1.14936
1.14828
1.14818
1.14737
1.14701
1.14703
1.1477
1.1488
1.15156
1.15674
1.16283
0.985105
0.784043
0.698128
0.49888
0.165246
0.232018
0.324213
0.452268
0.626616
0.923916
1.16
1.15256
1.14933
1.14802
1.14784
1.14689
1.14654
1.14663
1.14745
1.14874
1.15194
1.15773
1.16426
1.00372
0.773372
0.615279
0.419075
0.0423427
0.212279
0.296462
0.397021
0.526108
0.696714
0.978679
1.16122
1.15308
1.14944
1.14792
1.14767
1.14647
1.14613
1.14628
1.14725
1.1488
1.15248
1.15887
1.16574
1.04621
0.794054
0.577654
0.217142
0.0976994
0.314624
0.411414
0.513552
0.638163
0.80249
1.06652
1.1623
1.15362
1.14964
1.14795
1.14764
1.14611
1.14577
1.14598
1.14709
1.14885
1.15291
1.15978
1.16688
1.15511
0.897492
0.676695
0.0425718
0.147375
0.504019
0.626327
0.698763
0.801715
0.950835
1.16716
1.16317
1.15412
1.14988
1.14806
1.14771
1.14578
1.14544
1.1457
1.14693
1.1489
1.15329
1.16054
1.16774
1.16681
1.10645
0.756552
0.0324571
0.16417
0.521054
0.81403
0.980045
1.03039
1.15531
1.16803
1.16379
1.15453
1.15012
1.1482
1.14782
1.14547
1.14513
1.14543
1.14676
1.14891
1.15359
1.16112
1.16825
1.16599
1.10828
0.629164
0.0293043
0.177807
0.532744
0.822755
1.0164
1.11503
1.15657
1.16842
1.16413
1.15482
1.15031
1.14833
1.14795
1.14518
1.14483
1.14515
1.14657
1.14888
1.15379
1.16149
1.1684
1.16414
1.08508
0.518722
0.0283407
0.189161
0.539407
0.82861
1.0188
1.11599
1.15701
1.16841
1.16419
1.15496
1.15043
1.14842
1.14804
1.14489
1.14453
1.14485
1.14633
1.14878
1.15387
1.16167
1.16821
1.1612
1.05615
0.43678
0.028423
0.198757
0.541965
0.832419
1.01993
1.11611
1.15687
1.16809
1.16404
1.15498
1.15047
1.14846
1.14808
1.14459
1.14422
1.14454
1.14606
1.14861
1.15385
1.16167
1.16772
1.15714
1.02277
0.381991
0.0291145
0.206974
0.542845
0.834206
1.0202
1.11568
1.15632
1.16753
1.16371
1.15489
1.15045
1.14845
1.14806
1.14429
1.14392
1.14423
1.14577
1.14839
1.15374
1.16152
1.16696
1.15194
0.985419
0.345381
0.0302016
0.214088
0.543228
0.833561
1.01975
1.11485
1.1555
1.1668
1.16325
1.15473
1.15036
1.14838
1.14799
1.14399
1.14361
1.14392
1.14547
1.14814
1.15354
1.16123
1.16595
1.14558
0.943328
0.31919
0.0315625
0.220309
0.543324
0.830866
1.0185
1.11371
1.15448
1.16597
1.16271
1.15451
1.15022
1.14825
1.14786
1.14367
1.1433
1.1436
1.14517
1.14786
1.1533
1.16084
1.16469
1.13793
0.898511
0.299713
0.0331208
0.2258
0.543158
0.827093
1.01631
1.11228
1.15331
1.16507
1.16213
1.15425
1.15004
1.14809
1.14768
1.14335
1.14299
1.14329
1.14487
1.14759
1.15304
1.16038
1.16319
1.12856
0.85656
0.284927
0.0348258
0.230689
0.542757
0.822919
1.01322
1.1105
1.15201
1.16412
1.16151
1.15396
1.14984
1.14789
1.14746
1.14301
1.14267
1.14299
1.14458
1.14732
1.15276
1.15985
1.16139
1.11697
0.820344
0.273567
0.0366429
0.235082
0.54216
0.818636
1.00947
1.10839
1.15058
1.16315
1.16088
1.15365
1.1496
1.14766
1.14721
1.14268
1.14236
1.14269
1.1443
1.14706
1.15248
1.15925
1.15919
1.10311
0.789604
0.264775
0.0385485
0.239062
0.541411
0.814346
1.00531
1.10597
1.14904
1.16215
1.16025
1.15333
1.14935
1.14741
1.14693
1.14233
1.14204
1.14239
1.14403
1.1468
1.15219
1.15857
1.1565
1.08762
0.763317
0.257949
0.040527
0.242701
0.540551
0.810093
1.00092
1.1033
1.1474
1.16115
1.15962
1.153
1.14909
1.14715
1.14664
1.14198
1.14172
1.14209
1.14376
1.14655
1.1519
1.1578
1.15321
1.07135
0.740587
0.252651
0.0425683
0.246058
0.539621
0.805901
0.996404
1.10044
1.14567
1.16013
1.15898
1.15266
1.14882
1.14687
1.14633
1.14164
1.1414
1.1418
1.1435
1.14631
1.1516
1.15689
1.14929
1.05498
0.720738
0.248552
0.0446666
0.249185
0.538654
0.80179
0.991847
1.09742
1.14388
1.15911
1.15836
1.15232
1.14854
1.14658
1.14601
1.14129
1.14108
1.14151
1.14324
1.14607
1.15128
1.15584
1.14475
1.03893
0.703253
0.245402
0.0468196
0.252125
0.537682
0.797774
0.987294
1.0943
1.14202
1.15808
1.15773
1.15198
1.14826
1.14628
1.14568
1.14094
1.14077
1.14122
1.14299
1.14584
1.15093
1.15461
1.13965
1.02343
0.687735
0.243004
0.0490277
0.254917
0.536732
0.793871
0.982781
1.09111
1.14013
1.15704
1.15711
1.15164
1.14797
1.14598
1.14535
1.14059
1.14045
1.14094
1.14275
1.1456
1.15056
1.15319
1.13408
1.00859
0.673863
0.241204
0.0512931
0.257595
0.535827
0.790095
0.978331
1.08787
1.13819
1.15601
1.15649
1.1513
1.14768
1.14568
1.14501
1.14025
1.14014
1.14067
1.14251
1.14536
1.15014
1.15156
1.12811
0.994422
0.661377
0.239875
0.0536202
0.260189
0.534991
0.78646
0.973966
1.08461
1.13623
1.15496
1.15588
1.15096
1.1474
1.14539
1.14468
1.1399
1.13983
1.14039
1.14227
1.14513
1.14969
1.14972
1.12185
0.980931
0.650062
0.238914
0.056014
0.262728
0.534242
0.78298
0.969703
1.08135
1.13424
1.15392
1.15527
1.15063
1.14711
1.14509
1.14435
1.13958
1.13954
1.14014
1.14205
1.14489
1.14919
1.14767
1.11536
0.968082
0.639735
0.238233
0.0584813
0.265238
0.533598
0.779668
0.965557
1.0781
1.13224
1.15287
1.15467
1.1503
1.14685
1.14481
1.14405
1.1393
1.13928
1.13992
1.14186
1.14466
1.14864
1.14544
1.10872
0.955833
0.630244
0.237759
0.06103
0.267743
0.533078
0.776537
0.961543
1.07488
1.13023
1.15184
1.15409
1.15003
1.14662
1.14457
1.14378
0.313558
0.0625492
0.0535923
0.718524
0.087059
0.06544
0.618838
0.121655
0.0910509
0.512387
0.153383
0.127167
0.42624
0.0325433
0.0397953
0.189663
0.157386
0.261906
0.0645453
0.0339942
0.0929189
0.254172
0.192312
0.120582
0.0763365
0.0556118
0.1075
0.0326932
0.023191
0.0684669
0.122971
0.130302
0.618865
0.798831
0.385906
0.0409804
0.0529735
0.0922796
0.136646
0.124512
0.732115
0.728728
0.804804
0.670445
0.204783
0.244718
0.060412
0.0465469
0.125422
0.164801
0.142637
0.712368
0.629746
0.716975
0.565963
0.114282
0.161024
0.0973982
0.076884
0.632593
0.527254
0.616615
0.476969
0.0581378
0.0819818
0.0183034
0.138298
0.130608
0.575692
0.350267
0.513637
0.368495
0.0254669
0.0373849
0.0827959
0.0859305
0.0680351
0.0967348
0.28785
0.0437807
0.085728
0.0515368
0.034223
0.0555835
0.0356443
0.0504324
0.250547
0.295794
0.724519
0.216999
0.189266
0.277565
0.223143
0.0461488
0.0409649
0.0766965
0.052989
0.0581547
0.0516466
0.0530102
0.075195
0.165419
0.199152
0.657731
0.145162
0.116372
0.186591
0.147916
0.0743588
0.0618654
0.108657
0.0811082
0.0981173
0.0587038
0.079156
0.104009
0.0832921
0.112424
0.552633
0.0868143
0.0613873
0.11474
0.0880738
0.126524
0.10071
0.0378179
0.0568483
0.473003
0.0163968
0.0401812
0.0269158
0.0606232
0.0409634
0.0158677
0.143386
0.139918
0.0190764
0.00517866
0.0253621
0.361221
0.0490702
0.0186334
0.00912263
0.0267964
0.0190029
0.0467559
0.429463
0.332312
0.14792
0.169071
0.0964624
0.0522658
0.0126619
0.010524
0.619603
0.303313
0.365435
0.0139953
0.1585
0.201683
0.173311
0.0136341
0.0507745
0.0457486
0.0613984
0.158089
0.146204
0.294473
0.108637
0.194522
0.0410576
0.0162409
0.0287683
0.0265613
0.0339873
0.054192
0.0436805
0.0302759
0.141973
0.126626
0.13591
0.1009
0.123079
0.138748
0.0225422
0.014716
0.0377927
0.0294925
0.0526685
0.0423768
0.023458
0.0374143
0.0281387
0.0109041
0.0265642
0.0219395
0.0123512
0.0197184
0.0250256
0.0493486
0.0499719
0.0527098
0.0518574
0.0196783
0.0146087
0.0881381
0.0187887
0.0260579
0.0139614
0.0178462
0.0852423
0.0724997
0.241589
0.224565
0.0634855
0.0538051
0.01436
0.0345992
0.156712
0.142487
0.177285
0.161913
0.0352325
0.0524972
0.0420901
0.147271
0.0649114
0.0766251
0.041141
0.0640742
0.169489
0.0537927
0.0303061
0.0189178
0.0689598
0.0336436
0.0597297
0.0318402
0.0629797
0.0428019
0.0420718
0.208461
0.0285041
0.20715
0.251161
0.0333841
0.0398564
0.0289379
0.0326742
0.243501
0.0442228
0.0439888
0.055147
0.0724492
0.0678683
0.0790351
0.0742546
0.055431
0.0604229
0.0605395
0.0555272
0.0661577
0.0618688
0.0596693
0.130203
0.128352
0.168916
0.16657
0.0731319
0.0138762
0.0716582
0.0778383
0.0757077
0.0994478
0.0977022
0.0272778
0.0383865
0.111168
0.0287951
0.0205247
0.0507791
0.198225
0.182451
0.219114
0.203407
0.0516175
0.0215112
0.0379745
0.0375542
0.0557084
0.054958
0.00760561
0.0265741
0.077594
0.0668884
0.138307
0.112798
0.0118042
0.007312
0.0215158
0.0169869
0.02604
0.0115277
0.0164943
0.0135974
0.0257242
0.039986
0.0150978
0.0186403
0.00500094
0.01909
0.0170973
0.63369
0.238242
0.335723
0.146488
0.00835208
0.00557796
0.142398
0.415619
0.286648
0.00683822
0.0164745
0.0148672
0.0929613
0.0813257
0.0279742
0.198919
0.16465
0.0642538
0.0119371
0.0209023
0.0163045
0.0105512
0.0156505
0.0111951
0.0426717
0.0275263
0.0254233
0.0516824
0.0563365
0.0224212
0.0258524
0.0166229
0.0163613
0.0482647
0.131717
0.336054
0.317484
0.36196
0.342424
0.136036
0.264484
0.247302
0.0736689
0.0265686
0.0698512
0.0652004
0.0096504
0.0146363
0.0717673
0.0482414
0.0301795
0.0282208
0.0416951
0.0478353
0.0436097
0.0540082
0.0492784
0.0431776
0.0451744
0.0179881
0.0168547
0.0419502
0.179007
0.388766
0.368573
0.0505985
0.0518779
0.121317
0.0267328
0.0287457
0.0659697
0.0877798
0.107808
0.0998622
0.0645053
0.0870041
0.081045
0.0968008
0.0894382
0.0654762
0.0981479
0.287773
0.270255
0.311452
0.29367
0.100313
0.0831824
0.0317587
0.0323142
0.0210388
0.022049
0.0647143
0.108859
0.0463632
0.0501053
0.0324907
0.03292
0.0919907
0.114865
0.0402214
0.0571022
0.00745572
0.0181881
0.039085
0.0297253
0.058487
0.0200244
0.0207622
0.0181147
0.0484101
0.0144032
0.00425759
0.0778695
0.0541702
0.0638958
0.0599559
0.0249072
0.0193143
0.0254626
0.0559039
0.0177503
0.00999184
0.0213582
0.0219514
0.00298375
0.0266258
0.0199621
0.0149577
0.00737368
0.0137813
0.013547
0.0136068
0.0230458
0.0199607
0.00769093
0.0380402
0.0369345
0.0191299
0.0128508
0.00867963
0.0135155
0.0210115
0.014929
0.016764
0.0351282
0.0143716
0.0128177
0.0146545
0.0159856
0.0267644
0.0144558
0.011318
0.0160615
0.0147664
0.0115477
0.01839
0.0165781
0.0214408
0.0190893
0.0137981
0.0177013
0.0251684
0.0216897
0.0323018
0.0267353
0.0209156
0.0186413
0.0152996
0.0226031
0.020524
0.0444684
0.0512431
0.0248042
0.0231948
0.0208292
0.0217486
0.0553414
0.015141
0.0160581
0.0178899
0.0152299
0.0166314
0.0491004
0.0172113
0.0204584
0.0171148
0.0163874
0.0215328
0.0522543
0.0461775
0.0156429
0.0379478
0.0336688
0.0440331
0.0394259
0.0161175
0.0156538
0.0282421
0.0242399
0.0781646
0.0716583
0.0282049
0.0362865
0.0849157
0.0799409
0.0475265
0.0459389
0.0668718
0.111894
0.156644
0.08023
0.102149
0.0675716
0.0531579
0.139577
0.12191
0.158893
0.145843
0.0586684
0.0478302
0.0588052
0.0732082
0.0423323
0.0483979
0.0369392
0.0339885
0.0471358
0.0275099
0.0301866
0.0259098
0.0376155
0.0334301
0.0309219
0.0360774
0.0386232
0.0390747
0.0373416
0.0270476
0.0868854
0.0704235
0.0952905
0.0902449
0.0274468
0.064376
0.0629133
0.0676779
0.0648829
0.0356474
0.11137
0.106982
0.118798
0.112948
0.0366088
0.0304408
0.10032
0.0965511
0.105584
0.101591
0.0308843
0.0198853
0.0184051
0.0449049
0.0426019
0.0214893
0.0205256
0.0373401
0.0368941
0.0382463
0.0374782
0.0358301
0.0350713
0.0367229
0.0360779
0.060558
0.0590177
0.0624543
0.061047
0.0532658
0.0394965
0.058463
0.0557209
0.0275051
0.0245469
0.0324247
0.0287572
0.0125952
0.0195676
0.0184852
0.0235826
0.0202218
0.0306068
0.0315854
0.0820014
0.0199136
0.0194087
0.020829
0.0200918
0.0192172
0.0668214
0.0223636
0.029443
0.0337364
0.0425063
0.10625
0.0295196
0.0239147
0.0347951
0.0324576
0.0220247
0.0211107
0.0234945
0.022357
0.0933409
0.0330289
0.0333707
0.0082623
0.0248608
0.0135068
0.0143636
0.0132641
0.0237063
0.00739391
0.0189086
0.0111729
0.01424
0.0388183
0.0330904
0.0191506
0.0197958
0.0577932
0.0511402
0.0183301
0.0189306
0.0133665
0.0242817
0.0582466
0.0415834
0.0125908
0.0121649
0.017149
0.0103948
0.013467
0.0186041
0.0265191
0.00723495
0.0151705
0.00995438
0.0147637
0.0201566
0.0644556
0.138133
0.184026
0.0127134
0.0119957
0.19304
0.255525
0.212881
0.00782835
0.0283053
0.0164564
0.0182356
0.139994
0.14609
0.168321
0.00571967
0.00910395
0.00670974
0.00567973
0.00695879
0.00542808
0.0700701
0.0447495
0.0269906
0.0296828
0.0271042
0.0306942
0.221962
0.445508
0.423727
0.475533
0.452897
0.227534
0.0358132
0.0302432
0.0162322
0.0601568
0.0699511
0.138066
0.0918774
0.0865851
0.0365674
0.0320165
0.0369268
0.0371068
0.416594
0.395623
0.183807
0.138145
0.0552916
0.0575384
0.0597895
0.073315
0.156725
0.0423291
0.100615
0.0938155
0.0146741
0.0150127
0.016936
0.0200483
0.0203941
0.0271897
0.0153519
0.0126729
0.0143149
0.0217141
0.0427224
0.0376771
0.0184105
0.0267468
0.019447
0.0196991
0.0192611
0.0120877
0.013571
0.0156994
0.0151879
0.0127919
0.0208673
0.0239131
0.0513978
0.0398368
0.0423812
0.0390976
0.0290365
0.0374003
0.0175069
0.0199452
0.0110155
0.00731357
0.00724956
0.0139714
0.0117525
0.0282213
0.0179746
0.0122226
0.01715
0.0221569
0.0210454
0.0303634
0.0315996
0.0188598
0.0150803
0.0155495
0.00980378
0.0136696
0.0153058
0.0598136
0.0542333
0.0225521
0.0143002
0.0185326
0.0177228
0.0147762
0.016925
0.0162945
0.0510366
0.0416275
0.0432109
0.0655985
0.0918302
0.0907397
0.0425413
0.0608526
0.0587046
0.0895041
0.0879295
0.0629362
0.0439318
0.0532588
0.0440346
0.0336706
0.0365353
0.029684
0.0457272
0.0476198
0.0685387
0.0247475
0.0321572
0.0315696
0.0485438
0.0479029
0.0280888
0.0269725
0.0264579
0.0308236
0.0300536
0.03418
0.0548239
0.0542041
0.057819
0.057321
0.0387041
0.0294082
0.0498103
0.049172
0.0535633
0.0529092
0.0319944
0.053821
0.0549002
0.13607
0.123016
0.0522904
0.0534588
0.081023
0.0838463
0.176231
0.0243022
0.0240556
0.026093
0.0257503
0.0214868
0.0238195
0.0235882
0.159358
0.076046
0.0800593
0.0140461
0.0141532
0.0171508
0.0167024
0.0138892
0.0143199
0.0142668
0.0673751
0.0296379
0.0333066
0.109791
0.103055
0.0454139
0.053681
0.117657
0.111811
0.0274887
0.0276046
0.0382886
0.0368694
0.0269768
0.0273136
0.0116922
0.0183624
0.02675
0.0187965
0.00733213
0.0118878
0.0194343
0.0138356
0.0147282
0.0180176
0.0182053
0.0262277
0.0110389
0.007243
0.0105299
0.0139782
0.0249562
0.0176422
0.0178468
0.0164075
0.026028
0.0226695
0.013937
0.0134154
0.014732
0.0150606
0.0176971
0.00795506
0.005447
0.00988287
0.0158641
0.0139902
0.0143287
0.0123846
0.0135175
0.0153281
0.0120894
0.00809667
0.00623423
0.0238427
0.024397
0.0228099
0.0232703
0.0268093
0.0349226
0.0351084
0.0345008
0.0347356
0.0262097
0.0162281
0.0260251
0.0259248
0.0268163
0.0262729
0.016054
0.0297517
0.0364759
0.038149
0.0353156
0.0356719
0.0289794
0.0177052
0.0259176
0.0259101
0.0258747
0.0258756
0.017205
0.0218219
0.0223453
0.0224572
0.0219128
0.0319263
0.0457701
0.0454393
0.0213664
0.0301562
0.0300778
0.0305923
0.0302796
0.0217075
0.0120855
0.011158
0.014302
0.0128829
0.0199575
0.0196421
0.0206009
0.0202792
0.0171579
0.0279348
0.020691
0.0209121
0.0202562
0.0298615
0.0297609
0.0300166
0.0299462
0.0205018
0.0211921
0.02091
0.0251502
0.0214058
0.0174292
0.00754915
0.0117288
0.0148704
0.00735862
0.01955
0.0146115
0.00356681
0.0251648
0.033947
0.0334824
0.0181937
0.00967329
0.00681801
0.00528035
0.0117337
0.0126706
0.0189751
0.0192067
0.0267027
0.0195493
0.00863913
0.00724512
0.0164733
0.00571606
0.00989722
0.0080948
0.00586087
0.00725947
0.0134607
0.0109841
0.0118235
0.0147577
0.0143014
0.038918
0.033982
0.0105865
0.0126168
0.0141087
0.0207975
0.0236071
0.0153087
0.0187619
0.0165922
0.0139786
0.00800704
0.0137098
0.0141266
0.00726635
0.0108013
0.0121035
0.0155787
0.014079
0.0144708
0.0116074
0.0122365
0.0151395
0.0147072
0.0143391
0.0108923
0.0141
0.0154646
0.0150877
0.0275403
0.0237642
0.0186919
0.0302614
0.0323055
0.0342463
0.0277896
0.0246985
0.0221393
0.0316704
0.0328182
0.024965
0.0291993
0.0215854
0.0242739
0.0340132
0.0342606
0.0333806
0.0337242
0.0236836
0.0210852
0.0315346
0.0311187
0.0153571
0.0156413
0.0168416
0.0151971
0.0151131
0.0158555
0.0168011
0.0166208
0.0184464
0.0288498
0.0277324
0.0306131
0.0298768
0.0197503
0.0139537
0.0144782
0.0179797
0.00909635
0.0134592
0.0134561
0.0158343
0.0135996
0.0136279
0.020465
0.0195051
0.0149373
0.049276
0.0444593
0.0749085
0.0657134
0.0436826
0.0614292
0.0856706
0.0818115
0.0415425
0.0380585
0.0377588
0.0267911
0.0334332
0.0572818
0.0493111
0.0468713
0.0365879
0.0438836
0.0446062
0.041007
0.042846
0.0357891
0.0283687
0.0295443
0.0382963
0.0316766
0.0308862
0.0330506
0.0327103
0.0356783
0.0316488
0.0301071
0.0281191
0.032324
0.0439333
0.0394469
0.0264411
0.0277673
0.0472021
0.0461409
0.028086
0.0275175
0.0293488
0.0286951
0.0558779
0.0553584
0.0348662
0.0376357
0.0568793
0.0563995
0.0510893
0.0504603
0.0299265
0.0313706
0.0522657
0.0516721
0.019348
0.0259477
0.0259221
0.0259276
0.0259639
0.0189879
0.0213845
0.0249765
0.0237186
0.0258245
0.0255725
0.0209145
0.0371952
0.0242722
0.0246805
0.0236166
0.0239335
0.0370512
0.0378119
0.0261592
0.0266658
0.0251313
0.0256193
0.037618
0.0355746
0.0218957
0.0221626
0.0214607
0.0216572
0.0353206
0.0365346
0.0230382
0.023319
0.0224394
0.022731
0.0363147
0.0248354
0.0245613
0.0600564
0.0410117
0.0413171
0.0403827
0.0407004
0.0595439
0.0254271
0.0251228
0.0229201
0.0225831
0.0486445
0.0333314
0.0368364
0.0271516
0.0275302
0.0425945
0.0578383
0.0396886
0.0400515
0.038491
0.0392386
0.0570252
0.0233707
0.0231556
0.0146906
0.0141895
0.0139432
0.0161809
0.0153959
0.0191632
0.0143543
0.0141756
0.0148354
0.0145613
0.0188486
0.0224236
0.0157585
0.0167131
0.0143013
0.0148778
0.0212177
0.0311055
0.0441603
0.0432628
0.0450953
0.0446987
0.0313827
0.0197419
0.0195762
0.0205522
0.0202778
0.0189667
0.0181389
0.022631
0.0337991
0.0315112
0.0415319
0.0382157
0.0269145
0.0246133
0.0194873
0.0204039
0.0243085
0.0344374
0.0210701
0.0212634
0.0206753
0.0208771
0.0338287
0.0217076
0.0214022
0.0230897
0.0227113
0.0136118
0.0158133
0.015337
0.0172233
0.0164488
0.0139064
0.013857
0.0135292
0.0148963
0.01434
0.00853295
0.0119817
0.0149775
0.0146463
0.0158606
0.0153795
0.0126244
0.0189881
0.0187909
0.0194123
0.0191952
0.02427
0.0261491
0.0355703
0.0182343
0.0179988
0.0186029
0.0184215
0.019366
0.029363
0.0291931
0.029643
0.0295106
0.0195769
0.0184911
0.0282803
0.0273161
0.0289909
0.028724
0.0187111
0.0125804
0.0326648
0.0308579
0.0225178
0.0128427
0.00951362
0.00948183
0.00651949
0.00928874
0.0124769
0.0156023
0.0127188
0.0141899
0.0138111
0.0263873
0.0184681
0.0187236
0.0104659
0.0107448
0.010288
0.013438
0.0130572
0.0069152
0.00707124
0.0143618
0.0110266
0.0133565
0.0156809
0.0173811
0.0232226
1.15485
1.15514
1.1555
1.15526
1.15575
1.1558
1.15594
1.15666
1.15626
1.15691
1.15771
1.15683
1.15795
1.12625
1.15732
1.11311
1.0994
1.15751
1.1054
1.15843
1.1573
1.15827
1.15761
1.15683
1.15737
1.15662
1.1563
1.1564
1.15578
1.15586
1.15435
1.15498
1.15506
1.15525
1.1563
1.1558
1.15672
1.11293
1.15691
1.05102
0.900464
1.15813
0.865112
0.79682
1.04837
0.785978
0.784917
1.02474
0.793961
0.848124
1.08556
0.874571
0.983022
1.158
1.0289
1.15789
1.15684
1.15746
1.15624
1.15583
1.1542
1.15544
1.15503
1.15598
1.09571
1.1566
1.00698
0.782265
1.02403
0.723437
0.587993
0.81502
0.555476
0.493984
0.715571
0.485243
0.491612
0.706602
0.503293
0.562057
0.771168
0.588624
0.691038
0.903357
0.732121
0.888747
1.11566
0.951851
1.15764
1.1565
1.15453
1.15665
1.15567
1.14129
0.84271
1.02396
0.756242
0.548575
0.714403
0.492221
0.357749
0.522692
0.32423
0.261834
0.428904
0.254285
0.26805
0.428466
0.282613
0.348171
0.501849
0.375318
0.475237
0.628995
0.514288
0.654393
0.822141
0.710032
0.912235
1.10156
1.15541
1.08554
1.15705
0.976253
0.688853
0.795524
0.610294
0.409565
0.504963
0.351567
0.20559
0.312556
0.170462
0.0910931
0.215817
0.0894608
0.122626
0.224405
0.140046
0.208316
0.306294
0.235924
0.331765
0.432636
0.368531
0.497529
0.608648
0.548312
0.729823
0.858922
1.15666
1.00285
1.05773
0.895039
0.635098
0.666017
0.562956
0.372255
0.389385
0.316606
0.144314
0.182406
0.128277
0.0752869
0.117942
0.0368266
0.0463566
0.0806006
0.0866953
0.116308
0.137095
0.163421
0.251051
0.306064
0.28489
0.403088
0.46871
0.449244
0.614056
0.694361
1.15809
0.98713
0.993345
0.889231
0.669858
0.636556
0.611659
0.467451
0.384205
0.351728
0.303686
0.281897
0.134488
0.113588
0.102587
0.061636
0.0881419
0.0938625
0.14463
0.21997
0.239198
0.24998
0.356769
0.38737
0.398742
0.549401
0.592685
1.15956
1.01109
0.990899
0.922777
0.74445
0.687341
0.701957
0.622582
0.5052
0.525361
0.508607
0.445972
0.438286
0.447254
0.362457
0.0799239
0.098846
0.0936478
0.154828
0.221714
0.217949
0.248822
0.346562
0.351289
0.385338
0.5247
0.539479
1.16102
1.04191
1.01915
0.958763
0.803204
0.762188
0.768785
0.72077
0.656185
0.692056
0.719598
0.679335
0.695197
0.526513
0.549614
0.108089
0.124437
0.114259
0.180982
0.244549
0.225687
0.270213
0.363006
0.348416
0.399777
0.531038
0.523741
1.16247
1.06294
1.04828
0.981185
0.823221
0.811824
0.785816
0.714741
0.728232
0.73551
0.763329
0.769843
0.592511
0.413032
0.43344
0.142196
0.160044
0.145826
0.219794
0.28497
0.252975
0.310686
0.402633
0.370715
0.438559
0.564434
0.537561
1.16391
1.07999
1.06685
0.997841
0.82167
0.823447
0.775046
0.66086
0.70225
0.669195
0.695607
0.698856
0.485365
0.31026
0.32902
0.173284
0.193594
0.182446
0.27719
0.348432
0.298249
0.375522
0.468901
0.416435
0.50449
0.626119
0.578099
1.1654
1.11341
1.08622
1.0301
0.836788
0.822456
0.781468
0.624916
0.647951
0.597702
0.552555
0.607951
0.397333
0.214683
0.232285
0.0503234
0.110854
0.0969329
0.278766
0.352328
0.27411
0.376107
0.451743
0.369587
0.479135
0.571507
0.49066
0.605923
0.721532
0.647832
1.16662
1.1683
1.12888
1.11818
0.917858
0.850626
0.861521
0.694281
0.630262
0.584129
0.518318
0.503344
0.202356
0.066293
0.0895108
0.110093
0.244764
0.216153
0.49008
0.54368
0.388767
0.561102
0.621224
0.486888
0.64462
0.724777
0.604353
0.755543
0.858139
0.752932
1.16756
1.16887
1.16849
1.16686
1.09358
0.95235
1.04115
0.919258
0.732378
0.788965
0.111341
0.182843
0.0339308
0.0818482
0.0702794
0.160326
0.434193
0.420977
0.517366
0.744131
0.612756
0.811234
0.887688
0.677737
0.896989
0.94472
0.772727
0.966429
1.04793
0.902113
1.16816
1.16882
1.16892
1.16629
1.13836
1.14419
1.11305
0.858986
0.926769
0.659839
0.079487
0.0999726
0.0298103
0.0953537
0.0854085
0.174636
0.446274
0.437796
0.530274
0.755279
0.747335
0.82089
0.977192
0.973107
1.01553
1.09666
1.01193
1.11461
1.14942
1.10724
1.16839
1.16807
1.1687
1.1647
1.12677
1.13587
1.09146
0.764226
0.835376
0.543842
0.0659976
0.0751596
0.0284576
0.107152
0.0984481
0.186506
0.452717
0.448337
0.538213
0.762933
0.757466
0.827359
0.980653
0.978239
1.01833
1.09817
1.09716
1.11584
1.15016
1.14969
1.16829
1.1666
1.16777
1.16204
1.11094
1.1232
1.06385
0.672525
0.740898
0.454516
0.0588761
0.0638108
0.0283337
0.11756
0.109874
0.1965
0.456252
0.453753
0.541567
0.768027
0.764434
0.831642
0.982572
0.981254
1.01974
1.09864
1.09837
1.11614
1.1502
1.15023
1.16787
1.16441
1.16612
1.15826
1.09127
1.10636
1.03148
0.591528
0.650817
0.393566
0.0547572
0.0576359
0.0288983
0.126804
0.119973
0.205032
0.458913
0.456968
0.542691
0.770386
0.768898
0.833977
0.98342
0.982872
1.0202
1.09843
1.09864
1.11583
1.14977
1.15013
1.16717
1.16147
1.16374
1.15335
1.06826
1.08582
0.995166
0.52935
0.574079
0.353347
0.0522998
0.0540193
0.0299004
0.13506
0.128954
0.2124
0.461091
0.459501
0.543161
0.769787
0.770494
0.833948
0.983371
0.983493
1.01993
1.09774
1.0983
1.11509
1.149
1.1496
1.16622
1.15779
1.16062
1.14728
1.04182
1.062
0.954287
0.485031
0.516833
0.325004
0.0508667
0.0518622
0.0312014
0.142474
0.136987
0.218828
0.462815
0.461563
0.543325
0.76723
0.769277
0.831677
0.982274
0.983206
1.0189
1.09668
1.09751
1.11403
1.14801
1.14877
1.16503
1.15331
1.15675
1.13998
1.01097
1.03456
0.909656
0.45243
0.475993
0.30408
0.0501169
0.0506247
0.0327158
0.149167
0.14421
0.224488
0.464127
0.46318
0.543223
0.76388
0.766435
0.828092
0.979953
0.981809
1.01695
1.09524
1.09636
1.11267
1.14684
1.14773
1.16359
1.14786
1.15205
1.1311
0.9764
1.00256
0.866548
0.427392
0.445571
0.288262
0.0498515
0.0500109
0.0343879
0.155242
0.15074
0.229517
0.465085
0.464397
0.542877
0.760294
0.762995
0.82398
0.976563
0.979192
1.01407
1.09336
1.09481
1.11098
1.1455
1.14652
1.16187
1.14111
1.14631
1.12009
0.941738
0.96759
0.828849
0.407675
0.422028
0.276138
0.0499472
0.0498453
0.0361795
0.160786
0.156674
0.234025
0.465755
0.465277
0.542325
0.756648
0.759385
0.81971
0.972469
0.975591
1.01046
1.09105
1.09282
1.10895
1.144
1.14514
1.15978
1.13272
1.13918
1.10676
0.90984
0.933445
0.796831
0.391904
0.403404
0.266768
0.0503233
0.0500174
0.0380648
0.165874
0.162098
0.238101
0.466195
0.465884
0.54161
0.752997
0.755735
0.815416
0.967987
0.971375
1.00638
1.08834
1.0904
1.1066
1.14235
1.1436
1.15722
1.12263
1.13035
1.0916
0.881462
0.902417
0.769524
0.379154
0.388464
0.259497
0.0509252
0.0504543
0.0400262
0.170572
0.167083
0.24182
0.46646
0.466276
0.540774
0.749365
0.752086
0.811151
0.96332
0.966832
1.00203
1.08534
1.08762
1.10399
1.14056
1.14191
1.15409
1.11118
1.11988
1.07545
0.856359
0.874896
0.745977
0.368761
0.376357
0.253852
0.051715
0.0511062
0.0420524
0.174936
0.171692
0.245242
0.466598
0.466505
0.539858
0.745773
0.748463
0.806942
0.958582
0.962139
0.997539
1.0821
1.08455
1.10117
1.13865
1.14009
1.15033
1.09885
1.10816
1.05905
0.834076
0.850541
0.725461
0.360231
0.36647
0.249479
0.0526657
0.0519385
0.0441368
0.179017
0.175981
0.248423
0.466648
0.466617
0.538897
0.742239
0.744883
0.802809
0.953842
0.957395
0.992987
1.07871
1.08127
1.09819
1.13664
1.13815
1.14594
1.08608
1.09568
1.0429
0.814182
0.828893
0.707427
0.353189
0.358343
0.246112
0.0537578
0.0529261
0.0462762
0.182858
0.179998
0.251406
0.466647
0.466651
0.537924
0.738783
0.741367
0.798768
0.94914
0.952661
0.98843
1.0752
1.07784
1.09509
1.13455
1.13613
1.14097
1.07321
1.08286
1.02725
0.796312
0.809537
0.691448
0.347341
0.351625
0.243542
0.0549772
0.0540512
0.0484704
0.186499
0.183785
0.254231
0.466625
0.466642
0.536966
0.735421
0.737932
0.794835
0.944507
0.947974
0.983904
1.07163
1.07432
1.09192
1.1324
1.13402
1.13551
1.06046
1.07
1.01223
0.780168
0.792125
0.677191
0.342456
0.346037
0.241605
0.0563133
0.0553006
0.0507213
0.189978
0.187383
0.256935
0.466609
0.466619
0.536048
0.732172
0.734598
0.791026
0.939964
0.943362
0.979436
1.06803
1.07073
1.08869
1.1302
1.13186
1.12964
1.04798
1.05731
0.997899
0.765499
0.776372
0.664381
0.338347
0.341363
0.240169
0.0577587
0.0566647
0.0530324
0.193325
0.190825
0.259547
0.466624
0.466609
0.535193
0.729052
0.731379
0.787355
0.935528
0.938844
0.975049
1.06441
1.06712
1.08543
1.12796
1.12965
1.12344
1.03582
1.0449
0.984242
0.752092
0.762036
0.652791
0.334861
0.337422
0.239124
0.0593077
0.0581365
0.0554089
0.196573
0.194146
0.262097
0.466691
0.466635
0.53442
0.726075
0.728293
0.783835
0.931216
0.934438
0.970759
1.06081
1.06351
1.08216
1.1257
1.1274
1.117
1.02404
1.03284
0.971236
0.739768
0.748916
0.642233
0.331871
0.334071
0.238381
0.0609563
0.0597107
0.0578573
0.19975
0.197373
0.264612
0.466831
0.466719
0.533748
0.723256
0.725355
0.78048
0.92704
0.930159
0.966582
1.05723
1.05991
1.07891
1.12341
1.12513
1.11039
1.01265
1.02116
0.95884
0.728373
0.736838
0.632546
0.329271
0.331188
0.237861
0.0627013
0.0613835
0.0603848
0.202882
0.200536
0.267116
0.467062
0.466879
0.533195
0.720608
0.722577
0.777301
0.923015
0.926019
0.962533
1.05371
1.05635
1.07568
1.12112
1.12284
1.10404
1.00217
1.00986
0.947555
0.718152
0.725654
0.623875
0.327018
0.328671
0.237512
0.064535
0.0631524
0.0629918
0.205971
0.203661
0.26961
0.467416
0.467136
0.532814
0.718268
0.719975
0.774465
0.919371
0.922034
0.958856
1.05048
1.05284
1.07271
1.11901
1.12055
0.296454
0.242643
0.264862
0.0599339
0.0525165
0.0567512
0.0449747
0.0444487
0.0528628
0.557666
0.585007
0.729532
0.0836207
0.077977
0.0827406
0.0583989
0.0640487
0.0673152
0.440314
0.461208
0.6319
0.117533
0.113691
0.118664
0.0848446
0.0902716
0.0951637
0.335301
0.354261
0.525848