/*--------------------------------*- C++ -*----------------------------------*\
| =========                 |                                                 |
| \\      /  F ield         | OpenFOAM: The Open Source CFD Toolbox           |
|  \\    /   O peration     | Version:  v1912                                 |
|   \\  /    A nd           | Website:  www.openfoam.com                      |
|    \\/     M anipulation  |                                                 |
\*---------------------------------------------------------------------------*/
FoamFile
{
    version     2.0;
    format      ascii;
    class       volScalarField;
    location    "1100";
    object      p;
}
// * * * * * * * * * * * * * * * * * * * * * * * * * * * * * * * * * * * * * //

dimensions      [0 2 -2 0 0 0 0];


internalField   nonuniform List<scalar> 
12556
(
658.483
657.688
655.724
651.622
646.123
633.869
613.977
582.257
534.348
465.231
370.975
251.188
111.425
-36.6775
-179.056
-304.385
-406.934
-486.198
-544.516
-585.65
-619.816
-635.79
-644.989
-649.314
658.959
658.442
657.082
654.027
648.533
638.067
620.337
593.992
550.717
486.505
396.119
277.378
134.691
-19.5103
-168.741
-299.602
-405.646
-486.702
-553.713
-592.391
-625.968
-640.121
-648.142
-651.887
660.177
660.289
660.276
659.464
655.554
649.247
637.181
615.312
579.684
522.42
434.764
309.782
149.728
-27.0161
-194.684
-334.365
-440.737
-517.099
-579.513
-611.653
-640.365
-650.558
-656.081
-658.626
661.591
662.591
664.439
666.739
665.621
665.391
661.799
648.552
626.499
583.851
505.644
373.395
180.203
-43.4808
-245.577
-397.969
-502.078
-569.104
-619.52
-640.852
-661.233
-665.707
-667.66
-668.482
662.243
664.248
668.199
674.09
676.84
684.144
691.705
691.609
690.179
674.462
623.594
493.277
237.555
-85.4777
-346.357
-510.113
-598.233
-642.205
-672.414
-678.235
-685.752
-682.973
-680.594
-679.327
661.159
664.168
670.216
679.749
687.044
702.313
721.86
737.839
764.438
792.967
805.885
727.803
353.775
-211.525
-553.91
-690.258
-731.219
-735.953
-734.418
-719.905
-710.782
-699.813
-692.685
-689.146
657.421
661.307
669.179
681.903
693.85
716.323
746.757
778.721
833.169
913.14
1037.93
1215.94
710.572
-662.39
-951.061
-951.805
-898.034
-841.641
-797.565
-760.395
-732.504
-713.418
-701.676
-695.943
650.197
654.723
663.905
678.91
694.959
722.705
760.83
804.967
877.827
988.73
1178.93
1587.45
-2055.27
-1569.94
-1261.95
-1068.51
-940.907
-851.189
-792.542
-746.613
-720.751
-705.217
-697.68
638.855
643.708
653.536
669.674
688.813
719.199
760.699
810.792
887.911
994.711
1136.76
1272.68
-3488.18
-2078.57
-1501.19
-1192.79
-1009.16
-882.987
-809.038
-749.259
-719.131
-701.248
-692.579
623.051
627.893
637.663
653.715
674.688
705.032
745.87
796.352
868.153
958.494
1058.67
1136.89
-3408.05
-2146.16
-1556.3
-1224.89
-1025.4
-883.9
-804.813
-737.983
-706.86
-688.455
-679.5
602.76
607.271
616.325
631.17
652.702
680.718
717.799
764.925
827.849
904.533
989.377
1068.58
-2633.52
-1854.39
-1426.84
-1157.89
-984.59
-851.72
-778.868
-712.489
-683.656
-666.55
-658.159
578.243
582.143
589.937
602.697
623.622
647.513
678.609
719.854
772.197
837.756
919.442
1020.69
-1758.07
-1407.97
-1186.2
-1019.43
-898.072
-791.925
-733.855
-674.522
-650.605
-636.26
-629.136
550.04
553.135
559.267
569.179
588.485
607.022
630.629
663.872
702.993
753.776
826.246
945.782
-775.025
-916.985
-957.854
-915.109
-849.534
-785.735
-714.454
-675.243
-627.359
-609.812
-599.11
-593.708
518.827
521.052
525.402
532.321
549.315
561.887
577.025
600.796
623.641
651.363
688.519
784.898
224.557
-390.039
-603.533
-673.848
-682.912
-667.464
-630.007
-609.434
-574.662
-563.884
-557.1
-553.59
485.429
486.697
489.101
492.759
506.83
512.967
519.215
532.535
537.525
536.916
520.124
456.225
179.606
-169.441
-381.038
-490.666
-540.311
-557.396
-547.03
-542.168
-519.954
-515.44
-512.316
-510.623
450.675
451.015
451.549
452.135
463.231
463.551
461.903
465.437
455.374
433.356
386.849
294.833
125.635
-88.0188
-254.903
-364.127
-428.111
-462.577
-470.63
-477.422
-465.951
-466.659
-466.645
-466.536
415.393
414.917
413.825
411.764
419.975
415.343
407.294
402.974
382.335
347.772
293.268
208.375
88.8913
-55.4703
-181.053
-276.103
-341.428
-383.284
-403.079
-417.615
-414.521
-419.225
-421.649
-422.769
380.335
379.184
376.767
372.578
378.218
369.79
357.149
347.31
320.812
281.827
228.293
155.498
64.8492
-40.2926
-136.575
-215.884
-276.104
-319.253
-344.963
-363.884
-366.81
-374.257
-378.45
-380.455
346.114
344.443
341.017
335.252
338.764
327.715
312.193
298.988
270.14
231.13
181.839
120.296
48.5227
-32.078
-107.832
-173.553
-226.844
-267.924
-295.69
-316.528
-323.337
-332.439
-337.759
-340.382
313.203
311.165
307.042
300.23
302.081
289.457
272.462
257.564
228.6
191.697
147.526
95.4498
37.022
-26.9803
-87.9728
-142.65
-188.99
-226.559
-254.074
-275.182
-284.23
-294.111
-300.036
-302.993
281.939
279.676
275.138
267.739
268.364
255.014
237.599
222.188
194.404
160.522
121.413
77.1368
28.6735
-23.4112
-73.43
-119.231
-159.244
-192.862
-218.867
-239.217
-249.297
-259.326
-265.453
-268.536
252.536
250.167
245.449
237.839
237.615
224.183
207.085
191.938
166.023
135.454
101.022
63.1842
22.4664
-20.6563
-62.2524
-100.875
-135.342
-165.051
-188.932
-207.94
-218.22
-227.964
-234.004
-237.061
225.099
222.721
218.01
210.477
209.716
196.661
180.364
165.966
142.239
114.964
84.7472
52.2717
17.7627
-18.3714
-53.317
-86.0668
-115.737
-141.792
-163.311
-180.688
-190.622
-199.806
-205.565
-208.491
199.646
197.334
192.769
185.527
184.471
172.105
156.906
143.539
122.106
97.956
71.5059
43.5523
14.1424
-16.3809
-45.9449
-73.8249
-99.3577
-122.088
-141.222
-156.861
-166.118
-174.58
-179.936
-182.666
176.132
173.939
169.622
162.816
161.653
150.172
136.237
124.053
104.894
83.64
60.5534
36.4602
11.32
-14.5913
-39.7092
-63.4978
-85.4537
-105.199
-122.035
-135.941
-144.331
-151.992
-156.878
-159.373
154.463
152.426
148.425
142.152
141.02
130.538
117.942
107.005
90.0386
71.438
51.3596
30.6015
9.09498
-12.9502
-34.3289
-54.6361
-73.4847
-90.5637
-105.242
-117.482
-124.915
-131.75
-136.134
-138.376
134.512
132.656
129.014
123.332
122.334
112.905
101.666
91.9872
77.0966
60.9193
43.5394
25.6944
7.3233
-11.4267
-29.6123
-46.9216
-63.054
-77.7549
-90.4358
-101.109
-107.552
-113.569
-117.447
-119.432
116.129
114.467
111.211
106.149
105.361
97.0016
87.1009
78.6595
65.7158
51.7524
36.8042
21.5307
5.89875
-10.0012
-25.4221
-40.1206
-53.8614
-66.4366
-77.2815
-86.4967
-91.9537
-97.1815
-100.564
-102.295
99.1506
97.6906
94.8328
90.402
89.8802
82.5812
73.9803
66.7402
55.6141
43.6787
30.9341
17.9535
4.74185
-8.6604
-21.657
-34.0567
-45.6752
-56.3428
-65.5016
-73.3691
-77.8617
-82.3393
-85.244
-86.7312
83.4082
82.1527
79.6963
75.8963
75.6842
69.4225
62.0726
55.9906
46.56
36.4909
25.7562
14.8409
3.79174
-7.39372
-18.2385
-28.5921
-38.3103
-47.2557
-54.8629
-61.4855
-65.0436
-68.8127
-71.2625
-72.5165
68.7219
67.6715
65.616
62.4408
62.5774
57.3249
51.1753
46.2066
38.3613
30.0195
21.1323
12.0965
3.0011
-6.1924
-15.1039
-23.6156
-31.6161
-38.9948
-45.1669
-50.6362
-53.2855
-56.3856
-58.4027
-59.4345
54.9433
54.094
52.434
49.8728
50.3819
46.1065
41.1089
37.2125
30.856
24.1241
16.9491
9.64217
2.3325
-5.04851
-12.2015
-19.0358
-25.4671
-31.4075
-36.2416
-40.6361
-42.4089
-44.8771
-46.4842
-47.3066
41.8105
41.1669
39.9036
37.9564
38.9103
35.5995
31.7126
28.8535
23.9035
18.6837
13.1106
7.41242
1.75559
-3.9542
-9.4869
-14.7747
-19.7558
-24.3616
-27.9353
-31.3179
-32.1858
-34.0452
-35.2562
-35.8729
29.4629
28.9994
28.1099
26.7445
28.0591
25.6541
22.8418
20.9939
17.3821
13.5933
9.53304
5.35073
1.24565
-2.90131
-6.92114
-10.7649
-14.3893
-17.7417
-20.1136
-22.539
-22.6318
-23.9253
-24.7703
-25.21
16.687
16.4718
16.002
15.2801
17.4972
16.1122
14.3563
13.5145
11.1837
8.75592
6.13809
3.4043
0.783453
-1.87987
-4.46836
-6.94646
-9.28577
-11.4451
-12.6446
-14.1455
-12.9298
-13.6233
-14.0745
-14.2804
7.5378
7.35085
7.12077
6.70383
7.64228
6.74157
6.01994
6.3177
5.21308
4.07367
2.85017
1.50122
0.365448
-0.874684
-2.09344
-3.26404
-4.37186
-5.38412
-5.3164
-5.97654
-5.7145
-6.08241
-6.28989
-6.46258
1304.87
-3700.03
-2146.24
1147.39
-3706.48
-3786.94
1075.28
-2862.64
-3626.28
1027.35
-1915.58
-2742.58
953.092
-831.323
-864.796
-1034.24
-1799.92
811.371
312.877
-787.214
177.659
-403.357
-938.356
1588.21
871.811
-1839.22
-488.516
-4613.26
-2476.85
-3402.46
-2193.39
-1675.59
1077.47
1139.57
1262.41
-5216.87
-5311.86
-3473.17
-2395.56
-2301.35
1006.09
1065.78
1128.37
1107.61
1131.32
1169.32
-3977.82
-4663.6
-2741.75
-2109.93
-2359.23
938.088
1013.18
1058.71
1050.81
1088.54
1098.16
-2685.04
-3238.82
853.206
940.979
1005.93
992.124
1055.65
1074.95
-1571.9
-1499.53
-2008.96
726.728
799.56
929.074
900.24
1000.91
1021.06
522.883
284.637
321.568
1549.3
1268.63
2180.09
1618.93
-5304.58
-4684.61
-3234
-4495.29
-5161.92
1172.82
1191.48
1185.69
1189.15
1176.51
1250.36
1192.08
-4703.06
-5197.14
-3794.94
-5077.24
-4618.38
-5170.67
-5095.82
-3814.23
1100.71
1126.08
1098.67
1129.35
1102.84
1174.5
1132.25
-3319.78
-3925
-3213.34
-3828.72
-3249.88
-4579.13
-3919.22
-3325.5
1076.55
1088.36
1045.24
1091.54
1080.64
1101.36
1091.41
-2082.91
-2607.94
1023.42
1054.13
986.556
-1535.22
1059.55
1027.99
1079.01
1061.22
-1570.06
-973.535
-1429.07
-1527.98
1035.37
1001.1
889.707
-62.5594
1007.91
921.156
1025.99
1007.31
-139.457
1155.38
1290.63
1501.95
1479.76
1610.59
2060.31
-5266.72
-2708.04
1202.6
1195.69
1264.3
-3205.76
-1865.84
-1608.23
-1995.47
-1941.55
-1878.37
-2139.56
-191.372
-480.329
-840.12
1282.99
1548.79
1431.78
1229.39
2977.86
2154.59
-2404.96
-4330.39
-3004.73
-2181.19
-2468.56
-2267.8
-2562.88
-2054.34
-3172.12
-2637.57
-2386.53
-1161.31
-342.659
-481.312
1423.59
1794.59
2200.45
-2081.36
-312.114
1233.83
-5402.42
-3932.08
-5292.41
-2649.4
-5113.79
-3609.74
-5278.56
-5287.74
-4307.03
-4353.68
-2849.01
-3144.9
-2918.51
-3122.21
-2823.55
-3491.96
-3167.59
-2997.78
1064.34
1036.67
1026.23
-1548.83
-1795.79
-1872.67
1007.11
968.072
953.081
986.653
972.762
1008.11
1428.65
1250.02
1387.84
1269.99
1469.6
1178.49
1251.27
1349.2
1969.2
2141.41
2832.23
1519.54
2039.37
1875.49
2036.71
1487.14
-5130.04
-5093.62
1182.86
1180.78
1182.3
1213.7
1164.94
1178.17
1177.29
1165.97
1206.21
-4943.68
-4973.8
-4882.27
-4330.69
-4424.2
-4142.59
-4289.76
-4851.96
-5171.34
-4469.96
-4408.17
-4445.05
-4473.92
-5162.5
1114.11
1112.15
1157.19
1153.76
-3568.25
-3523.44
-3614.35
1087.44
1086.36
1093.86
1093.26
-2778.86
-2488.51
-2380.68
-2508.93
-2800.55
1033.68
1004.71
991.103
1022.34
1009.39
1037.02
-1207.49
1041.08
1037.32
1069.11
1068.45
-1882.1
-1206.65
-1221.38
-1466.95
946.799
923.878
995.466
1009.51
471.692
157.565
1014.43
-336.785
110.904
-254.42
1014.12
-392.065
-282.12
78.8794
-2990.52
-2069.5
-2207.37
560.507
536.831
764.996
656.925
660.318
956.219
196.604
-123.365
-296.365
3958.9
-2238.65
-2387.89
-900.848
-1139.71
-1161.26
-140.81
-378.066
-118.69
2320.32
2551.19
3016.91
-2212.6
-67.6245
1769.94
-5258.07
-5757.95
-5720.93
-5314.99
-4117.47
-4303.98
-4130.32
-4912.11
-4776.78
-4538.01
1091.21
1076.11
1070.04
1086.26
1078.41
1092.26
1048.94
1039.87
1065.34
1001.97
982.505
977.688
858.871
594.719
341.793
-5245.91
-5699.54
-5773.77
-4944.02
-4101.8
-3762.33
-4369.27
-4186.38
-4974.42
-4813.7
-5076.17
-4959.44
-5113.43
1109.4
1099.17
1089.24
1108.14
1110.09
1106.22
-4076.4
-3924.21
-3790.66
-3571.9
-3333.98
-3548.08
-4285.91
-3897.63
-4085.44
-3619.81
-3830.12
-4240.73
1082.97
1059.47
1051.83
1068.09
1061.85
1084.05
1091.25
1104.8
1101.23
1092.87
1103.71
1084.88
1097.7
1101.9
1106.9
1099.64
1096.85
1091.38
-2305.83
-2448.37
-2176.58
-1401.48
-1395.27
1053.87
1023.86
1073.62
1081.23
1092.07
1083.62
1064.02
-1699.54
913.932
912.853
875.646
975.795
968.023
998.081
124.257
373.064
133.721
1008.67
443.843
673.437
507.861
626.399
1015.28
1011.99
-4561.76
-3149.48
-4177.88
-3320.25
-3375.07
-1900.38
-2027.21
-2046.06
1203.81
1193.2
2683.9
2968.67
3631.25
2760.24
2552.63
-2540.56
-2391.87
-2343.83
-2400.13
-2559.43
-1178.39
-1012.61
-1018.8
-1020.08
-1183.23
-810.899
-969.318
-590.345
-606.445
-761.91
-400.407
-553.752
-493.239
-5631.98
-4971.21
-4483.63
-5407.4
-5103.97
-4292.92
-3601.04
-4283.76
-5612.98
-5572.9
-5262.36
-5310.46
-5698.12
-5634.43
-4514.64
-4357.4
-4165.99
-4411.14
-4580.37
-4186.56
-4361.81
-4623.12
-4492.87
-4733.31
-4562.52
-2978.13
-3029.94
-2998.96
-2915.88
-3038.03
-3351.78
-3250.59
-3380.82
-3079.19
-3207.45
-3302.85
-1752.31
-1726.21
-1855.72
989.193
984.504
999.295
1009.64
996.308
991.657
1329.11
1306.57
1332.12
1404.1
1333.8
1539.23
1432.97
1358.3
1205.8
1255.15
1225.04
1314.56
1267.78
1216.8
1694.87
1733.66
1581.3
1744.74
1664.43
-5640.55
-5672.32
-5220.69
-5796.9
-5796.43
-5792.42
-5634.1
-5495.74
-5803.77
-5666.73
-4951.43
-5480.34
-5626.07
1178.19
1182.72
1184.87
1183.97
1183.19
1180.5
1190.57
1191.9
1186.98
1189.63
1167.21
1198.14
1189.97
1218.19
1202.04
1167.67
1174.99
1185.12
1183.88
1188.3
1185.86
1175.74
-5211.36
-5112.47
-4848.23
-5076.9
-5348.73
-5235.25
1123
1117.93
1133.13
1123.73
1111.08
1110.3
1115.37
1111.01
1178.89
1167.47
1191.1
1182.43
1146.9
1135.59
1163.54
1151.43
-3594.55
-3730.06
-3424.17
-3552.54
-3649.02
-3972.84
-4127.42
-3775.96
-3924.63
1097.48
1103.72
1090.6
1109.19
1099.92
1104.1
1110.99
1099.31
1084.84
1103.3
1096.26
1100.05
1100.75
1096.33
1104.35
1103.5
1108.94
1104.09
1097.59
1101.67
1098.45
1097.12
1091.64
1096.6
1098.37
-2569.29
-2635.2
-2697.19
-2556.86
-2743.93
-2675.2
-1193.89
-1352.64
-1386.59
-1190.45
1051.96
1028.66
1078.25
1079.31
1072.09
1065.53
1085.61
1079.51
-1773
994.157
964.254
956.581
652.355
552.237
1007.85
243.817
414.927
299.557
1011.92
-489.94
-50.0665
181.599
-94.0432
998.545
-1798.91
-1469.88
-925.504
-2194.34
-2246.79
-1046.08
-1079.72
-1472.79
-2257.3
-974.038
-966.668
-814.428
-1983.04
-1518.72
-1459.42
3018.47
3375.02
3964.42
-1961.91
292.742
2416.34
-1070.79
-616.103
-2071.22
-4292.03
-4864.44
-5171.13
1148.82
1135.14
1120.32
1154.61
1140.19
1154.6
-1552.39
-1682.44
-1700.37
-2096.03
-1854.68
-1787.89
1004.82
999.036
1012.33
-5261.8
-5433.03
-4907.31
1115.61
1102.95
1112.98
1122.07
1123.97
1132.78
1135.27
1145.7
1141.04
1023.26
1012.04
1007.42
-1550.53
-1504.85
-1493.54
1032.59
1037.43
1029.58
-1632.81
-1647.64
-1559.61
-1391.53
-1377.46
-1509.3
1009.61
1024.35
1031.19
1031.04
1003.52
-5132.53
-3237.55
-1920.29
-1979.26
-1986.98
-2188.92
-2057.49
-2017.09
1214.02
-3618.03
-3092.8
-3659.36
-2303.6
-2361.21
-2228.02
-817.878
-833.169
-664.307
-665.278
-760.904
-1090.68
-446.113
-2229
-5455.72
-5207.67
-5033.38
-5745.53
-5685.14
-2892
-2922.05
-2876.17
-3161.21
-3152.53
-3125.8
-2750.34
-2872.18
-2951.86
-3459.95
-3410.08
-3454.24
-1864.78
-1841.54
-1871.6
1385.03
1416.91
1269.64
1289.47
1315.12
1294.99
1180.42
1199.24
1193.9
1276.41
1260.2
1235.98
1991.3
1793.91
1769.38
1931.43
1890.25
2031.91
1462.46
1504.93
1537.3
1177.74
1179.73
1189.26
1180.93
1181.77
1182.04
1201.97
1204.2
1191.53
1190.84
1167.28
1174.52
1173.08
1190.12
1186.02
1175.28
1173.51
1176.99
1178.94
1173.11
1174.94
1170.22
1117.06
1122.36
1119.75
1107.7
1110.67
1114.99
1164.87
1175.36
1165.51
1176.77
1172.41
1205.31
1201.73
1136.77
1168.01
1163.63
1144.48
1149.73
1161.18
-3747.63
-3799.87
-3495.03
-3542.22
-3567.22
-3852.09
-3873.5
-3741.8
-3876.67
-3735.4
1021.13
1014.65
1025.5
1046.29
1030.91
1024.27
1044.82
1050.15
1045.22
1034.14
1037.71
1040.66
-1879.79
968.328
968.03
974.568
739.23
976.472
343.239
488.398
615.251
1020.46
1017.53
1013.52
-395.249
-250.04
-223.933
-237.571
1011.64
1018.27
1020.93
-126.989
-201.124
-350.583
-2108.89
-2143.34
-2232.11
-2185.88
-2165.49
3785.6
4408.8
3472.89
-2286.5
-2314.47
-2245.34
-2406.04
-2354.49
-2341.13
-1052.38
-149.978
-2035.05
-5499.72
-5506.47
-5456.21
-5476.4
-5746.17
-5611.31
-5618.92
-5592.32
-5603.27
-5735.08
-4872.67
-4796.02
-4838.02
-4702.31
-4752.41
-4828.73
-5746.16
-5589.2
-5556.7
-5623.76
-5615.01
-5774.88
-5033.84
-4956.27
-4994.48
-4880.58
-4919.04
-4999.56
-5423.5
-5441.29
-5351.24
-5388.95
1104.15
1099.48
1099.6
1093.94
1090.85
1089.17
1095.29
1093.44
1097.62
-1507.97
-1560.44
-1393.62
-1464.32
1064.16
1065.43
1065.99
1063.44
1024.24
1027.42
1037.19
1021.23
1084.49
1082.15
1079.56
1087.68
1085.23
1088.87
1073.62
1072.19
1076.69
1061.1
1066.83
-1709
-1700.27
-1687.83
-1564.43
943.276
1003.22
1158.14
1000.18
989.751
987.237
1010.63
378.035
358.05
1143.49
1010.09
770.221
1016.34
1025.76
1020.68
1006.22
-4805.76
-5087.59
-4889.84
-3960.97
-3741.99
-2891.87
-4607.09
-4301.1
-3275.48
-3403.39
-2041.32
-2028.09
-2038.56
1208.48
1175.24
3206.41
3090.99
2909.16
2272.45
2138.67
2703.1
2457.85
2538.13
-2467.32
-2412.61
-2507.34
-1031.78
-1031.95
-1021.55
-1126.79
-847.14
-831.77
-818.306
-962.051
-912.257
-904.138
-591.04
-649.396
-649.27
-474.806
-475.784
-520.442
-5484.89
-5361.04
-5550.91
-5311.91
-5540.48
-5625.81
-5658.02
-5604.26
-5588.93
-5494.41
-5509.73
-5494.53
-5482
-5570.41
-5672.56
-5558.44
-5576.74
-5526.34
-5542
-5653.76
-4465.53
-4392.96
-4441.49
-4463.43
-4525.78
-4237.33
-4261.93
-4227.53
-4310.47
-4673.61
-4713.78
-4678.71
-4593.8
-4649.13
-4490.27
-4541.85
-4618.51
-3015.07
-2941.8
-2927.6
-2956
-2890.69
-2941.7
-3082.36
-3109.52
-3058.76
-3315.51
-3357.31
-3386.32
1354.32
1286.8
1222.41
1208.18
1188.01
1225.77
1246.91
1234.87
1703.84
1782.75
1834.96
2021.05
1907
1595.12
1559.3
1629.36
-5650.88
-5479.38
-5460.92
-5522.79
-5499.14
-5663.22
-5804.41
-5796.54
-5606.57
-5779.28
-5784.54
-5727.05
-5772.7
-5566.52
-5789.93
-5805.34
-5850.03
-5726.13
1179.95
1181.3
1178.9
1182.04
1181.71
1181.04
1196.67
1199.23
1191.89
1194.22
1176.48
1175.61
1167.95
1170.73
1181.63
1178.26
1177.37
1176.6
1172.9
1173.92
1176.79
1177.65
-5182.13
-5097.49
-5127.17
-5029.29
-5063.22
-5144.37
-5305.4
-5231.59
-5301.68
-5154.38
-5185.79
-5266.68
1121.92
1123.02
1123.13
1118.95
1121.74
1120.23
1128.78
1126.21
1133.64
1122.17
1122.23
1125.29
1111.21
1112.82
1111.82
1112.92
1113.26
1111
1113.2
1112.8
1115.53
1110.73
1110.91
1111.66
1185.91
1181.36
1175.22
1178.53
1182.53
1170.18
1174.34
1171.37
1195.28
1190.11
1150.99
1147.84
1142.96
1145.68
1148.84
1137.99
1133.31
1137.02
1159.56
1161.84
1166.02
1153.56
1157.69
1155.52
1159.52
1155.42
-3678.54
-3706.99
-3621.99
-3592.51
-3627.36
-4018.47
-4049.94
-4009.61
-4164.41
-4100.67
-4069.08
-3818.23
-3854.36
-3820.9
-3964.57
-3919.97
-3872.08
1098.75
1095.46
1094.07
1098.84
1097.25
1101.16
1104.76
1101.3
1106.78
1109.16
1100.75
1091.56
1088.26
1089.18
1093.02
1092.54
1092.18
1097.8
1093.86
1096.46
1106.71
1104.49
1107.21
1109.01
1111.18
1106.65
1107.68
1105.81
1098.35
1099.67
1096.38
1096.59
-2652.99
-2634.47
-2684.02
-2544.79
-2589.77
-2624.24
-2806.42
-2841.59
-2726.51
-2739.76
-2751.26
-1322.73
-1323.05
-1379.14
-1200.56
-1256.58
-1270.42
1054.76
1047.53
1065.76
1062.15
1034.12
1034.46
1030.76
1037.03
1036.39
1042.77
1039.84
1077.98
1076.13
1076
1077.82
1076.73
1078.32
1084.27
1078.11
1077.36
1076.43
1077.29
1081.85
-1822.34
983.07
980.176
992.511
607.886
632.182
704.769
561.134
571.188
544.531
1008.94
347.176
291.698
219.621
1012.05
1013.78
1011.77
-467.004
43.4073
-21.3248
161.282
150.228
161.367
-42.1792
-170.103
-155.363
-51.4319
1008.55
1017.72
1011.35
608.837
582.251
563.06
570.853
528.854
504.499
511.287
448.158
420.873
422.536
333.767
308.936
299.311
186.089
171.209
144.741
18.137
18.3287
-24.8798
-147.661
-133.563
-186.714
-291.855
-269.76
-323.691
-406.005
-382.069
-430.074
-490.492
-468.967
639.209
621.232
590.38
613.118
580.318
539.343
565.855
508.788
460.147
484.239
391.362
344.848
353.484
220.437
192.45
170.699
14.2971
17.5101
-37.8715
-184.91
-154.642
-229.36
-345.545
-302.398
-378.547
-461.021
-417.022
-483.565
-539.104
-500.34
680.2
675.702
633.512
672.827
657.35
597.158
649.001
608.901
529.572
588.718
498.226
412.4
455.784
287.543
233.316
219.554
0.731474
12.3357
-70.8447
-261.242
-199.21
-314.376
-442.191
-364.775
-475.681
-552.398
-479.844
-571.067
-611.979
-555.283
726.438
740.974
691.506
745.755
758.695
680.544
761.619
760.153
641.571
753.674
694.139
536.563
652.635
425.922
312.814
315.698
-51.9531
-6.4383
-164.86
-425.078
-290.81
-487.177
-613.018
-476.791
-638.269
-685.437
-581.615
-694.374
-708.84
-633.966
769.567
803.942
757.444
817.523
866.003
786.107
885.326
954.184
806.425
980.317
1053.55
765.47
1060.26
777.669
483.169
646.866
-298.591
-83.0159
-488.024
-788.584
-491.034
-829.745
-877.39
-668.976
-878.661
-863.137
-725.831
-854.429
-825.05
-736.589
800.251
849.79
817.632
869.823
944.857
889.912
976.506
1104.26
1001.1
1163.7
1500.69
1173.42
1402.7
1558.79
1172.13
996.891
-119.542
129.854
-965.707
-1017.43
-797.93
-1405.57
-1233.98
-960.517
-1185.27
-1062.12
-912.694
-1027.91
-942.047
-855.105
811.357
866.652
856.878
888.581
967.298
955.971
998.646
1111.57
1119.19
1179.98
1247.36
1250.43
1564.36
1653.87
1689.87
-2775.86
-2294.02
-1828.07
-1987.82
-1557.44
-1325.35
-1455.93
-1227.02
-1109.34
-1169.1
-1032.57
-968.406
801.74
854.92
866.156
875.329
944.301
964.756
969.754
1050.65
1098.51
1116.89
1149.71
1175.89
1245.6
1247.94
1276.8
-3602.73
-2938.41
-2803.19
-2170.86
-1679.98
-1611.09
-1561.71
-1294.13
-1254.75
-1226.62
-1068.39
-1047.4
774.222
821.596
848.34
839.487
898.139
934.363
919.182
984.519
1034.01
1040.57
1062.17
1081.61
1126.82
1135.68
1150.18
-3152.94
-2705.43
-2853.2
-1949.12
-1570.41
-1672.15
-1473.01
-1242.96
-1292
-1182.81
-1038.42
-1066.93
732.285
772.236
810.614
787.425
837.477
884.262
855.829
916.193
968.028
972.691
994.078
1010.26
1062.34
1073.63
1081.81
-2304
-2078.24
-2324.75
-1524.96
-1312.03
-1515.61
-1252.16
-1100.74
-1214.22
-1058.59
-952.583
-1021.4
678.776
709.58
757.745
721.492
761.454
820.04
776.684
830.922
897.212
899.506
924.787
942.939
1013.61
1031.86
1041.21
-1439.93
-1432.08
-1609.91
-1064.5
-1004.42
-1236.25
-981.948
-914.4
-1056.39
-892.851
-833.132
-924.832
616.472
635.916
692.072
643.365
667.994
739.699
677.305
711.453
804.785
796.409
818.096
864.59
929.316
961.573
976.627
-512.482
-593.763
-822.916
-491.199
-650.567
-959.156
-679.706
-724.191
-929.514
-729.241
-727.205
-866.297
-722.849
-703.981
-800.889
549.604
556.563
617.339
558.833
564.082
643.934
564.972
563.374
677.598
645.788
652.855
717.597
741.835
746.14
829.324
251.784
19.5493
-86.7872
-205.556
-383.694
-568.333
-425.413
-511.876
-664.095
-530.693
-566.48
-683.905
-573.154
-582.898
-672.423
481.905
477.608
536.495
475.222
463.65
538.048
457.612
429.61
527.007
416.084
353.978
475.608
325.197
191.608
266.382
137.899
-46.2359
-94.2523
-101.634
-242.661
-339.729
-280.624
-369.047
-470.27
-391.3
-441.319
-531.8
-453.351
-478.949
-555.114
418.006
405.184
458.716
399.539
377
440.574
367.18
329.139
401.484
313.491
250.171
322.653
225.874
131.001
172.852
96.6441
-23.358
-37.8681
-61.301
-165.521
-218.711
-195.994
-273.644
-341.775
-295.078
-347.252
-415.413
-361.014
-393.289
-456.011
360.531
342.521
388.55
335.119
307.756
358.095
296.708
257.545
308.914
242.478
186.093
231.365
166.65
94.9132
120.332
69.9845
-15.6401
-20.6292
-43.1955
-121.8
-152.334
-145.841
-210.192
-255.296
-228.936
-277.169
-327.585
-290.715
-324.573
-374.55
310.386
289.934
328.461
281.881
253.52
292.928
242.61
205.802
243.052
192.117
143.656
173.908
127.922
71.3805
88.126
52.066
-12.7267
-14.6453
-33.7452
-94.8267
-113.891
-113.992
-166.904
-197.852
-182.865
-225.475
-262.779
-237.934
-270.343
-309.809
267.306
246.268
278.238
238.23
210.863
241.894
200.68
167.365
195.142
155.213
113.91
135.263
100.937
55.1002
66.7651
39.5507
-11.4496
-12.3156
-28.0703
-76.8088
-89.6767
-92.3361
-136.058
-158.244
-149.553
-186.487
-214.714
-197.584
-227.257
-258.66
230.504
210.01
236.568
202.353
176.913
201.656
167.672
138.015
159.302
127.326
92.1146
107.846
81.24
43.3535
51.8127
30.5283
-10.7228
-11.2386
-24.2079
-63.9222
-73.2055
-76.6922
-113.119
-129.711
-124.536
-156.324
-178.239
-166.058
-192.596
-217.91
199.056
179.74
201.932
172.645
149.497
169.517
141.241
115.039
131.755
105.682
75.5791
87.5645
66.3458
34.6047
40.9292
23.8569
-10.1503
-10.5735
-21.2914
-54.1698
-61.2443
-64.8023
-95.3943
-108.277
-105.084
-132.39
-149.836
-140.864
-164.292
-185.008
172.089
154.27
172.964
147.81
127.034
143.468
119.724
96.6654
110.069
88.4962
62.681
72.0616
54.7669
27.926
32.7685
18.8234
-9.58777
-10.0115
-18.91
-46.446
-52.0797
-55.3832
-81.2454
-91.5702
-89.4969
-112.951
-127.162
-120.3
-140.826
-158.037
148.838
132.649
148.537
126.84
108.369
122.049
101.929
81.6973
92.6417
74.5769
52.3875
59.8949
45.561
22.7246
26.5053
14.9632
-8.98901
-9.44219
-16.8569
-40.1045
-44.7497
-47.6678
-69.6389
-78.1366
-76.6845
-96.8367
-108.648
-103.195
-121.088
-135.592
128.668
114.129
127.753
108.956
92.6528
104.191
87.0011
69.3048
78.3843
63.1088
44.0143
50.1356
38.1045
18.6061
21.6058
11.9629
-8.34647
-8.83235
-15.0232
-34.7507
-38.6852
-41.1788
-59.9019
-67.0501
-65.9273
-83.2396
-93.2271
-88.7299
-104.266
-116.648
111.053
98.1248
109.912
93.5574
79.2556
89.1069
74.3158
58.8949
66.5357
53.5161
37.0894
42.1623
31.9674
15.2977
17.7118
9.60385
-7.66711
-8.17967
-13.3485
-30.1312
-33.5347
-35.6054
-51.5795
-57.703
-56.7332
-71.5895
-80.1629
-76.3189
-89.7574
-100.453
95.5628
84.1735
94.4605
80.1733
67.7059
76.2107
63.4107
50.0355
56.5489
45.3828
31.2781
35.543
26.8443
12.6055
14.5731
7.73005
-6.96235
-7.49284
-11.7977
-26.0768
-29.0699
-30.7375
-44.3553
-49.6807
-48.7566
-61.4749
-68.9305
-65.5351
-77.1079
-86.4458
81.8423
71.9049
80.9615
68.4313
57.6423
65.0629
53.9327
42.4032
48.0232
38.3994
26.3353
29.969
22.5113
10.388
12.0113
6.22709
-6.24355
-6.78355
-10.3493
-22.4689
-25.1368
-26.4264
-38.0002
-42.6925
-41.7457
-52.5885
-59.1484
-56.0572
-65.9674
-74.2017
69.5956
61.019
69.064
58.033
48.7824
55.3239
45.6067
35.7504
40.6563
32.3306
22.077
25.2126
18.8
8.53921
9.8947
5.00958
-5.52044
-6.06282
-8.98829
-19.221
-21.626
-22.5631
-32.3434
-36.5261
-35.5117
-44.6954
-50.5298
-47.6381
-56.0603
-63.3914
58.5748
51.2709
58.4841
48.7364
40.9009
46.7281
38.2146
29.8841
34.2167
26.9938
18.3622
21.1022
15.5811
6.97851
8.12475
4.01266
-4.80066
-5.33993
-7.70393
-16.2671
-18.4572
-19.0643
-27.2537
-31.0223
-29.9085
-37.6118
-42.855
-40.0832
-47.166
-53.7556
48.5678
42.4551
48.9869
40.34
33.8134
39.0611
31.5782
24.6491
28.5216
22.2428
15.0792
17.5048
12.7526
5.6429
6.62565
3.18599
-4.08967
-4.62192
-6.48703
-13.5551
-15.5683
-15.8639
-22.6259
-26.0571
-24.8192
-31.1886
-35.9494
-33.2339
-39.1018
-45.0836
39.3925
34.3987
40.3761
32.6753
27.3671
32.1472
25.5508
19.9188
23.4236
17.9591
12.1382
14.3151
10.2323
4.48239
5.33809
2.48997
-3.39111
-3.91376
-5.32953
-11.0419
-12.9097
-12.9079
-18.3741
-21.5307
-20.148
-25.3028
-29.6711
-26.9594
-31.7155
-37.2012
30.889
26.9517
32.4852
25.5967
21.4311
25.8399
20.0071
15.5864
18.8022
14.0426
9.46422
11.4474
7.95197
3.45613
4.21467
1.89266
-2.70691
-3.21868
-4.22355
-8.69096
-10.4403
-10.1501
-14.4258
-17.3612
-15.8139
-19.85
-23.9028
-21.1478
-24.8758
-29.9621
22.9174
19.9845
25.1697
18.9782
15.8923
20.0133
14.8385
11.5595
14.5544
10.4073
6.99282
8.82974
5.85328
2.53014
3.21643
1.36802
-2.03738
-2.53819
-3.16115
-6.46991
-8.12472
-7.55063
-10.7183
-13.4786
-11.7472
-14.7404
-18.5437
-15.7032
-18.4693
-23.2398
15.3539
13.3825
18.3039
12.7083
10.6487
14.5576
9.94662
7.75346
10.5905
6.97389
4.66472
6.39965
3.88308
1.67584
2.31084
0.895239
-1.38027
-1.87211
-2.13294
-4.34883
-5.93141
-5.07281
-7.19601
-9.8224
-7.88612
-9.89484
-13.5071
-10.541
-12.3953
-16.9245
8.09855
7.04921
11.7773
6.69102
5.60499
9.37268
5.23747
4.08575
6.82685
3.66588
2.41755
4.09799
1.98586
0.873276
1.4708
0.462356
-0.72933
-1.21727
-1.12723
-2.29969
-3.83083
-2.68322
-3.80951
-6.33845
-4.17614
-5.24431
-8.71644
-5.58779
-6.56965
-10.9186
1.41211
1.18666
5.49507
1.11252
0.873564
4.36059
0.785903
0.493381
3.17928
0.396722
0.463338
1.84711
0.413354
-0.0159536
0.685136
-0.0812362
-0.231968
-0.563065
-0.288089
-0.463202
-1.79293
-0.522904
-0.703159
-2.97643
-0.763364
-0.943938
-4.10232
-1.00425
-1.19747
-5.13861
1312.69
1356.71
1342.53
-3579.98
-3982.22
-4169.41
-2251.52
-2627.78
-2451.51
1155.09
1169.63
1158.76
-3776.05
-4137.59
-4006.46
-4208.13
-4282.24
-3844.55
1085.02
1095.12
1082.49
-2981.16
-3189.55
-2986.6
-3953.24
-3782.77
-3534.21
1044.36
1052.37
1033.62
-2031.64
-2090.78
-1966.67
-2859.85
-2728.54
-2623.73
981.42
995.602
967.31
-880.141
-873.303
-825.749
-877.169
-963.563
-955.535
-1349.36
-1383.38
-992.172
-1843.14
-1720.3
-1685.02
854.586
893.926
846.454
185.531
444.054
581.966
-767.093
-614.656
-666.131
57.8885
-14.5288
115.632
-595.104
-444.215
-216.471
-869.607
-538.779
-668.548
2074.16
1712.25
1467.38
3800.09
4209.1
4742.56
1138.43
1593.08
1320.12
1108.84
2624.94
-1549.46
-1525.92
-1875.4
-42.1
-393.536
-880.003
-4503.65
-4675.63
-4776.87
-2560.9
-3043.03
-2874.39
-2745.13
-2417.39
-2975.02
-2048.48
-2274.52
-2453.58
-1800.12
-2051.97
-1872.45
1102.55
1125.21
1096.95
1180.3
1150.14
1114.73
1211.72
1166.49
1197.27
-5234.68
-5364.93
-5346.11
-5460.17
-5458.24
-5315.57
-2902.71
-2934.32
-3594.36
-2400.57
-2684.69
-2667.97
-2581.61
-2657.68
-2370.16
1026.77
1043.98
1023.09
1089.55
1061.97
1038.18
1101.55
1073.14
1098.46
1116.24
1130.6
1117.03
1136.98
1133.26
1127.98
1163.99
1159.62
1165.05
-4019.89
-4076.6
-4027.19
-4747.04
-4705.32
-4623.08
-2413.64
-2628.55
-3054.95
-2211.54
-2419.71
-2293.17
-2613.75
-2528.66
-2296.21
960.919
977.792
955.714
1032.98
997.273
975.413
1028.23
1006.98
1039.26
1064.27
1071
1056.45
1089.06
1082.67
1081.52
1094.43
1091.86
1095.63
-2762.63
-2813.48
-2733.15
-3345.1
-3217.97
-3158.05
878.327
913.508
877.724
972.507
927.007
892.254
964.812
937.131
981.552
1017.29
1028.32
1006.09
1059.45
1047.6
1041.19
1064.4
1061.49
1070.18
-1566.87
-1614.1
-1623.55
-1716.38
-1774.82
-1535.75
-2037.42
-1961.3
-1935.39
741.614
799.98
762.653
867.902
813.617
752.499
878.811
832.029
886.053
938.623
956.288
920.884
999.991
994.465
993.527
1015.39
1013.14
1018.66
401.265
580.312
616.607
325.433
541.297
379.574
557.869
520.973
365.75
1487.02
1448.54
1549.44
1237.77
1269.17
1290.55
2130.61
2255.73
2325.68
1615.26
1707.31
1697.72
-5290.52
-5446.27
-5457.99
-4862.53
-4941.68
-4775.04
-3571.7
-3901.04
-3424.96
-4634.09
-4353.7
-4215.91
-4824.13
-4780.31
-5100.53
1180.31
1172.47
1159.18
1193.77
1177.17
1182.41
1171.31
1175.24
1189.07
1186.76
1184.19
1185.75
1187.1
1187.43
1179.43
1235.32
1211.79
1230.3