/*--------------------------------*- C++ -*----------------------------------*\
| =========                 |                                                 |
| \\      /  F ield         | OpenFOAM: The Open Source CFD Toolbox           |
|  \\    /   O peration     | Version:  v1912                                 |
|   \\  /    A nd           | Website:  www.openfoam.com                      |
|    \\/     M anipulation  |                                                 |
\*---------------------------------------------------------------------------*/
FoamFile
{
    version     2.0;
    format      ascii;
    class       surfaceScalarField;
    location    "1100";
    object      phi;
}
// * * * * * * * * * * * * * * * * * * * * * * * * * * * * * * * * * * * * * //

dimensions      [0 3 -1 0 0 0 0];
oriented        oriented;


internalField   nonuniform List<scalar> 
25162
(
0.000433017
0.916217
0.000532081
0.916601
0.000620627
0.916561
0.000298576
0.916595
0.000376863
0.458339
0.000309803
0.458311
0.000376159
-0.000387359
-0.000474798
0.458291
0.000534096
-0.000592993
0.458239
0.000688622
-0.000791815
0.458219
0.000902672
-0.00102963
0.4582
0.00116513
-0.0013
0.458202
0.00143266
-0.00156092
0.458232
0.00166039
-0.00173577
0.458292
0.00177716
-0.00177893
0.458369
0.00174527
-0.00168038
0.458426
0.00158483
-0.00147654
0.458454
0.00135763
-0.00122454
0.458456
0.00110323
-0.000982233
0.458464
0.000832927
-0.000786122
0.458435
0.000700683
-0.000578049
0.458451
0.000476719
-0.00179834
0.918586
0.000281803
-0.000419001
-0.00112455
0.918676
-2.50277e-05
0.91575
0.913775
0.00119524
0.915022
0.00188748
0.915909
0.00213023
0.916319
0.000594131
0.917138
0.000993638
0.458091
0.000707249
-0.458204
-0.458193
-0.00086076
0.458
0.00105392
-0.458062
-0.00129369
0.45777
0.00074502
0.000840451
-0.228982
-0.000897956
0.228895
0.000984999
-0.00130046
-0.22893
0.228816
0.00141456
-0.0018094
-0.228887
0.22874
0.00195597
-0.00240249
-0.228882
0.228724
0.00255994
-0.00297606
-0.22893
0.228794
0.00311164
-0.00338825
-0.229045
0.228976
0.00345724
-0.00350078
-0.229194
0.229208
0.00348676
-0.00328282
-0.229312
0.229398
0.00319733
-0.00283554
-0.229381
0.229506
0.00271042
-0.00229245
-0.22939
0.229523
0.00216012
-0.00176923
-0.22937
0.229483
0.00165708
-0.458794
-0.00245089
0.460126
0.00111879
0.000103536
0.460813
-0.00171623
-0.4592
-0.001959
0.9179
0.000745586
0.00189935
-0.00118934
0.917907
0.000264337
0.914297
0.914039
0.00151823
0.913504
0.00405766
0.913369
0.0068433
0.913533
0.00278928
0.914955
0.0062365
-0.458066
0.457911
0.00294333
-0.457837
-0.00290339
0.458512
0.00222847
-0.457377
-0.00227903
0.457187
0.00119783
0.00127063
-0.228525
-0.00148147
0.228364
0.00164226
-0.228311
-0.00222064
0.228085
0.00244626
-0.22812
-0.00321591
0.22784
0.00349588
-0.228056
-0.00441331
0.227741
0.00472814
-0.22824
-0.00563307
0.227978
0.00589526
-0.228721
-0.00651504
0.228596
0.00664031
-0.229343
-0.00675193
0.229406
0.00668904
-0.229863
-0.00627845
0.230068
0.00607398
-0.230125
-0.00532981
0.230405
0.00504925
-0.230149
-0.00420909
0.230429
0.00392947
-0.00286575
-0.23008
0.230697
0.00224935
-0.462618
0.000973795
0.461279
0.000365258
-0.459814
-0.000649876
0.459685
0.000779686
-0.000319027
0.919383
-0.000744983
-0.000419051
0.00134408
0.916243
0.000630503
0.91501
0.91467
0.00052726
0.912976
0.00114319
0.912753
0.00233843
0.912338
0.00313054
0.912057
0.00210629
-0.457177
0.456764
0.00354319
-0.460087
-0.00472256
0.457078
0.00773248
-0.458708
-0.00894428
0.460317
0.00198334
0.00535211
-0.227773
-0.00193188
0.227592
0.00211284
-0.227258
-0.00292746
0.226932
0.00325313
-0.226752
-0.00441334
0.226309
0.00485697
-0.226515
-0.00631684
0.225987
0.00684442
-0.226872
-0.00844754
0.226372
0.00894785
-0.228054
-0.0101546
0.227803
0.0104057
-0.229664
-0.0105926
0.229794
0.0104628
-0.230936
-0.00962312
0.231324
0.00923443
-0.231498
-0.00788986
0.231991
0.00739715
-0.233804
-0.00119433
0.237679
-0.0026808
-0.0028116
-0.231371
0.231308
0.00287468
-0.461066
-0.00436968
0.462047
0.00338855
-0.460268
-0.00236925
0.461099
0.00153845
0.00243761
0.919036
-0.00114911
-0.000942181
0.00177753
0.916904
0.000826228
0.915962
0.915496
0.000158125
0.912818
0.000362336
0.912549
0.000708408
0.911992
0.00127063
0.911031
0.000463359
-0.456512
0.455739
0.00204392
-0.455692
-0.00243643
0.455103
0.00302474
-0.454285
-0.0038334
0.453577
0.0024081
0.00213308
-0.228301
-0.00420584
0.226464
0.00604316
-0.22658
-0.00919922
0.228366
0.00741297
-0.224759
-0.00522625
0.224236
0.00574973
-0.223964
-0.00789941
0.223117
0.00874653
-0.224275
-0.0115569
0.22331
0.0125223
-0.226725
-0.0149644
0.226213
0.0154772
-0.230411
-0.015699
0.230905
0.0152042
-0.23297
-0.0121303
0.233892
0.0112084
-0.241299
-0.00116985
0.238037
0.00443163
-0.233199
-0.00650666
0.233725
0.00598042
-0.00440328
-0.232451
0.232899
0.00395589
-0.463462
-0.00516139
0.464794
0.0038288
-0.461862
-0.0029099
0.462645
0.0021264
0.00322139
0.920573
-0.00275422
-0.00200407
0.00178587
0.918339
0.00081568
0.916932
0.916312
-9.44547e-05
0.912913
-9.73469e-05
0.912552
0.000129663
0.911765
0.000286012
0.91059
0.000284438
-0.454874
0.454589
0.000571238
-0.454633
-0.00150961
0.453901
0.0022418
-0.45283
-0.00274637
0.451876
0.00181897
0.00188126
-0.225289
-0.00229169
0.225042
0.00253895
-0.223674
-0.00359412
0.223216
0.00405238
-0.223881
-0.00782731
0.221578
0.0101302
-0.221595
-0.0141706
0.222232
0.0135336
-0.219652
-0.0169711
0.21934
0.017283
-0.223882
-0.0223673
0.222841
0.0234091
-0.234657
-0.0205651
0.235104
0.0201175
-0.243572
-0.0103178
0.241371
0.0125187
-0.236954
-0.0117712
0.238108
0.0106172
-0.235856
-0.00760223
0.236762
0.00669637
-0.0040078
-0.23468
0.235159
0.0035287
-0.465924
-0.00546819
0.467073
0.00431865
-0.463044
-0.00348672
0.463404
0.00312654
0.00272489
0.922478
-0.00226571
-0.00236434
0.00151189
0.919552
0.000624833
0.917819
0.916937
-0.00047527
0.913388
-0.000824474
0.912901
-0.00102899
0.911969
2.24155e-05
0.910245
-0.000706375
-0.454459
0.454171
0.0003103
-0.452881
-0.000534719
0.45253
0.000884757
-0.451545
-0.00182807
0.451172
0.00105047
0.00115121
-0.22425
-0.0014164
0.224036
0.00163017
-0.222164
-0.00251349
0.221738
0.00293942
-0.218819
-0.00420804
0.218269
0.00475765
-0.215377
-0.00800603
0.213192
0.0101914
-0.213847
-0.0230172
0.108963
0.103501
0.0101671
0.0142325
-0.0179799
-0.108768
0.108148
0.0185999
-0.0149201
-0.24415
0.028657
-0.0151891
0.122363
0.123239
-0.0217775
-0.244036
0.246854
0.0189601
-0.242665
-0.0117934
0.244165
0.0102938
-0.239382
-0.00742051
0.240262
0.00654087
-0.00438399
-0.236599
0.237173
0.00381088
-0.468229
-0.00481235
0.468872
0.00416914
-0.464219
-0.00314842
0.465037
0.00233032
0.00165933
0.923916
-0.00144522
-0.001652
0.000789543
0.920422
0.000298913
0.91831
0.917235
-0.000869163
0.914257
-0.00168584
0.913718
-0.00230805
0.912591
-0.00116453
0.910804
-0.00170204
-0.45413
0.454134
-0.00116877
-0.452376
0.00121584
0.452278
-0.00111734
-0.449894
0.00095801
0.449612
-0.000291574
-0.000383783
-0.223549
-0.000281058
0.223448
0.000381294
-0.220949
-0.000558437
0.22103
0.000476888
-0.217111
-0.000782839
0.216867
0.00102752
-0.210487
-0.00190786
0.210244
0.00215155
-0.0987601
-0.00168528
0.0989779
0.00146745
-0.0233156
-0.132545
0.134986
0.020875
-0.0214123
-0.256486
0.259776
0.0181223
-0.248916
-0.0113366
0.250492
0.00976055
-0.243211
-0.0063166
0.244088
0.00543956
-0.00339246
-0.238831
0.2393
0.00292375
-0.469916
-0.00311795
0.470783
0.00225069
-0.465708
-0.00163085
0.46629
0.00104832
-0.000115321
0.924635
-5.95386e-05
-0.000544319
-0.000292347
0.920599
-0.000193348
0.918211
0.917042
-0.00125308
0.91551
-0.00243205
0.914897
-0.00367487
0.913834
-0.00212012
0.911886
-0.0026372
-0.454311
0.454487
-0.00229662
-0.452346
0.00249592
0.452531
-0.00268141
-0.449497
0.00284789
0.449647
-0.00139771
-0.00160034
-0.223632
0.00165788
0.223667
-0.00169355
-0.220926
0.00184223
0.220984
-0.00190012
-0.216809
0.00215527
0.216947
-0.00229383
-0.211005
0.0030416
0.211461
-0.0034975
-0.102498
0.00302321
0.102883
-0.0034079
-0.010566
-0.147846
0.148634
0.00977788
-0.0100671
-0.267592
0.269125
0.00853356
-0.254337
-0.00515044
0.255136
0.00435121
-0.245948
-0.00252333
0.246316
0.00215513
-0.00122556
-0.240374
0.240615
0.000984917
-0.471928
-0.000624322
0.472894
-0.00034143
-0.466592
0.000796634
0.466792
-0.0009971
-0.00229119
0.924215
0.00155536
0.0011564
-0.00164041
0.919948
-0.000858423
0.917429
0.916184
-0.00159971
0.91711
-0.00330501
0.916602
-0.00493211
0.915461
-0.00306598
0.913604
-0.00358396
-0.454845
0.455203
-0.00342356
-0.452788
0.00382934
0.453259
-0.00430001
-0.449958
0.00473858
0.450524
-0.00247895
-0.00282515
-0.223959
0.00294722
0.224102
-0.00308985
-0.221393
0.00360809
0.221597
-0.00381129
-0.217623
0.00452158
0.217912
-0.00481096
-0.212828
0.00586628
0.213249
-0.00628776
-0.104254
0.00378124
0.104361
-0.00193563
-0.00195258
0.00554657
-0.148024
0.147298
-0.00482066
0.00515366
-0.270034
0.269241
-0.00436019
-0.255799
0.00294573
0.255528
-0.00267481
-0.246787
0.00212254
0.246658
-0.00199332
0.00166342
-0.240833
0.240764
-0.00159428
-0.472926
0.00313427
0.472534
-0.00274158
-0.466664
0.00269587
0.467075
-0.0031069
-0.0047177
0.922602
0.00342798
0.00290283
-0.00311067
0.918341
-0.00158085
0.915899
0.914603
-0.00203322
0.919143
-0.00404892
0.918618
-0.00618915
0.917602
-0.00398106
0.91587
-0.00447428
-0.455736
0.456266
-0.00451177
-0.453793
0.00515924
0.454379
-0.00574554
-0.451433
0.00642836
0.452575
-0.00369596
-0.00387435
-0.224682
0.00409236
0.224915
-0.00432558
-0.222355
0.00512338
0.222651
-0.00541952
-0.218897
0.0064189
0.219262
-0.0067847
-0.21443
0.00794531
0.214812
-0.00832815
-0.104951
0.00459691
0.105005
-0.00231388
-0.0023362
0.0148792
-0.140235
0.139069
-0.0137134
0.0168691
-0.264512
0.262325
-0.0146821
-0.253355
0.00999654
0.252273
-0.00891413
-0.24558
0.00654736
0.244943
-0.00590984
0.00452128
-0.240068
0.239759
-0.00421194
-0.47183
0.00676056
0.470853
-0.00578298
-0.467366
0.00491032
0.466579
-0.0041229
-0.0069749
0.920003
0.00494823
0.00462555
-0.00454667
0.915913
-0.00223869
0.913591
0.912364
-0.00242964
0.921573
-0.00486775
0.921056
-0.00742415
0.920158
-0.00480236
0.918455
-0.00520633
-0.456953
0.457637
-0.00548699
-0.455162
0.00624915
0.455979
-0.00706661
-0.453688
0.00795138
0.454958
-0.0045362
-0.0046855
-0.225719
0.00505711
0.226021
-0.00535876
-0.223661
0.00635944
0.224039
-0.00673717
-0.220485
0.00797433
0.220938
-0.00842773
-0.216057
0.00986072
0.216532
-0.0103367
-0.105355
0.00571061
0.105417
-0.00286882
-0.00290432
0.018424
-0.131016
0.129842
-0.0172504
0.0226924
-0.255251
0.252858
-0.0202987
-0.248435
0.0145925
0.24702
-0.0131779
-0.242444
0.00977819
0.24141
-0.00874408
0.00674508
-0.238166
0.237546
-0.00612586
-0.469642
0.00982171
0.468206
-0.00838504
-0.465727
0.0071324
0.464667
-0.00607189
-0.00902464
0.918101
0.00571117
0.00521551
-0.00580926
0.912697
-0.00281769
0.910599
0.909546
-0.00646313
0.928036
-0.0130882
0.927681
-0.0197915
0.926861
-0.00572799
0.925562
-0.0211701
-0.458398
0.459268
-0.00659747
-0.456825
0.00750186
0.457846
-0.00852372
-0.456162
0.00952057
0.457033
-0.00515138
-0.00524061
-0.226993
0.0057979
0.227333
-0.0061376
-0.225256
0.00729138
0.225688
-0.00772421
-0.22244
0.00918952
0.222986
-0.00973587
-0.21827
0.0115872
0.218967
-0.00610493
-0.00617853
-0.0531382
0.00355488
0.0531699
-0.00358652
-0.0579253
0.00664984
0.0574391
-0.0129716
0.00680785
0.0171052
-0.122739
0.242182
-0.0307183
0.0168413
-0.122672
-0.246147
0.0233489
0.243731
-0.020933
-0.24224
0.0161107
0.240765
-0.0146364
-0.238609
0.011255
0.237683
-0.0103289
0.00802381
-0.235539
0.234896
-0.00738081
-0.466451
0.0119024
0.464694
-0.0101448
-0.463562
0.00884454
0.462361
-0.00764384
-0.0106437
0.915014
0.00713359
0.00659645
-0.00684561
0.908899
-0.00336979
0.907123
0.906177
-0.0028984
0.930934
-0.00587638
0.930659
-0.00901329
0.929998
-0.00612796
0.928971
-0.00629514
-0.462059
0.46296
-0.00702836
-0.460668
0.00801118
0.461723
-0.0090658
-0.458877
0.0102113
0.460136
-0.00569797
-0.0057719
-0.228467
0.00637757
0.228841
-0.00675138
-0.227122
0.00800265
0.227595
-0.00847546
-0.22491
0.0101089
0.225542
-0.0107403
-0.221874
0.0130182
0.222819
-0.00695685
-0.00700668
-0.0546475
0.00887377
0.109687
-0.054565
-0.00464655
-0.00470198
-0.111514
0.00933512
0.111463
-0.0183852
0.00910163
0.03061
-0.235901
0.234064
-0.0287735
-0.237719
0.0194921
0.236446
-0.0182188
-0.237396
0.0149762
0.236837
-0.0144178
-0.235168
0.0112136
0.234536
-0.0105823
0.00836014
-0.233052
0.232492
-0.00779991
-0.463192
0.012668
0.461891
-0.0113674
-0.461145
0.0100929
0.459687
-0.00863507
-0.0100236
0.911147
0.00688453
0.00700674
-0.00750214
0.906378
-0.00366904
0.90329
0.902508
-0.00304568
0.93398
-0.00617241
0.933786
-0.0094565
0.933282
-0.00645451
0.932519
-0.00654981
-0.463919
0.464873
-0.00740904
-0.462804
0.00843528
0.463897
-0.00952886
-0.461414
0.0107089
0.4627
-0.00598204
-0.006013
-0.229983
0.00668831
0.230365
-0.00706948
-0.229028
0.00833014
0.229497
-0.00879919
-0.227472
0.0104319
0.228102
-0.0110612
-0.225751
0.0133146
0.226664
-0.0142276
-0.112733
0.0175934
0.223803
-0.0168787
-0.111784
-0.22572
0.0228614
0.226299
-0.0234408
-0.230677
0.0229336
0.23004
-0.0222969
-0.232696
0.0197333
0.231752
-0.0187886
-0.232691
0.015982
0.2318
-0.0150907
-0.231735
0.012621
0.230986
-0.0118711
0.00984087
-0.232117
0.22988
-0.00760337
-0.46078
0.0143628
0.458003
-0.0115857
-0.458185
0.0104113
0.456439
-0.0086652
-0.0103797
0.907379
0.00713864
0.00700925
-0.00753745
0.903536
-0.0038641
0.899617
0.898644
-0.00311734
0.937097
-0.00631085
0.936979
-0.00964867
0.93662
-0.00659824
0.936098
-0.00662894
-0.465847
0.466816
-0.00756705
-0.464992
0.00859454
0.466078
-0.00967995
-0.463976
0.010841
0.465227
-0.00604953
-0.00604235
-0.231488
0.00673616
0.231852
-0.00709945
-0.230848
0.00828153
0.231276
-0.00870962
-0.229864
0.0101343
0.230397
-0.0106676
-0.228953
0.0124244
0.229581
-0.0130523
-0.221708
0.0147155
0.221135
-0.0141427
-0.227594
0.0174329
0.227911
-0.0177499
-0.228868
0.0177695
0.228627
-0.0175289
-0.229614
0.0162818
0.229082
-0.0157499
-0.22957
0.0139856
0.228958
-0.0133733
-0.228998
0.011563
0.228418
-0.010983
0.00934446
-0.228208
0.2277
-0.00883577
-0.457592
0.0148087
0.455202
-0.0124187
-0.453841
0.00929447
0.452528
-0.00798156
-0.00958653
0.902129
0.00767628
0.00716003
-0.00512527
0.899074
-0.00392069
0.898412
0.894723
-0.00311961
0.940217
-0.00630638
0.940166
-0.00961689
0.939931
-0.00657812
0.93961
-0.00655134
-0.467771
0.468723
-0.00753018
-0.467143
0.00852472
0.468182
-0.0095637
-0.46644
0.0106618
0.467606
-0.00593058
-0.00589689
-0.232893
0.00656614
0.233222
-0.00689455
-0.232472
0.00793648
0.232839
-0.00830307
-0.231803
0.00946613
0.232211
-0.00987398
-0.231156
0.0111362
0.231592
-0.0115729
-0.219869
0.0122847
0.219584
-0.0119991
-0.22861
0.0140833
0.22878
-0.0142527
-0.228136
0.0143096
0.228022
-0.014195
-0.227849
0.0135088
0.227531
-0.0131904
-0.227443
0.0120597
0.227027
-0.0116442
-0.226905
0.0103495
0.22647
-0.00991445
0.00863741
-0.226335
0.225921
-0.00822325
-0.451806
0.0139839
0.450355
-0.0125328
-0.451203
0.0111435
0.449866
-0.00980654
-0.00882065
0.895963
0.00839822
0.00658836
-0.0047559
0.89501
-0.00356795
0.897224
0.891155
-0.00306337
0.94328
-0.00618213
0.943285
-0.00939916
0.943148
-0.0064216
0.942983
-0.00635031
-0.469636
0.470548
-0.00733352
-0.469187
0.0082714
0.470155
-0.00923916
-0.468718
0.0102482
0.469771
-0.00567753
-0.00562403
-0.234145
0.00624571
0.234431
-0.00653218
-0.23384
0.0074165
0.234141
-0.00771811
-0.233276
0.00863698
0.233584
-0.00894503
-0.232693
0.0098644
0.233001
-0.0101721
-0.219058
0.0104025
0.218974
-0.0103191
-0.229157
0.0117271
0.229249
-0.011819
-0.227759
0.0118459
0.227689
-0.0117763
-0.226766
0.0113479
0.22656
-0.0111421
-0.225986
0.0103816
0.225696
-0.0100913
-0.225338
0.0091522
0.225011
-0.00882524
0.00783272
-0.22482
0.224487
-0.0074992
-0.449011
0.0129194
0.447769
-0.0116775
-0.44862
0.010462
0.447426
-0.00926828
-0.0117583
0.891709
0.00791736
0.00809477
-0.00772181
0.890973
-0.000987707
0.89049
0.890167
-0.00296026
0.94624
-0.00596298
0.946288
-0.00903726
0.946222
-0.00616168
0.946166
-0.00605856
-0.471401
0.472258
-0.00701809
-0.471081
0.00788564
0.471965
-0.00876957
-0.470764
0.00967842
0.471698
-0.00533945
-0.00527212
-0.235227
0.00583695
0.235472
-0.00608202
-0.234958
0.00681967
0.235202
-0.00706437
-0.234391
0.0077866
0.234626
-0.00802143
-0.233782
0.00870722
0.234002
-0.00892692
-0.218931
0.00892432
0.218972
-0.00896504
-0.229453
0.00994797
0.229502
-0.00999697
-0.227513
0.00999352
0.227462
-0.00994248
-0.226047
0.00964395
0.225904
-0.00950043
-0.224956
0.00896044
0.224745
-0.00874979
-0.224154
0.00805077
0.223905
-0.00780113
0.00702323
-0.223604
0.223335
-0.00675433
-0.446624
0.011763
0.445571
-0.0107095
-0.446327
0.0096583
0.445275
-0.00860726
-0.011023
0.887835
0.0073456
0.00755198
-0.00727407
0.887224
-0.00361054
0.886827
0.886557
-0.00282258
0.949063
-0.00567499
0.94914
-0.00857373
0.949121
-0.00583072
0.94913
-0.00570726
-0.473044
0.473837
-0.00662334
-0.472804
0.00741498
0.473601
-0.00821179
-0.472572
0.00902023
0.473389
-0.00495478
-0.00488269
-0.236149
0.00538557
0.236357
-0.00559338
-0.235864
0.00620531
0.236062
-0.0064036
-0.235246
0.00697533
0.235429
-0.00715763
-0.234561
0.00768161
0.234718
-0.00783886
-0.219212
0.00773238
0.219323
-0.00784302
-0.229607
0.00854191
0.229631
-0.0085657
-0.227324
0.00854022
0.227282
-0.00849807
-0.225534
0.00827162
0.225427
-0.00816486
-0.224197
0.0077619
0.224039
-0.0076031
-0.223244
0.00706771
0.22305
-0.00687315
0.00625486
-0.222624
0.222405
-0.00603635
-0.444601
0.0106084
0.443709
-0.00971622
-0.444314
0.00881126
0.443394
-0.00789216
-0.0101951
0.884342
0.00673507
0.00695238
-0.00675778
0.883787
-0.0033636
0.883433
0.883193
-0.00266213
0.951725
-0.00534268
0.95182
-0.00804742
0.951825
-0.00545785
0.951864
-0.00532296
-0.474553
0.475279
-0.00618392
-0.474354
0.00689982
0.475066
-0.00761235
-0.474152
0.00832649
0.474864
-0.00455492
-0.00448352
-0.23693
0.00492631
0.237106
-0.00510222
-0.236599
0.00561067
0.236761
-0.00577232
-0.235915
0.00623092
0.236059
-0.00637545
-0.235117
0.00678403
0.235229
-0.00689583
-0.219716
0.00675266
0.219862
-0.00689863
-0.229677
0.00740079
0.229685
-0.0074091
-0.227164
0.00736883
0.227127
-0.00733172
-0.225145
0.00714898
0.225061
-0.0070653
-0.223619
0.00675149
0.223495
-0.00662755
-0.22253
0.00620596
0.222375
-0.00605101
0.00555141
-0.221825
0.221646
-0.00537183
-0.442887
0.00951062
0.44213
-0.00875285
-0.442557
0.00797372
0.441755
-0.00717188
-0.00933564
0.881216
0.00612292
0.00633932
-0.00621209
0.880663
-0.00309945
0.88032
0.880094
-0.00248865
0.954214
-0.00498596
0.954318
-0.0074891
0.954329
-0.00506447
0.954366
-0.00492689
-0.475927
0.476587
-0.00572468
-0.475738
0.00636831
0.476372
-0.00700245
-0.475528
0.00763116
0.476147
-0.00415916
-0.00409115
-0.237591
0.00447917
0.237741
-0.00462837
-0.2372
0.00505302
0.237333
-0.00518605
-0.236449
0.00555952
0.236566
-0.00567649
-0.235511
0.00599992
0.23559
-0.00607834
-0.220326
0.00593279
0.220486
-0.00609296
-0.229694
0.00645526
0.229692
-0.00645373
-0.227021
0.00640393
0.226987
-0.00637013
-0.224835
0.00621621
0.224767
-0.00614792
-0.223162
0.00589486
0.223062
-0.00579524
-0.221956
0.005455
0.22183
-0.00532907
0.00491881
-0.221167
0.221018
-0.00476945
-0.44143
0.00849415
0.440783
-0.00784731
-0.441025
0.00717491
0.440326
-0.0064753
-0.00848567
0.878428
0.00553385
0.00573973
-0.00566527
0.877843
-0.00283253
0.877487
0.877261
-0.00231093
0.956525
-0.00462258
0.956629
-0.00692561
0.956632
-0.00467037
0.956646
-0.00453499
-0.477171
0.477769
-0.00526802
-0.476968
0.00584497
0.477532
-0.00640837
-0.476725
0.00696163
0.477264
-0.00378235
-0.00371837
-0.238153
0.00405872
0.23828
-0.00418586
-0.237697
0.00454326
0.237808
-0.00465399
-0.236884
0.0049631
0.236981
-0.00505955
-0.235786
0.00531848
0.23584
-0.0053724
-0.220973
0.005241
0.221135
-0.005403
-0.229677
0.00566414
0.229669
-0.00565617
-0.226889
0.00560045
0.226858
-0.00556912
-0.224579
0.00543551
0.224521
-0.00537802
-0.222792
0.00516807
0.222709
-0.00508595
-0.221487
0.00480535
0.221382
-0.00470111
0.00435897
-0.220618
0.220493
-0.00423323
-0.440184
0.0075739
0.439628
-0.0070182
-0.439689
0.00643548
0.439078
-0.00582375
-0.00767529
0.875946
0.0049828
0.00517413
-0.00513855
0.875306
-0.00257379
0.874922
0.874687
-0.00213533
0.95866
-0.00426519
0.958759
-0.00637555
0.958742
-0.00428793
0.958717
-0.00415861
-0.478293
0.478833
-0.00482752
-0.478062
0.00534412
0.478562
-0.00584469
-0.477767
0.00633217
0.478238
-0.00343169
-0.00337111
-0.238633
0.00367126
0.238742
-0.00378025
-0.238113
0.00408368
0.238206
-0.004177
-0.237245
0.00443684
0.237326
-0.00451758
-0.235973
0.00472666
0.236009
-0.00476261
-0.221615
0.00465239
0.221771
-0.00480928
-0.229639
0.00499619
0.229626
-0.00498391
-0.226767
0.0049247
0.226738
-0.00489536
-0.224362
0.00477691
0.224312
-0.00472738
-0.222484
0.0045492
0.222415
-0.00448007
-0.221096
0.00424435
0.221008
-0.00415665
0.00386736
-0.220155
0.220048
-0.00376031
-0.439112
0.00675098
0.438631
-0.00627039
-0.438521
0.00576292
0.437985
-0.00522638
-0.00692136
0.873737
0.00447786
0.00465218
-0.00464453
0.873029
-0.00232988
0.872608
0.872357
-0.00196681
0.960627
-0.00392348
0.960716
-0.00585286
0.960671
-0.0039261
0.960596
-0.00380585
-0.479304
0.479791
-0.00441277
-0.479033
0.00487553
0.479479
-0.00532091
-0.478678
0.00575152
0.479091
-0.00310948
-0.00305447
-0.239045
0.00331801
0.239139
-0.00341204
-0.238464
0.00367195
0.238544
-0.00375154
-0.237549
0.00397296
0.237617
-0.00404133
-0.236096
0.00421128
0.236118
-0.0042341
-0.22223
0.00414706
0.222378
-0.00429517
-0.229585
0.00442697
0.229569
-0.00441174
-0.226652
0.0043507
0.226625
-0.00432307
-0.224173
0.00421649
0.22413
-0.00417306
-0.222223
0.00401915
0.222164
-0.00395997
-0.220765
0.0037589
0.220691
-0.00368411
0.00343658
-0.219759
0.219667
-0.00334454
-0.438183
0.00602246
0.437765
-0.00560401
-0.437496
0.00515974
0.437023
-0.00468735
-0.00623365
0.871769
0.00402294
0.00417887
-0.004191
0.870987
-0.00210505
0.870522
0.870252
-0.00180846
0.962435
-0.00360338
0.962511
-0.00536572
0.962434
-0.00359069
0.962301
-0.00348023
-0.480215
0.480654
-0.00402976
-0.479898
0.00444497
0.480296
-0.00484227
-0.479477
0.005224
0.47984
-0.00281755
-0.00276952
-0.239401
0.00299994
0.239483
-0.00308163
-0.238766
0.00330635
0.238834
-0.00337506
-0.237807
0.00356598
0.237865
-0.00362445
-0.236172
0.00376337
0.236185
-0.00377667
-0.222807
0.0037122
0.222944
-0.00384991
-0.22952
0.00394044
0.229503
-0.0039232
-0.226544
0.0038614
0.226518
-0.0038353
-0.224007
0.00373833
0.223968
-0.00369972
-0.221998
0.00356485
0.221947
-0.00351347
-0.220482
0.00333968
0.220418
-0.00327512
0.00306109
-0.219417
0.219338
-0.00298123
-0.437373
0.00538278
0.437007
-0.00501599
-0.436593
0.00462486
0.436175
-0.00420713
-0.00561503
0.870011
0.00361714
0.00375561
-0.00378094
0.869153
-0.00190112
0.868642
0.868351
-0.00166291
0.964098
-0.00330992
0.964158
-0.00492096
0.964045
-0.00328516
0.963851
-0.00318581
-0.481037
0.481434
-0.00368191
-0.480671
0.0040555
0.481026
-0.00441121
-0.480182
0.0047511
0.480503
-0.0025575
-0.00251496
-0.239711
0.00271797
0.239783
-0.0027895
-0.239027
0.00298579
0.239087
-0.0030458
-0.238028
0.00321226
0.238079
-0.00326273
-0.236214
0.00337693
0.23622
-0.00338341
-0.223342
0.00333961
0.223468
-0.00346656
-0.229449
0.00352607
0.229431
-0.00350743
-0.226442
0.00344557
0.226417
-0.00342081
-0.223859
0.00333176
0.223824
-0.00329703
-0.221803
0.00317735
0.221757
-0.00313217
-0.220237
0.00298014
0.220181
-0.00292378
0.00273679
-0.21912
0.21905
-0.00266689
-0.436662
0.00482546
0.436339
-0.00450172
-0.435793
0.00415532
0.435422
-0.00378408
-0.00506699
0.868436
0.0032606
0.00338171
-0.00341621
0.867502
-0.00171928
0.866945
0.866632
-0.00153149
0.96563
-0.00304546
0.965672
-0.00452149
0.965521
-0.00301128
0.965264
-0.00292345
-0.48178
0.482139
-0.00337077
-0.481363
0.00370825
0.481683
-0.00402819
-0.480806
0.00433245
0.481092
-0.00232848
-0.00229019
-0.239984
0.00247058
0.240047
-0.00253377
-0.239256
0.00270702
0.239309
-0.00276003
-0.23822
0.00290666
0.238264
-0.00295063
-0.236232
0.00304504
0.236234
-0.0030467
-0.223833
0.0030212
0.22395
-0.00313768
-0.229373
0.0031738
0.229353
-0.00315418
-0.226345
0.00309267
0.226321
-0.00306911
-0.223725
0.00298666
0.223693
-0.0029551
-0.22163
0.00284771
0.22159
-0.00280754
-0.220022
0.00267304
0.219972
-0.00262331
0.00245835
-0.218859
0.218797
-0.00239662
-0.436034
0.00434367
0.435746
-0.00405589
-0.435081
0.00374711
0.434749
-0.0034153
-0.00458732
0.867018
0.00295053
0.00305515
-0.003096
0.866011
-0.00155932
0.865408
0.865073
-0.00141498
0.967045
-0.0028114
0.967068
-0.00416887
0.966878
-0.00276969
0.966558
-0.00269347
-0.482454
0.482781
-0.00309672
-0.481986
0.00340312
0.482276
-0.00369255
-0.481363
0.00396665
0.48162
-0.00212824
-0.00209514
-0.240226
0.00225496
0.240282
-0.00231129
-0.239459
0.00246578
0.239506
-0.00251309
-0.238387
0.0026435
0.238426
-0.00268212
-0.236233
0.00276062
0.236232
-0.00275897
-0.224284
0.0027493
0.224391
-0.00285594
-0.229294
0.00287439
0.229273
-0.00285412
-0.226252
0.0027932
0.22623
-0.0027707
-0.223603
0.00269383
0.223574
-0.00266489
-0.221475
0.00256758
0.221439
-0.00253147
-0.219831
0.00241125
0.219787
-0.00236694
0.00222003
-0.218628
0.218573
-0.00216506
-0.435474
0.00393096
0.435216
-0.00367315
-0.434444
0.00339593
0.434145
-0.00309743
-0.00417305
0.865733
0.00268424
0.00277334
-0.00281879
0.864656
-0.00142063
0.86401
0.863652
-0.00131382
0.968359
-0.0026084
0.968363
-0.00386365
0.968133
-0.00256058
0.967751
-0.00249556
-0.483069
0.483369
-0.0028597
-0.482551
0.00313969
0.482815
-0.00340336
-0.481864
0.00365217
0.482096
-0.00195605
-0.00192834
-0.240442
0.00206998
0.240492
-0.0021207
-0.239641
0.00225996
0.239684
-0.00230264
-0.238535
0.0024198
0.238569
-0.00245401
-0.236223
0.00251977
0.236219
-0.00251591
-0.224697
0.00251971
0.224795
-0.00261734
-0.229212
0.00262248
0.229191
-0.00260178
-0.226164
0.00254157
0.226142
-0.00252
-0.22349
0.00244782
0.223463
-0.00242105
-0.221336
0.00233197
0.221303
-0.00229918
-0.219661
0.00219058
0.219621
-0.00215068
0.00201854
-0.218421
0.218372
-0.00196913
-0.434971
0.00358184
0.434738
-0.00334888
-0.43387
0.00309795
0.433599
-0.00282735
-0.00382087
0.864561
0.00245892
0.00253376
-0.00258273
0.863418
-0.00130239
0.86273
0.86235
-0.00122792
0.969586
-0.00243615
0.969571
-0.00360507
0.969302
-0.00238267
0.968858
-0.00232933
-0.483635
0.48391
-0.00265796
-0.483067
0.00291572
0.483309
-0.00315784
-0.482318
0.00338562
0.48253
-0.00181011
-0.00178749
-0.240637
0.00191345
0.240683
-0.00195962
-0.239806
0.00208657
0.239845
-0.00212549
-0.238666
0.00223181
0.238697
-0.00226241
-0.236205
0.00231798
0.2362
-0.00231276
-0.225075
0.00232788
0.225165
-0.00241734
-0.229129
0.00241255
0.229108
-0.0023916
-0.226079
0.00233212
0.226058
-0.00231136
-0.223386
0.00224309
0.223361
-0.00221811
-0.221209
0.00213576
0.221179
-0.00210567
-0.219507
0.0020065
0.219471
-0.00197018
0.00185007
-0.218234
0.218189
-0.00180523
-0.434516
0.00328986
0.434303
-0.0030774
-0.433347
0.00284822
0.4331
-0.00260084
-0.00352678
0.863483
0.0022721
0.00233293
-0.00238535
0.862277
-0.00120347
0.861548
0.861146
-0.00115721
0.970744
-0.00229456
0.970708
-0.0033926
0.9704
-0.00223592
0.969895
-0.00219365
-0.484157
0.484413
-0.00249158
-0.483541
0.00273107
0.483766
-0.00295555
-0.482733
0.00316617
0.482929
-0.00169
-0.0016718
-0.240816
0.00178472
0.240858
-0.00182726
-0.239957
0.00194441
0.239993
-0.00198033
-0.238784
0.00207792
0.238812
-0.00210559
-0.236183
0.00215313
0.236177
-0.00214717
-0.225422
0.00217171
0.225504
-0.00225391
-0.229044
0.00224179
0.229023
-0.0022207
-0.225997
0.00216189
0.225976
-0.0021418
-0.223288
0.00207673
0.223265
-0.00205319
-0.221092
0.00197624
0.221064
-0.0019483
-0.219366
0.00185664
0.219333
-0.00182318
0.00171271
-0.218064
0.218023
-0.00167154
-0.4341
0.00305185
0.433904
-0.00285597
-0.432869
0.00264446
0.43264
-0.00241599
-0.0032877
0.862481
0.00212108
0.00216906
-0.00222482
0.861214
-0.0011229
0.860446
0.860023
-0.00110224
0.971846
-0.00218416
0.97179
-0.00322757
0.971444
-0.00212062
0.970878
-0.00208981
-0.484646
0.484885
-0.00235945
-0.483982
0.00258421
0.484193
-0.00279456
-0.483117
0.00299152
0.4833
-0.00159446
-0.00157975
-0.240981
0.00168226
0.241021
-0.00172197
-0.240097
0.00183149
0.24013
-0.00186506
-0.238891
0.00195574
0.238916
-0.00198107
-0.236159
0.00202241
0.236153
-0.00201617
-0.225741
0.00204851
0.225817
-0.0021243
-0.22896
0.00210689
0.228939
-0.00208576
-0.225917
0.00202751
0.225897
-0.00200795
-0.223196
0.00194541
0.223173
-0.00192299
-0.220983
0.00185026
0.220957
-0.001824
-0.219236
0.0017382
0.219205
-0.00170697
0.00160403
-0.217906
0.217868
-0.00156578
-0.433715
0.0028637
0.433532
-0.00268094
-0.432425
0.00248345
0.432212
-0.00227009
-0.00310251
0.861537
0.00200562
0.00204087
-0.0021001
0.860211
-0.00106047
0.859406
0.858963
-0.00106044
0.972906
-0.00210156
0.972831
-0.0031027
0.972445
-0.00203271
0.97182
-0.00201207
-0.485107
0.485335
-0.00226089
-0.484397
0.00247422
0.484596
-0.00267362
-0.483477
0.00286008
0.48365
-0.00152173
-0.00151114
-0.241137
0.00160409
0.241174
-0.00164164
-0.240228
0.00174536
0.24026
-0.00177714
-0.238989
0.00186248
0.239013
-0.00188597
-0.236134
0.0019227
0.236128
-0.00191656
-0.226035
0.00195534
0.226105
-0.00202547
-0.228876
0.0020044
0.228854
-0.0019833
-0.225839
0.00192548
0.22582
-0.00190631
-0.223108
0.00184568
0.223086
-0.00182412
-0.22088
0.00175457
0.220855
-0.00172957
-0.219114
0.00164819
0.219084
-0.00161864
0.00152144
-0.217759
0.217723
-0.00148542
-0.433355
0.00272247
0.433182
-0.00254971
-0.432009
0.00236301
0.431808
-0.00216132
-0.00296311
0.860637
0.00191961
0.0019436
-0.00200696
0.859255
-0.00101311
0.858413
0.85795
-0.00103883
0.973945
-0.00205546
0.973848
-0.00303735
0.973427
-0.00198576
0.97275
-0.00198183
-0.48555
0.48576
-0.00219541
-0.484792
0.00240006
0.484983
-0.00259164
-0.483819
0.00277069
0.483985
-0.00147119
-0.00146534
-0.241284
0.00154931
0.24132
-0.00158526
-0.240353
0.00168472
0.240384
-0.0017152
-0.239081
0.00179663
0.239103
-0.00181878
-0.23611
0.00185235
0.236104
-0.00184663
-0.226308