/*--------------------------------*- C++ -*----------------------------------*\
| =========                 |                                                 |
| \\      /  F ield         | OpenFOAM: The Open Source CFD Toolbox           |
|  \\    /   O peration     | Version:  v1912                                 |
|   \\  /    A nd           | Website:  www.openfoam.com                      |
|    \\/     M anipulation  |                                                 |
\*---------------------------------------------------------------------------*/
FoamFile
{
    version     2.0;
    format      ascii;
    class       volVectorField;
    location    "1100";
    object      U;
}
// * * * * * * * * * * * * * * * * * * * * * * * * * * * * * * * * * * * * * //

dimensions      [0 1 -1 0 0 0 0];


internalField   nonuniform List<vector> 
12556
(
(99.9993 0.0019634 -1.51316e-19)
(99.999 0.00677958 5.10067e-24)
(99.998 0.0147613 -1.60747e-19)
(99.9966 0.0272314 -1.57512e-19)
(100 0.0212758 6.49507e-20)
(99.9984 0.0365081 0)
(99.9975 0.0593309 0)
(99.9967 0.091798 -1.12554e-19)
(99.9957 0.135416 1.31892e-20)
(99.9949 0.189917 -8.7253e-20)
(99.9948 0.250077 1.05552e-20)
(99.996 0.30462 0)
(99.9984 0.338768 0)
(100.001 0.341752 1.43591e-20)
(100.004 0.314188 -2.39294e-20)
(100.005 0.266481 1.50476e-20)
(100.005 0.211796 0)
(100.004 0.159953 2.54098e-20)
(100.004 0.115081 1.04596e-19)
(100.002 0.0824988 -2.96093e-20)
(100.009 0.0944241 -6.18802e-19)
(100.006 0.0598494 0)
(100.004 0.0322918 -7.92716e-20)
(100.004 0.0103488 -5.25111e-19)
(99.9928 0.00514888 6.37299e-19)
(99.9893 0.0179513 1.69771e-19)
(99.9811 0.0396638 1.18507e-18)
(99.9676 0.0739489 -4.9985e-19)
(99.9698 0.10254 7.12468e-20)
(99.9491 0.174624 -7.29513e-22)
(99.9226 0.284781 0)
(99.9114 0.387731 -5.02676e-20)
(99.8807 0.577538 -4.67667e-20)
(99.8538 0.820851 -8.22384e-20)
(99.8434 1.09758 -3.42116e-20)
(99.8641 1.35892 -4.50863e-20)
(99.9207 1.53388 -9.22733e-21)
(99.9963 1.56463 4.93994e-23)
(100.062 1.44744 -3.57767e-21)
(100.1 1.2309 3.4168e-20)
(100.109 0.978728 -6.78649e-20)
(100.098 0.744029 0)
(100.112 0.565901 -4.82971e-19)
(100.081 0.392623 9.3627e-19)
(100.082 0.270293 6.31218e-19)
(100.06 0.171078 1.32674e-18)
(100.045 0.0920316 -1.33175e-18)
(100.039 0.0294215 6.29678e-19)
(99.9806 0.00607454 -6.37781e-19)
(99.9706 0.0220035 -1.36554e-18)
(99.9489 0.0513824 -3.05695e-18)
(99.9129 0.0998907 4.00187e-18)
(99.896 0.159908 -1.45708e-19)
(99.834 0.280068 -1.38661e-19)
(99.7499 0.46597 -2.34826e-19)
(99.6978 0.676449 0)
(99.5917 1.03362 1.86041e-19)
(99.4962 1.50671 4.02372e-20)
(99.4599 2.07138 -1.01993e-19)
(99.548 2.62732 -1.07124e-21)
(99.7824 3.01079 1.39119e-20)
(100.088 3.0801 -2.48558e-22)
(100.341 2.82563 0)
(100.47 2.36657 2.60788e-20)
(100.48 1.84505 -6.99793e-20)
(100.422 1.3672 -1.67546e-19)
(100.375 0.971443 -2.91859e-18)
(100.278 0.663139 -6.49192e-19)
(100.23 0.412246 -6.49535e-19)
(100.167 0.259218 1.50069e-18)
(100.127 0.138703 -1.68895e-19)
(100.11 0.0441546 0)
(99.968 0.00337856 -3.2068e-19)
(99.949 0.0148192 2.40042e-18)
(99.9089 0.0427897 -6.86802e-19)
(99.8419 0.0950917 0)
(99.7929 0.176966 0)
(99.6705 0.327631 -1.12574e-18)
(99.4997 0.569444 -2.1939e-18)
(99.3567 0.87749 2.08564e-19)
(99.1121 1.3889 9.9477e-20)
(98.8669 2.10664 4.72502e-20)
(98.7449 3.01203 -1.32971e-19)
(98.9032 4.00352 3.71304e-20)
(99.464 4.74828 3.72024e-20)
(100.24 4.86544 0)
(100.843 4.34908 0)
(101.105 3.51806 -1.19723e-19)
(101.1 2.6599 0)
(100.946 1.91074 0)
(100.781 1.29257 1.05278e-18)
(100.576 0.862672 -8.21341e-19)
(100.437 0.501424 -1.66169e-18)
(100.317 0.310446 8.56269e-19)
(100.241 0.164165 -1.72195e-19)
(100.207 0.0519412 0)
(99.9637 -0.00375369 0)
(99.9343 -0.00613458 0)
(99.8732 0.00908425 3.46007e-19)
(99.7704 0.0517973 5.15091e-19)
(99.6778 0.142696 3.75714e-19)
(99.4806 0.298742 0)
(99.1991 0.559666 0)
(98.9223 0.928698 0)
(98.464 1.55689 1.75473e-18)
(97.9681 2.47826 2.34924e-19)
(97.5671 3.82111 0)
(97.6777 5.56778 2.14042e-19)
(98.8324 7.07163 2.56859e-20)
(100.599 7.23562 -2.10393e-20)
(101.806 6.13727 5.62649e-19)
(102.178 4.64424 1.66129e-18)
(102.028 3.32496 3.24288e-19)
(101.681 2.30579 -4.12561e-21)
(101.314 1.47668 -1.74897e-18)
(100.954 0.956455 1.4667e-19)
(100.68 0.518066 0)
(100.487 0.312606 1.75608e-19)
(100.369 0.162123 -1.32094e-19)
(100.313 0.0507664 -4.10746e-20)
(99.977 -0.0156023 0)
(99.9371 -0.0417375 0)
(99.855 -0.0515526 -6.94508e-19)
(99.7158 -0.0335696 1.3921e-18)
(99.5729 0.0496768 0)
(99.2966 0.181432 0)
(98.894 0.418008 4.56391e-19)
(98.4519 0.793005 1.76403e-19)
(97.7364 1.41382 2.53272e-19)
(96.8224 2.41302 -1.24967e-18)
(95.7547 4.17796 1.51628e-18)
(95.2369 7.21835 -1.43281e-18)
(97.4368 10.745 2.42605e-20)
(101.65 10.7723 0)
(103.734 8.1515 2.19068e-18)
(103.899 5.59465 0)
(103.313 3.71179 -2.88567e-19)
(102.589 2.42625 5.01719e-19)
(101.934 1.46376 4.48102e-19)
(101.374 0.910097 -3.02965e-19)
(100.926 0.445859 0)
(100.653 0.257042 0)
(100.487 0.128377 -4.45609e-20)
(100.408 0.0393325 -1.2556e-19)
(100.017 -0.0318642 1.58418e-19)
(99.9675 -0.0910446 -1.70543e-19)
(99.867 -0.137433 3.48024e-19)
(99.6957 -0.15873 -1.25719e-18)
(99.5021 -0.10187 1.30848e-21)
(99.1536 -0.0246584 4.6461e-19)
(98.6405 0.140064 -2.36247e-18)
(98.0349 0.449624 -2.50017e-19)
(97.0807 0.924591 5.9574e-19)
(95.6588 1.7348 4.02111e-19)
(93.4712 3.301 1.12245e-18)
(90.145 7.39556 2.77288e-18)
(92.959 17.4679 3.18601e-19)
(105.558 16.3018 3.45785e-18)
(107.428 9.85839 0)
(106.389 5.89413 8.67504e-19)
(104.912 3.56571 -4.73622e-19)
(103.601 2.1714 -7.76978e-20)
(102.551 1.19523 0)
(101.78 0.699822 1.66756e-19)
(101.139 0.278457 1.1494e-19)
(100.785 0.14127 -1.3857e-19)
(100.573 0.0620027 -1.58377e-19)
(100.471 0.0174112 3.5667e-19)
(100.092 -0.0516687 -1.58332e-19)
(100.035 -0.151308 1.70386e-19)
(99.9206 -0.243289 -2.16123e-19)
(99.7258 -0.315254 -1.42991e-19)
(99.488 -0.30158 2.69606e-19)
(99.0855 -0.30306 1.56469e-19)
(98.4926 -0.248838 1.22559e-18)
(97.7683 -0.0707463 2.26967e-19)
(96.6674 0.141071 0)
(94.944 0.464535 1.64943e-19)
(92.1392 0.840099 -9.3664e-19)
(86.6719 0.938242 9.91652e-19)
(117.402 20.8017 9.24497e-19)
(113.133 9.10273 -1.94648e-19)
(109.315 4.80047 1.44002e-19)
(106.532 2.6401 -2.30992e-19)
(104.541 1.45935 7.07174e-20)
(103.053 0.660991 -9.13137e-20)
(102.101 0.325341 3.76856e-19)
(101.275 0.0239984 -1.40796e-19)
(100.855 -0.0287318 1.17422e-19)
(100.606 -0.0335295 -2.29421e-20)
(100.485 -0.0138451 -3.36256e-19)
(100.207 -0.0737128 -7.63329e-20)
(100.145 -0.21846 -6.12467e-20)
(100.024 -0.36152 -2.09665e-20)
(99.8164 -0.49103 6.25457e-20)
(99.5459 -0.532079 -4.94199e-22)
(99.1147 -0.625238 0)
(98.484 -0.699572 2.00414e-19)
(97.7094 -0.683871 -1.31887e-21)
(96.5921 -0.752814 4.17287e-21)
(94.9113 -0.897152 -2.09773e-19)
(92.6149 -1.3775 -9.29369e-20)
(90.3227 -2.90692 -3.30328e-20)
(130.453 9.35788 0)
(117.787 4.10676 6.56375e-19)
(111.538 1.9997 7.21755e-19)
(107.689 0.904174 3.40197e-20)
(105.169 0.324663 -2.10779e-19)
(103.328 -0.0925267 -9.63662e-20)
(102.262 -0.183618 2.13557e-19)
(101.3 -0.294431 4.85501e-20)
(100.838 -0.238297 0)
(100.565 -0.150283 1.81389e-19)
(100.431 -0.0518991 1.67979e-19)
(100.365 -0.0964586 1.50309e-19)
(100.303 -0.287783 2.35181e-21)
(100.181 -0.483415 0)
(99.9722 -0.67252 8.25385e-21)
(99.6827 -0.774016 -3.6905e-20)
(99.2485 -0.960672 3.82181e-20)
(98.6206 -1.16194 0)
(97.8529 -1.30165 -4.02786e-21)
(96.8043 -1.59406 1.57869e-19)
(95.2841 -2.00765 1.83886e-19)
(93.4297 -2.64465 0)
(91.8552 -3.45621 -2.00429e-20)
(130.059 -5.16164 -9.42664e-19)
(118.369 -2.57731 0)
(111.994 -1.65955 1.86232e-19)
(107.943 -1.26877 -6.34754e-20)
(105.281 -1.04532 -4.06559e-19)
(103.299 -0.955512 8.26509e-19)
(102.213 -0.764055 0)
(101.19 -0.641533 -4.76663e-20)
(100.717 -0.465627 -2.01123e-19)
(100.438 -0.276774 2.24978e-20)
(100.299 -0.0931119 0)
(100.567 -0.118401 -7.39526e-20)
(100.507 -0.354631 7.95672e-20)
(100.39 -0.600507 7.76409e-20)
(100.191 -0.846754 -7.12995e-20)
(99.8971 -1.00846 -3.63365e-20)
(99.4821 -1.28155 0)
(98.8887 -1.59674 -7.45038e-20)
(98.1643 -1.87046 5.7045e-20)
(97.2116 -2.32957 -2.82022e-19)
(95.8193 -2.90232 -1.62832e-19)
(94.1108 -3.56968 -4.15627e-19)
(92.6011 -4.13409 6.24622e-20)
(123.118 -13.9251 1.06233e-18)
(115.563 -7.88316 0)
(110.674 -4.92638 -1.37085e-18)
(107.227 -3.32213 0)
(104.831 -2.37657 -3.96245e-19)
(102.949 -1.79053 0)
(101.945 -1.33498 -5.097e-19)
(100.941 -0.97812 -5.98373e-19)
(100.49 -0.686639 4.56184e-20)
(100.222 -0.400324 -1.4599e-19)
(100.087 -0.133464 2.00524e-20)
(100.81 -0.138164 2.71768e-19)
(100.755 -0.414609 0)
(100.649 -0.705074 -7.74074e-20)
(100.469 -1.00149 0)
(100.181 -1.21946 0)
(99.8031 -1.56616 -1.05216e-19)
(99.2674 -1.97612 -2.58254e-20)
(98.6091 -2.36165 9.08242e-22)
(97.7631 -2.95523 7.16151e-20)
(96.4712 -3.67434 1.59106e-19)
(94.7744 -4.47093 -3.44368e-19)
(93.1392 -5.08815 2.93021e-22)
(115.046 -17.57 -1.42236e-18)
(111.264 -10.7924 3.10527e-19)
(108.276 -7.07418 -1.09911e-18)
(105.813 -4.84371 -5.19544e-20)
(103.931 -3.44166 -4.56693e-20)
(102.331 -2.48307 4.31782e-20)
(101.487 -1.82742 -6.2128e-19)
(100.571 -1.27058 3.54255e-19)
(100.166 -0.880021 0)
(99.9233 -0.509632 1.68451e-19)
(99.7993 -0.169321 0)
(101.088 -0.155201 -2.70408e-19)
(101.04 -0.466437 4.53393e-18)
(100.948 -0.79451 -9.08736e-18)
(100.792 -1.1335 -2.42711e-20)
(100.525 -1.39475 -3.1823e-20)
(100.197 -1.79803 0)
(99.7361 -2.27842 2.65843e-19)
(99.1596 -2.75466 -1.66708e-21)
(98.4425 -3.45843 -3.79777e-21)
(97.2896 -4.33969 -7.28768e-20)
(95.6718 -5.4199 1.87468e-19)
(93.9468 -6.34874 0)
(104.331 -26.8221 -3.86734e-19)
(107.248 -16.7363 0)
(106.926 -11.4445 2.86822e-20)
(105.583 -7.97393 0)
(104.092 -5.67942 9.10779e-20)
(102.778 -4.125 1.22019e-18)
(101.543 -2.96582 -1.29853e-18)
(100.895 -2.19547 0)
(100.108 -1.49525 0)
(99.7658 -1.03103 5.27313e-19)
(99.5569 -0.596544 9.76415e-20)
(99.4487 -0.198018 -2.97188e-19)
(101.394 -0.167999 0)
(101.354 -0.505296 0)
(101.278 -0.860684 0)
(101.151 -1.23109 0)
(100.905 -1.53388 0)
(100.629 -1.97821 0)
(100.249 -2.50976 0)
(99.7731 -3.04729 0)
(99.209 -3.82372 0)
(98.2768 -4.83727 0)
(97.012 -6.25575 0)
(95.5194 -8.4362 0)
(97.2581 -17.1391 0)
(102.485 -13.7899 0)
(103.505 -10.5213 1.08045e-18)
(103.18 -7.88054 0)
(102.404 -5.89782 0)
(101.568 -4.4272 -9.87682e-19)
(100.687 -3.22769 -1.76455e-18)
(100.233 -2.42496 -6.50458e-19)
(99.5886 -1.64366 -8.43792e-19)
(99.3128 -1.13316 8.49548e-19)
(99.141 -0.656908 0)
(99.0509 -0.21814 7.98971e-19)
(101.72 -0.176418 0)
(101.689 -0.530844 0)
(101.631 -0.903053 0)
(101.533 -1.29174 0)
(101.318 -1.61839 0)
(101.101 -2.08143 0)
(100.809 -2.62986 0)
(100.438 -3.19283 0)
(100.043 -3.97391 0)
(99.4 -4.9855 0)
(98.7134 -6.38704 0)
(97.8315 -8.35691 0)
(98.6332 -10.8463 -5.51729e-29)
(100.499 -10.5224 0)
(101.319 -8.94693 0)
(101.335 -7.2119 0)
(100.951 -5.68309 0)
(100.443 -4.42568 -1.97151e-19)
(99.8518 -3.30174 0)
(99.5538 -2.52353 0)
(99.045 -1.71759 -1.57475e-18)
(98.8318 -1.18662 7.93275e-19)
(98.6953 -0.690481 3.33362e-20)
(98.6232 -0.229478 -5.51988e-19)
(102.059 -0.180497 0)
(102.036 -0.543181 0)
(101.995 -0.922128 0)
(101.926 -1.3177 0)
(101.741 -1.65533 0)
(101.579 -2.118 0)
(101.365 -2.65802 0)
(101.092 -3.2113 0)
(100.829 -3.94365 0)
(100.425 -4.82702 0)
(100.049 -5.91303 0)
(96.6138 -6.75479 0)
(99.3884 -8.2573 4.51546e-33)
(99.8091 -8.21117 0)
(100.072 -7.44341 0)
(100.036 -6.35384 0)
(99.7937 -5.23405 0)
(99.4685 -4.22001 0)
(99.0871 -3.23705 -5.63822e-19)
(98.8984 -2.51617 8.64999e-19)
(98.5044 -1.72675 4.91759e-19)
(98.3445 -1.19795 8.56258e-19)
(98.2384 -0.700289 -9.76278e-19)
(98.1823 -0.232775 0)
(102.401 -0.18062 0)
(102.386 -0.543523 0)
(102.36 -0.920291 0)
(102.315 -1.31267 0)
(102.16 -1.65037 0)
(102.044 -2.09725 0)
(101.895 -2.60836 0)
(101.697 -3.12554 0)
(101.525 -3.771 0)
(101.243 -4.49139 0)
(100.966 -5.27209 0)
(95.8751 -5.56799 0)
(99.7973 -6.6427 9.65235e-38)
(99.5218 -6.63029 0)
(99.3521 -6.20616 0)
(99.1534 -5.50756 0)
(98.9133 -4.70676 0)
(98.6723 -3.916 0)
(98.4082 -3.07405 0)
(98.2912 -2.43005 0)
(97.9861 -1.68513 1.70402e-18)
(97.8677 -1.17527 -1.62757e-18)
(97.7856 -0.690054 -1.10536e-19)
(97.7423 -0.229525 1.03965e-19)
(102.74 -0.177369 0)
(102.732 -0.533667 0)
(102.718 -0.900909 0)
(102.693 -1.28188 0)
(102.563 -1.61053 0)
(102.483 -2.0311 0)
(102.38 -2.50098 0)
(102.234 -2.9675 0)
(102.107 -3.51519 0)
(101.864 -4.08414 0)
(101.607 -4.65285 0)
(95.5673 -4.70801 0)
(100.018 -5.50927 0)
(99.3683 -5.49304 0)
(98.9059 -5.22742 0)
(98.5468 -4.75728 0)
(98.254 -4.17638 0)
(98.0294 -3.56166 0)
(97.8213 -2.85369 0)
(97.7431 -2.28988 0)
(97.5015 -1.60557 0)
(97.4123 -1.12545 0)
(97.3485 -0.664747 0)
(97.3149 -0.221656 0)
(103.069 -0.171416 0)
(103.067 -0.515676 0)
(103.062 -0.867805 0)
(103.052 -1.23133 0)
(102.942 -1.54435 0)
(102.888 -1.93268 0)
(102.814 -2.35603 0)
(102.698 -2.76777 0)
(102.583 -3.22447 0)
(102.334 -3.67159 0)
(102.063 -4.09558 0)
(95.5407 -4.05181 0)
(100.137 -4.6575 0)
(99.2655 -4.63371 0)
(98.6068 -4.44837 0)
(98.1154 -4.11446 0)
(97.7551 -3.68208 0)
(97.5132 -3.20025 0)
(97.3218 -2.60877 0)
(97.2584 -2.12091 0)
(97.0571 -1.50268 0)
(96.9862 -1.05826 0)
(96.9344 -0.628352 0)
(96.908 -0.209604 0)
(103.386 -0.163463 0)
(103.387 -0.491689 0)
(103.389 -0.824851 0)
(103.388 -1.16697 0)
(103.294 -1.46024 0)
(103.254 -1.814 0)
(103.195 -2.19062 0)
(103.092 -2.54975 0)
(102.967 -2.92861 0)
(102.695 -3.28266 0)
(102.388 -3.60617 0)
(95.6798 -3.52853 0)
(100.198 -3.98946 0)
(99.1852 -3.95951 0)
(98.3914 -3.81887 0)
(97.7965 -3.56957 0)
(97.3705 -3.23833 0)
(97.0967 -2.85523 0)
(96.8989 -2.36048 0)
(96.8339 -1.94032 0)
(96.6553 -1.38765 0)
(96.5937 -0.981451 0)
(96.5486 -0.585488 0)
(96.5266 -0.195226 0)
(103.686 -0.154179 0)
(103.69 -0.463728 0)
(103.695 -0.775608 0)
(103.699 -1.09413 0)
(103.616 -1.36552 0)
(103.583 -1.68494 0)
(103.528 -2.0176 0)
(103.425 -2.32921 0)
(103.28 -2.64402 0)
(102.978 -2.92809 0)
(102.621 -3.17973 0)
(95.908 -3.09807 0)
(100.225 -3.45004 -5.23461e-34)
(99.1164 -3.41581 0)
(98.2269 -3.30234 0)
(97.552 -3.10813 0)
(97.0676 -2.84723 0)
(96.7571 -2.53759 0)
(96.5403 -2.12156 0)
(96.4638 -1.75974 0)
(96.2948 -1.26877 0)
(96.2358 -0.900843 0)
(96.1933 -0.539608 0)
(96.1737 -0.179823 0)
(103.967 -0.144152 0)
(103.972 -0.433558 0)
(103.979 -0.72311 0)
(103.984 -1.01725 0)
(103.909 -1.26614 0)
(103.876 -1.553 0)
(103.818 -1.84587 0)
(103.708 -2.11591 0)
(103.536 -2.37894 0)
(103.205 -2.61038 0)
(102.785 -2.80901 0)
(96.1778 -2.73651 0)
(100.23 -3.00555 0)
(99.0547 -2.96858 0)
(98.0952 -2.87302 0)
(97.3582 -2.71633 0)
(96.824 -2.50569 0)
(96.4768 -2.25128 0)
(96.2351 -1.89897 0)
(96.1412 -1.58661 0)
(95.9729 -1.15186 0)
(95.9119 -0.820607 0)
(95.8691 -0.493281 0)
(95.8501 -0.164289 0)
(104.229 -0.133866 0)
(104.235 -0.402625 0)
(104.242 -0.669792 0)
(104.245 -0.939796 0)
(104.173 -1.16663 0)
(104.137 -1.42351 0)
(104.07 -1.68121 0)
(103.948 -1.9155 0)
(103.748 -2.13691 0)
(103.39 -2.32847 0)
(102.899 -2.487 0)
(96.4605 -2.42869 0)
(100.221 -2.63408 -6.64489e-34)
(98.9979 -2.59552 0)
(97.986 -2.5126 0)
(97.2005 -2.38258 0)
(96.6241 -2.20883 0)
(96.2425 -1.99663 0)
(95.9737 -1.69598 0)
(95.8598 -1.42524 0)
(95.6864 -1.0407 0)
(95.6202 -0.743581 0)
(95.5751 -0.448313 0)
(95.5554 -0.149234 0)
(104.471 -0.123699 0)
(104.477 -0.372058 0)
(104.482 -0.617508 0)
(104.482 -0.864367 0)
(104.412 -1.07024 0)
(104.368 -1.30006 0)
(104.289 -1.5271 0)
(104.153 -1.73089 0)
(103.925 -1.91886 0)
(103.544 -2.07984 0)
(102.977 -2.20742 0)
(96.7397 -2.16439 0)
(100.203 -2.3206 0)
(98.9451 -2.28126 0)
(97.893 -2.20781 0)
(97.0691 -2.09747 0)
(96.4573 -1.95152 0)
(96.0444 -1.7721 0)
(95.7484 -1.51362 0)
(95.6134 -1.27782 0)
(95.4315 -0.937569 0)
(95.3583 -0.671556 0)
(95.3095 -0.405897 0)
(95.2884 -0.135053 0)
(104.695 -0.113934 0)
(104.7 -0.342698 0)
(104.702 -0.567604 0)
(104.697 -0.792786 0)
(104.626 -0.979185 0)
(104.574 -1.18491 0)
(104.482 -1.38544 0)
(104.33 -1.56333 0)
(104.076 -1.72438 0)
(103.674 -1.86152 0)
(103.027 -1.9649 0)
(97.0062 -1.93639 0)
(100.179 -2.05443 2.17491e-34)
(98.8954 -2.01488 0)
(97.8121 -1.94881 0)
(96.9575 -1.85348 0)
(96.316 -1.72897 0)
(95.875 -1.57544 0)
(95.5529 -1.3516 0)
(95.397 -1.14516 0)
(95.2046 -0.843664 0)
(95.1234 -0.605556 0)
(95.07 -0.366756 0)
(95.047 -0.121987 0)
(104.901 -0.104772 0)
(104.904 -0.31514 0)
(104.903 -0.521012 0)
(104.892 -0.72627 0)
(104.82 -0.894872 0)
(104.757 -1.07938 0)
(104.65 -1.25712 0)
(104.482 -1.41304 0)
(104.205 -1.55235 0)
(103.784 -1.67059 0)
(103.058 -1.75486 0)
(97.2558 -1.73936 0)
(100.151 -1.82766 0)
(98.8485 -1.78826 0)
(97.7407 -1.72814 0)
(96.8613 -1.64459 0)
(96.1947 -1.53693 0)
(95.7287 -1.40413 0)
(95.3821 -1.20897 0)
(95.2061 -1.02722 0)
(95.0022 -0.759441 0)
(94.9127 -0.546061 0)
(94.8544 -0.331276 0)
(94.8291 -0.11016 0)
(105.09 -0.0963484 0)
(105.091 -0.289785 0)
(105.087 -0.478333 0)
(105.069 -0.665576 0)
(104.994 -0.818141 0)
(104.921 -0.984104 0)
(104.799 -1.14234 0)
(104.616 -1.27966 0)
(104.317 -1.40135 0)
(103.879 -1.50442 0)
(103.075 -1.5735 0)
(97.4868 -1.56924 0)
(100.119 -1.63431 0)
(98.8042 -1.59529 0)
(97.6768 -1.54009 0)
(96.7773 -1.46594 0)
(96.0895 -1.37175 0)
(95.6013 -1.25572 0)
(95.2319 -1.08444 0)
(95.0369 -0.923486 0)
(94.8211 -0.684886 0)
(94.7233 -0.493188 0)
(94.6599 -0.299604 0)
(94.6322 -0.0996181 0)
(105.263 -0.0887455 0)
(105.263 -0.266883 0)
(105.255 -0.439923 0)
(105.23 -0.611115 0)
(105.152 -0.749395 0)
(105.068 -0.89929 0)
(104.931 -1.04092 0)
(104.733 -1.16249 0)
(104.415 -1.26989 0)
(103.961 -1.36062 0)
(103.082 -1.41759 0)
(97.6992 -1.42281 0)
(100.086 -1.46973 0)
(98.762 -1.43121 0)
(97.6191 -1.38012 0)
(96.703 -1.31361 0)
(95.9971 -1.23029 0)
(95.4892 -1.12795 0)
(95.0988 -0.976632 0)
(94.8861 -0.833168 0)
(94.6586 -0.619699 0)
(94.5526 -0.446822 0)
(94.4842 -0.27173 0)
(94.454 -0.0903542 0)
(105.424 -0.0820111 0)
(105.422 -0.246573 0)
(105.409 -0.405964 0)
(105.377 -0.563072 0)
(105.295 -0.688762 0)
(105.201 -0.824858 0)
(105.05 -0.952431 0)
(104.837 -1.06072 0)
(104.502 -1.15649 0)
(104.033 -1.23716 0)
(103.082 -1.28444 0)
(97.8938 -1.29753 0)
(100.051 -1.33028 0)
(98.7218 -1.29231 0)
(97.5663 -1.24468 0)
(96.6365 -1.1844 0)
(95.9153 -1.10992 0)
(95.3898 -1.01879 0)
(94.9801 -0.884175 0)
(94.7509 -0.755386 0)
(94.5118 -0.563437 0)
(94.398 -0.40672 0)
(94.3247 -0.247553 0)
(94.292 -0.0823316 0)
(105.572 -0.0761647 0)
(105.568 -0.228916 0)
(105.551 -0.376518 0)
(105.513 -0.521464 0)
(105.427 -0.636196 0)
(105.321 -0.760568 0)
(105.156 -0.876336 0)
(104.93 -0.973468 0)
(104.581 -1.05979 0)
(104.096 -1.13224 0)
(103.077 -1.17179 0)
(98.0719 -1.19131 0)
(100.015 -1.21303 0)
(98.6834 -1.17561 0)
(97.5178 -1.13088 0)
(96.5765 -1.0757 0)
(95.8419 -1.00842 0)
(95.3008 -0.926454 0)
(94.8733 -0.805803 0)
(94.6288 -0.689255 0)
(94.3783 -0.515587 0)
(94.2571 -0.372577 0)
(94.1791 -0.226919 0)
(94.144 -0.0754961 0)
(105.71 -0.0712169 0)
(105.704 -0.21394 0)
(105.683 -0.351594 0)
(105.637 -0.486277 0)
(105.547 -0.591553 0)
(105.431 -0.706107 0)
(105.253 -0.812077 0)
(105.014 -0.899893 0)
(104.652 -0.978597 0)
(104.153 -1.04434 0)
(103.069 -1.07774 0)
(98.235 -1.10247 0)
(99.9789 -1.11563 -3.10735e-35)
(98.6465 -1.07873 0)
(97.4727 -1.03642 0)
(96.5218 -0.985397 0)
(95.7756 -0.923938 0)
(95.2203 -0.84943 0)
(94.7763 -0.740395 0)
(94.5175 -0.633956 0)
(94.2562 -0.47569 0)
(94.1279 -0.344087 0)
(94.0455 -0.20967 0)
(94.0079 -0.0697944 0)
(105.84 -0.067146 0)
(105.832 -0.2016 0)
(105.806 -0.331108 0)
(105.754 -0.457276 0)
(105.659 -0.55466 0)
(105.533 -0.661143 0)
(105.341 -0.759116 0)
(105.091 -0.839221 0)
(104.717 -0.911845 0)
(104.204 -0.972167 0)
(103.059 -1.00074 0)
(98.3847 -1.02965 0)
(99.9421 -1.03622 0)
(98.6108 -0.999771 0)
(97.4304 -0.959447 0)
(96.4712 -0.911765 0)
(95.7148 -0.854963 0)
(95.1467 -0.786441 0)
(94.6874 -0.686983 0)
(94.4153 -0.588762 0)
(94.1429 -0.443174 0)
(94.0079 -0.320919 0)
(93.9211 -0.19561 0)
(93.8812 -0.0651538 0)
(105.962 -0.0639958 0)
(105.951 -0.191978 0)
(105.921 -0.315155 0)
(105.863 -0.434888 0)
(105.764 -0.525358 0)
(105.627 -0.625368 0)
(105.424 -0.716963 0)
(105.163 -0.790763 0)
(104.778 -0.858633 0)
(104.25 -0.914654 0)
(103.048 -0.939505 0)
(98.5225 -0.971736 0)
(99.9053 -0.973297 0)
(98.5762 -0.937226 0)
(97.3903 -0.898475 0)
(96.424 -0.853415 0)
(95.6584 -0.800251 0)
(95.0787 -0.736435 0)
(94.605 -0.64476 0)
(94.3202 -0.553083 0)
(94.0382 -0.418107 0)
(93.8968 -0.302938 0)
(93.8059 -0.184686 0)
(93.7639 -0.0615725 0)
(106.084 -0.0615923 0)
(106.071 -0.184719 0)
(106.037 -0.303236 0)
(105.971 -0.417409 0)
(105.863 -0.503558 0)
(105.716 -0.598524 0)
(105.501 -0.685213 0)
(105.23 -0.753942 0)
(104.835 -0.818208 0)
(104.292 -0.870915 0)
(103.037 -0.893012 0)
(98.6497 -0.927884 0)
(99.8684 -0.925708 0)
(98.5425 -0.889911 0)
(97.352 -0.852341 0)
(96.3793 -0.809249 0)
(95.6054 -0.758823 0)
(95.0149 -0.698576 0)
(94.5276 -0.61308 0)
(94.2309 -0.526388 0)
(93.9346 -0.398761 0)
(93.7864 -0.289531 0)
(93.6913 -0.176461 0)
(93.6467 -0.0588482 0)
(106.18 -0.0603991 0)
(106.165 -0.180752 0)
(106.127 -0.296655 0)
(106.058 -0.410254 0)
(105.957 -0.489178 0)
(105.801 -0.580373 0)
(105.575 -0.663603 0)
(105.294 -0.728286 0)
(104.889 -0.789921 0)
(104.332 -0.840217 0)
(103.027 -0.860453 0)
(98.7677 -0.897483 0)
(99.8317 -0.892593 0)
(98.5093 -0.85692 0)
(97.3149 -0.820137 0)
(96.3365 -0.778412 0)
(95.555 -0.729914 0)
(94.9543 -0.672235 0)
(94.454 -0.591441 0)
(94.1458 -0.50847 0)
(93.8517 -0.389866 0)
(93.6995 -0.281792 0)
(93.6011 -0.171775 0)
(93.555 -0.05742 0)
(106.346 -0.0590814 0)
(106.328 -0.177178 0)
(106.284 -0.291058 0)
(106.203 -0.399206 0)
(106.044 -0.481183 0)
(105.879 -0.570793 0)
(105.643 -0.652578 0)
(105.356 -0.713432 0)
(104.941 -0.773172 0)
(104.37 -0.821916 0)
(103.018 -0.841246 0)
(98.8775 -0.880301 0)
(99.795 -0.873388 0)
(98.4764 -0.837571 0)
(97.2787 -0.801181 0)
(96.295 -0.760259 0)
(95.5063 -0.712942 0)
(94.8959 -0.657012 0)
(94.3861 -0.579627 0)
(94.0683 -0.498203 0)
(93.714 -0.377696 0)
(93.5517 -0.27518 0)
(93.4479 -0.167489 0)
(93.3986 -0.0558481 0)
(89.9444 -2.79005 -9.6056e-22)
(132.007 12.4109 2.1658e-20)
(117.936 23.3061 -2.83403e-18)
(91.7418 -3.37789 -1.5144e-20)
(132.584 -4.14693 -1.87409e-19)
(132.87 10.1712 -6.39817e-19)
(92.527 -4.04351 -6.18692e-20)
(125.165 -14.2556 -5.91029e-19)
(131.895 -5.82821 1.13118e-18)
(93.0652 -4.94568 1.28815e-19)
(116.509 -18.4317 3.5314e-18)
(124.088 -15.045 -5.47546e-19)
(93.8883 -6.25035 -6.52201e-20)
(104.29 -27.568 1.83517e-19)
(105.035 -27.1347 0)
(108.41 -18.4403 -1.73772e-18)
(115.442 -18.6492 -7.44006e-19)
(95.3061 -8.15382 0)
(96.017 -18.2075 0)
(103.932 -27.4697 0)
(97.4218 -18.4448 1.68258e-19)
(102.757 -15.7393 -6.52459e-19)
(107.501 -18.2707 -2.08782e-19)
(86.6058 2.01009 -2.86549e-18)
(91.6944 16.1432 -3.0547e-19)
(115.288 23.4092 3.3866e-20)
(103.802 17.4433 -8.16038e-19)
(136.53 30.2975 1.94411e-19)
(117.203 39.3272 5.0593e-18)
(129.624 11.3158 0)
(118.998 6.73704 2.77112e-19)
(114.282 10.8048 -2.213e-19)
(93.2375 -2.37883 0)
(91.9153 -3.25285 2.00826e-20)
(90.5362 -2.56401 -6.34902e-20)
(143.806 1.68325 5.43252e-20)
(144.214 13.9453 0)
(130.624 -3.60939 3.77477e-19)
(120.852 -1.16282 -1.0878e-18)
(119.988 4.85488 -2.32347e-19)
(93.9503 -3.34879 -2.54851e-20)
(92.7075 -3.96017 -9.64409e-20)
(92.0322 -3.33768 -1.95522e-20)
(92.1729 -3.70665 8.11741e-20)
(91.4443 -4.08395 2.6792e-20)
(91.0345 -3.79068 -3.19115e-20)
(133.809 -15.3817 6.93685e-19)
(139.412 -9.06184 0)
(124.106 -13.1551 -1.68453e-18)
(118.154 -7.79253 -2.34872e-18)
(120.51 -3.0518 0)
(94.5976 -4.23969 3.49539e-19)
(93.2859 -4.86645 -1.59489e-19)
(92.7848 -4.05562 0)
(92.8004 -4.43937 4.23275e-20)
(91.7663 -4.61915 0)
(91.7703 -4.32458 5.75368e-20)
(122.847 -21.8714 -8.8363e-21)
(127.607 -19.7407 0)
(95.4109 -5.18221 -2.25412e-20)
(94.0529 -6.11368 -1.13922e-19)
(93.3643 -5.00504 0)
(93.4694 -5.56836 4.76692e-20)
(91.738 -5.84995 5.92368e-20)
(91.777 -5.24117 -5.58954e-20)
(109.115 -28.3085 0)
(112.391 -23.4299 0)
(116.908 -23.3074 3.5784e-19)
(96.6276 -6.09626 0)
(95.4642 -7.85906 0)
(94.1757 -6.29464 0)
(94.4332 -7.0785 0)
(90.5644 -7.31441 -1.152e-18)
(91.5066 -6.58131 5.17626e-19)
(98.5785 -8.50266 0)
(97.6216 -11.235 1.0228e-27)
(96.0168 -17.484 -1.68663e-22)
(86.6127 -5.75315 -5.61356e-20)
(89.9418 -4.68981 3.29088e-20)
(79.0909 -0.231618 4.59891e-18)
(85.7734 -5.71345 2.72792e-19)
(144.083 14.8683 2.6136e-18)
(137.365 29.4203 -1.54708e-19)
(127.62 18.6422 -1.53238e-18)
(136.222 27.6977 9.13549e-19)
(143.129 14.6892 -8.70426e-19)
(90.9936 -3.74015 0)
(90.79 -3.63984 -3.67408e-20)
(91.337 -3.18872 0)
(90.6815 -3.67354 0)
(90.851 -3.78049 0)
(90.1177 -4.49458 -4.77919e-20)
(90.6547 -3.71183 0)
(139.74 -8.51795 2.67486e-20)
(143.653 0.948467 5.45451e-20)
(133.294 1.99969 1.84847e-19)
(142.996 1.14911 -2.623e-20)
(139.323 -8.18405 0)
(143.292 13.7855 -1.08365e-19)
(143.139 1.86022 2.06325e-19)
(133.318 3.00831 1.20641e-20)
(91.7474 -4.29077 0)
(91.4979 -4.10935 -4.04129e-20)
(92.2703 -3.78969 -2.0479e-20)
(91.3402 -4.14667 7.82913e-20)
(91.5775 -4.31382 0)
(90.8694 -3.81112 5.56019e-21)
(91.3142 -4.13328 1.49779e-19)
(128.292 -19.3466 0)
(133.417 -15.7292 -1.6883e-19)
(128.295 -11.3148 -4.42309e-21)
(132.928 -15.2378 6.16804e-19)
(128.018 -18.6422 0)
(139.008 -8.72623 0)
(133.675 -14.6079 -3.7433e-19)
(129.283 -10.127 0)
(91.7696 -5.20104 -3.88991e-23)
(91.7627 -4.65005 -1.26706e-19)
(92.8636 -4.55537 -1.47589e-19)
(91.5875 -4.64289 1.12834e-19)
(91.4987 -5.20605 0)
(91.5864 -4.33208 2.66965e-20)
(91.5964 -4.61268 2.17202e-19)
(117.561 -23.2149 3.67672e-19)
(122.175 -22.0955 -9.60412e-19)
(91.5235 -6.53222 2.54445e-19)
(91.733 -5.90015 -3.02043e-20)
(93.5159 -5.65105 6.36064e-20)
(107.26 -28.3464 0)
(91.2519 -5.88708 -2.28966e-19)
(90.5954 -6.49195 -3.46781e-19)
(91.5027 -5.24552 -6.14437e-20)
(91.2736 -5.84114 0)
(107.023 -28.2406 1.79164e-19)
(107.666 -22.8443 7.82892e-19)
(111.746 -23.4416 0)
(109.045 -28.3235 1.6591e-19)
(78.1167 -7.64345 2.67865e-19)
(90.5136 -7.38545 -4.60067e-21)
(94.5207 -7.20517 4.02798e-22)
(98.3415 -23.4605 2.68835e-20)
(88.8644 -7.22279 0)
(52.728 -8.13814 1.18344e-19)
(90.5581 -6.53417 7.17079e-20)
(88.9191 -7.15789 1.42205e-18)
(98.9016 -24.1241 0)
(92.4154 -0.937183 -7.50871e-20)
(90.2118 -2.39774 6.90355e-20)
(87.7721 1.09998 8.49696e-19)
(87.9303 -1.53425 -4.04182e-19)
(85.9772 -4.86999 -3.16614e-19)
(80.6366 0.184459 2.0437e-18)
(135.713 51.41 3.51422e-17)
(111.579 57.9764 4.16238e-19)
(91.1519 -3.13388 -9.63697e-20)
(90.7492 -3.67137 1.81837e-20)
(90.0868 -4.31022 -2.98511e-21)
(122.227 -23.1808 -4.97449e-18)
(116.04 -17.3332 -1.54755e-18)
(113.37 -11.5667 0)
(117.066 -9.01195 5.03947e-19)
(106.82 -27.2961 3.10352e-18)
(114.683 -26.2917 -7.76861e-19)
(116.949 -25.9411 2.04861e-19)
(99.7607 -23.5665 2.28173e-19)
(103.401 -20.5159 -9.42153e-20)
(106.505 -22.3877 -1.84899e-18)
(89.8771 -4.44708 -1.29431e-20)
(86.7011 -4.98469 5.22357e-20)
(88.4792 -2.02523 6.15827e-21)
(89.3742 -6.7379 9.27789e-20)
(68.2045 -2.05646 9.5862e-18)
(78.5059 -11.3836 -1.61135e-18)
(117.413 36.2068 -9.35605e-19)
(134.604 29.4469 -2.09818e-19)
(125.533 20.344 1.31206e-18)
(117.289 -25.8497 0)
(119.545 -25.4055 0)
(119.755 -17.3896 0)
(121.991 -21.3979 4.56949e-19)
(117.469 -22.535 -7.20362e-19)
(127.341 -19.0287 0)
(122.65 -21.1674 -2.45746e-19)
(120.843 -16.9104 -9.88215e-19)
(106.424 -28.3613 1.24483e-19)
(90.7045 -26.8982 0)
(101.468 -26.3439 0)
(83.8422 22.8958 4.41856e-20)
(82.7679 10.2968 -1.07018e-18)
(78.7845 1.42571 7.41519e-18)
(113.985 38.7505 4.33174e-21)
(100.583 29.1036 9.60384e-19)
(85.471 25.4817 -4.16658e-20)
(137.899 48.9493 -1.57707e-16)
(129.824 36.6449 -5.18442e-19)
(136.49 48.6681 2.26492e-17)
(112.589 54.2871 -4.89588e-19)
(134.007 50.2803 -3.4563e-18)
(126.949 37.9318 -1.00752e-18)
(144.301 7.07564 -2.38978e-19)
(144.348 7.88688 0)
(136.519 -12.8337 -1.89584e-19)
(136.9 -12.3978 7.71866e-19)
(121.943 -24.5623 2.90491e-19)
(122.627 -23.2999 -4.99814e-19)
(124.875 -21.0861 0)
(124.285 -23.2121 2.35071e-18)
(122.535 -24.2461 1.39603e-19)
(125.395 -21.7566 6.35842e-18)
(124.376 -23.0824 1.19371e-18)
(125.555 -20.7842 -4.20756e-19)
(91.7988 -5.53606 1.79965e-19)
(92.7475 -5.49172 1.39336e-19)
(92.8522 -5.74544 0)
(111.922 -26.2512 6.49324e-19)
(113.996 -26.315 9.2978e-19)
(107.622 -27.4651 -1.02594e-17)
(91.3742 -6.95617 -1.43435e-19)
(93.38 -6.99236 1.01637e-19)
(93.5044 -7.37883 -8.88808e-20)
(93.2224 -6.56463 5.01457e-20)
(93.3413 -6.87773 -1.01108e-19)
(91.4072 -6.89074 -4.27911e-19)
(87.2979 -9.66083 -4.189e-18)
(89.1704 -7.06625 5.72294e-18)
(88.5364 -5.44575 1.97791e-20)
(89.264 -6.98219 -2.40976e-18)
(87.174 -9.13544 7.16075e-18)
(89.8681 -5.06137 -1.23508e-18)
(89.4481 -6.69187 -1.30167e-18)
(89.0041 -5.27209 0)
(81.6452 -4.00066 0)
(78.8258 -9.92339 1.28514e-20)
(70.3548 -1.62087 -4.46289e-18)
(86.6274 -9.40463 -1.2953e-19)
(80.0961 -10.2229 1.42047e-18)
(82.7457 -4.75955 2.75617e-19)
(79.9716 -11.6147 -2.76039e-19)
(86.8247 -9.98096 3.58315e-19)
(142.026 21.4616 1.84927e-18)
(141.603 22.4682 -6.35131e-19)
(90.7721 -3.63484 2.09191e-20)
(89.6389 -3.62294 -4.20179e-22)
(90.7787 -3.64234 0)
(90.4576 -4.0353 -3.93326e-20)
(89.9108 -4.0452 2.87199e-18)
(89.8568 -4.91192 -1.28071e-18)
(89.6823 -3.62972 -2.38131e-20)
(89.8815 -3.94275 -5.66179e-21)
(90.526 -3.92538 2.64237e-20)
(141.748 -4.35755 -7.22585e-19)
(141.995 -3.72216 1.19996e-18)
(141.503 -3.48742 0)
(137.551 -1.9072 2.10727e-19)
(138.244 1.57875 -4.36338e-21)
(136.029 -6.06698 6.99995e-19)
(137.231 -3.00618 0)
(141.266 -4.12453 0)
(143.657 7.91105 -1.13301e-19)
(138.334 8.01227 1.10281e-19)
(137.56 12.1516 -2.18444e-19)
(138.375 2.81006 -9.4266e-20)
(138.438 6.67623 -8.1564e-20)
(143.631 7.10448 4.41132e-19)
(91.4867 -4.21141 1.51353e-19)
(91.5026 -4.22371 9.20297e-20)
(91.0633 -4.00143 1.16312e-20)
(91.0958 -4.02647 1.17007e-20)
(130.483 -17.8014 7.54277e-20)
(125.659 -21.4789 0)
(130.838 -17.5274 7.72837e-20)
(91.5656 -4.89806 -1.19023e-19)
(91.5611 -4.93131 -2.95663e-20)
(91.621 -4.44262 2.59496e-20)
(91.6216 -4.46269 -5.23861e-20)
(122.217 -24.3545 -2.69183e-19)
(120.018 -24.9852 0)
(120.182 -22.6704 -8.64298e-19)
(119.841 -25.3224 4.83759e-19)