/*--------------------------------*- C++ -*----------------------------------*\
| =========                 |                                                 |
| \\      /  F ield         | OpenFOAM: The Open Source CFD Toolbox           |
|  \\    /   O peration     | Version:  v1912                                 |
|   \\  /    A nd           | Website:  www.openfoam.com                      |
|    \\/     M anipulation  |                                                 |
\*---------------------------------------------------------------------------*/
FoamFile
{
    version     2.0;
    format      ascii;
    class       volScalarField;
    location    "0.83";
    object      k;
}
// * * * * * * * * * * * * * * * * * * * * * * * * * * * * * * * * * * * * * //

dimensions      [0 2 -2 0 0 0 0];


internalField   nonuniform List<scalar> 
12556
(
36.90869254
36.90873675
36.90879834
36.90885975
36.95439462
36.9547223
36.95529618
36.95667484
36.95945805
36.96446746
36.9721519
36.98144485
36.98890155
36.99099955
36.98601723
36.97782255
36.96947712
36.96279408
36.95883227
36.95631369
36.91031074
36.909225
36.90872328
36.9084276
36.72745528
36.72765125
36.72783528
36.72815721
36.77364288
36.77531007
36.77880681
36.80662181
36.81954748
36.84286669
36.87890416
36.92311751
36.96010931
36.97292058
36.95372352
36.91591975
36.87521035
36.84246366
36.7993492
36.78501994
36.73277114
36.72976647
36.72819581
36.72738028
36.5473551
36.54781431
36.5483074
36.54901491
36.59512968
36.59938192
36.60780802
36.64409396
36.6757653
36.73171565
36.81676721
36.91289565
36.97933375
36.99666578
36.9665874
36.89589677
36.80418255
36.73037333
36.6553504
36.62330424
36.56197879
36.55439374
36.55085219
36.54939808
36.36865884
36.36910606
36.3698341
36.37147855
36.41854854
36.4275041
36.44527157
36.49873236
36.56506412
36.68746735
36.84260028
36.9862207
37.07773722
37.09525726
37.04411582
36.94129468
36.80663814
36.66804909
36.5411855
36.47893836
36.39790869
36.38432339
36.37747223
36.37474551
36.19186936
36.19240859
36.19368967
36.19699466
36.24620924
36.26194011
36.29555412
36.37551692
36.51039452
36.72310665
36.96719928
37.198943
37.3366403
37.34694956
37.239226
37.07074311
36.87672729
36.67873449
36.47381369
36.35873413
36.2459116
36.21975399
36.20741507
36.20255379
36.01667348
36.01737157
36.01946023
36.02508495
36.07866042
36.10536647
36.1646897
36.28659011
36.51605754
36.83475636
37.24128506
37.69213395
37.97670705
37.93422275
37.64052302
37.3308706
37.0311768
36.74777465
36.4649338
36.2686102
36.10673462
36.06023419
36.03969495
36.0315431
35.84376025
35.84492402
35.8485603
35.85775512
35.91635166
35.95788335
36.0522222
36.23633063
36.56445656
37.03708934
37.72776392
38.83174997
39.61852761
39.40527747
38.402576
37.77165043
37.28696017
36.87887115
36.49211322
36.21454336
35.97984224
35.90611601
35.87363052
35.86080342
35.67360336
35.67541017
35.68099246
35.69442608
35.76106686
35.82125077
35.95955789
36.21334224
36.64186919
37.29738755
38.39105762
40.75881471
41.96113037
39.67397635
38.4152421
37.64784102
37.070712
36.55339265
36.19002611
35.86744938
35.75800031
35.70964518
35.69074338
35.50766579
35.51060743
35.51918654
35.53880695
35.61480059
35.69662822
35.88434711
36.20579799
36.73470678
37.5601515
38.97167174
42.42323288
46.13544945
41.27298167
39.20664354
38.08613803
37.30867122
36.63946512
36.18960599
35.76943694
35.61792378
35.55003945
35.52376831
35.34668414
35.35085575
35.36261412
35.38951586
35.47694237
35.58337242
35.82203324
36.20500809
36.82804988
37.7884553
39.38199891
43.07819519
49.17047782
42.74890533
40.01712305
38.55749426
37.57015847
36.7406108
36.2023237
35.68619467
35.48878935
35.3986833
35.36384554
35.19222035
35.19816722
35.21425747
35.25110529
35.34671434
35.48041853
35.76874446
36.20880873
36.92075865
37.99372839
39.73275834
42.99558782
50.70292401
43.867531
40.74837755
39.00853187
37.82828101
36.84372621
36.22037267
35.61622804
35.37318617
35.25960515
35.21532608
35.04409458
35.05162088
35.07164298
35.11795763
35.22371238
35.38581942
35.72081266
36.21670118
37.01327755
38.1941154
40.08119803
42.60232281
51.35298828
44.63288685
41.34079851
39.39999243
38.05764308
36.93772608
36.23897194
35.55951845
35.27146785
35.13511113
35.08108483
34.90316978
34.912816
34.93854618
34.99578228
35.10761616
35.29686233
35.67436317
36.22614049
37.10674856
38.4012806
40.46585409
42.06298733
48.41321887
51.13439116
45.12376155
41.77680529
39.71537154
38.24201833
37.01411979
36.25393382
35.50970731
35.18312508
35.02498659
34.9617239
34.76809098
34.77976114
34.81076786
34.87684985
35.00326861
35.2272274
35.65275608
36.25241972
37.22546811
38.65946474
40.91189169
40.82442032
55.96131336
51.07401899
45.38846906
42.08956939
39.93747913
38.36883339
37.07008786
36.26100227
35.46068671
35.1039897
34.92658665
34.85498328
34.63850949
34.65210828
34.68803031
34.76240193
34.89906778
35.14812678
35.60519468
36.2415725
37.27449363
38.81705414
41.19955072
36.76835182
55.28364788
50.5925871
45.44541419
42.24529016
40.06753081
38.43974001
37.09910388
36.25187496
35.41030842
35.02971771
34.83585535
34.75729516
34.51208412
34.52752146
34.56788486
34.65021955
34.79719195
35.06726858
35.55128303
36.20723521
37.27281023
38.86488781
41.17068823
32.00647766
53.29528453
49.89398513
45.3886066
42.31039173
40.10294487
38.45474072
37.09655088
36.22007275
35.3511332
34.95356346
34.74792222
34.66363657
34.38869144
34.40578441
34.44979803
34.53899973
34.69524773
34.98237055
35.48858567
36.15932529
37.22054816
38.80470313
40.82564945
30.73773361
51.15047997
49.25254845
45.178039
42.22224535
40.04183174
38.4202993
37.05481669
36.16656877
35.28324998
34.87488576
34.65925625
34.57031597
34.26534492
34.28391332
34.33102477
34.42651243
34.59151954
34.89193962
35.41482106
36.10305892
37.15164422
38.6648721
40.39236876
31.73767151
48.58635422
48.58939794
44.84865991
41.98120296
39.88141056
38.32073155
36.97138893
36.08672779
35.2002842
34.78612567
34.56580822
34.47335413
34.14321006
34.16301391
34.21242838
34.31275405
34.48478007
34.79533104
35.32999799
36.02953415
37.08701819
38.54506093
39.96362724
31.98024432
46.12253632
47.7459197
44.36023011
41.65932162
39.67755386
38.17903179
36.86052536
35.98698943
35.10532377
34.68942704
34.46632888
34.37187015
34.01881332
34.03966394
34.09104175
34.19586151
34.37449764
34.69265904
35.23521941
35.94094473
37.00069467
38.42193169
39.51678343
29.6899933
44.48455673
46.78563554
43.84216819
41.3338869
39.45447322
38.01288279
36.72990752
35.87123538
34.99866954
34.58346818
34.35902393
34.26322777
33.89532945
33.91699112
33.9696659
34.07742184
34.26055244
34.58446898
35.13198016
35.84039188
36.89703871
38.26627341
39.02845057
27.50874675
43.01880794
45.87680805
43.34960794
41.01607134
39.22503417
37.83379156
36.58545459
35.74319289
34.88322693
34.47092955
34.2462208
34.14960237
33.76806133
33.79040428
33.8443674
33.95532799
34.14331035
34.47158636
35.02191715
35.73063094
36.78044131
38.08577283
38.5081001
25.80789747
41.62058862
45.01353101
42.87666399
40.70988301
38.99621614
37.64887313
36.43202366
35.60618299
34.75927265
34.35035028
34.12572929
34.02857486
33.64292166
33.66575359
33.72045407
33.83295939
34.0232416
34.3549694
34.90659239
35.61401586
36.65405736
37.88567084
37.97540243
24.47179917
40.29682727
44.19108199
42.42082204
40.41503563
38.77172112
37.46246743
36.2733719
35.46298947
34.63076887
34.22638995
34.00225405
33.90475363
33.5125726
33.53585368
33.59160483
33.70680043
33.9010844
34.23558183
34.78743988
35.49251428
36.52016003
37.66817425
37.44231481
23.40103831
39.04661714
43.40528732
41.98102519
40.12989721
38.55301314
37.27721768
36.11223182
35.31589315
34.49635478
34.09565228
33.87174963
33.77392043
33.38690211
33.41048247
33.46672465
33.5825713
33.77734761
34.11430874
34.66575223
35.3677686
36.38025429
37.43523572
36.91469464
22.515823
37.87504601
42.65495502
41.55652256
39.85332043
38.34028081
37.09461643
35.95049088
35.16657519
34.36126161
33.96530112
33.74184485
33.64372445
33.25377915
33.27770367
33.33502167
33.45371491
33.65276912
33.99187349
34.5425669
35.24102565
36.23503967
37.18838521
36.39513119
21.75935313
36.7853595
41.94064489
41.14651252
39.58459723
38.13320368
36.9153612
35.78937926
35.01635152
34.22113776
33.82803398
33.60447583
33.50594964
33.1294385
33.15357871
33.21129876
33.32995265
33.52761264
33.86886144
34.41868147
35.11310707
36.08472701
36.93045477
35.88425356
21.09413512
35.77445086
41.2649093
40.75019694
39.32322807
37.93140388
36.73973161
35.62970758
34.86607857
34.08418438
33.69564322
33.47229117
33.37336322
32.99357342
33.01804022
33.07698009
33.19909659
33.40258338
33.74572648
34.29465443
34.98446566
35.92944966
36.66538323
35.38154366
20.49807401
34.8380544
40.62293704
40.36669262
39.06871598
37.73450124
36.56776246
35.47195807
34.71650849
33.94084262
33.5538486
33.3299701
33.23046637
32.87289597
32.89756298
32.95689734
33.07826672
33.27759313
33.62282964
34.1708848
34.85533761
35.76951961
36.39643263
34.88620503
19.95858421
33.97113767
40.01001959
39.99518387
38.82059985
37.54216406
36.39939122
35.31642149
34.56794425
33.8057441
33.42325876
33.19935957
33.09931307
32.73346153
32.75849032
32.81921263
32.94494792
33.15347546
33.50047909
34.04765594
34.72581152
35.60539558
36.12461382
34.39749993
19.47336001
33.16813279
39.42298701
39.63484828
38.57841152
37.35406124
36.23447452
35.1632466
34.4209076
33.65952358
33.27703861
33.05224977
32.95145121
32.61946373
32.64471388
32.70589962
32.8301747
33.02970443
33.37892045
33.92518481
34.59590913
35.43763083
35.85042676
33.91490216
19.03994789
32.42387993
38.86074547
39.28498236
38.34171793
37.16988287
36.07284678
35.01251315
34.27531749
33.53015307
33.1523512
32.92735361
32.82590857
32.47430194
32.4999836
32.5626778
32.69217577
32.90753207
33.25841108
33.80365496
34.46563569
35.26675996
35.57440667
33.43814101
18.65189093
31.73356719
38.32173425
38.94500392
38.11016167
36.98936034
35.91433641
34.86426346
34.13176942
33.37879825
32.99951888
32.7734118
32.67105838
32.37122838
32.3971626
32.46049161
32.58829024
32.7858047
33.13920029
33.68322972
34.33499357
35.09328294
35.29717931
32.96696843
18.3039279
31.09311655
37.80515552
38.61444617
37.88342591
36.81223484
35.7587248
34.71857193
33.98983283
33.26093728
32.88625582
32.6597402
32.55671947
32.21627371
32.24273342
32.30761659
32.44038395
32.66689496
33.02180021
33.56422269
34.20402063
34.91766399
35.01915435
32.50131218
17.99177669
30.49967357
37.3107775
38.29300936
37.66128886
36.6383241
35.60592317
34.5757981
33.85081114
33.0979063
32.72156745
32.49389421
32.38981285
32.12993919
32.1567002
32.2224316
32.35554929
32.54919505
32.90718797
33.44765341
34.0727564
34.74025528
34.74069908
32.04180692
17.71294812
29.95144451
36.83835338
37.98046891
37.44359379
36.46747851
35.4557857
34.43714073
33.71470811
33.00221458
32.62776982
32.39948535
32.29480282
31.93312892
31.9606771
32.02856022
32.16685735
32.43892837
32.79792031
33.33711944
33.94163699
34.56220661
34.46430112
31.59236303
17.46573214
29.44894654
36.39149065
37.6794521
37.23123832
36.30003243
35.30839685
34.30631175
33.58674287
32.79277008
32.41696461
32.18712263
32.08104479
42.28959449
46.57374702
42.30434961
43.05111993
49.96988421
47.00616328
43.02932326
51.62488703
50.26143508
42.66423221
52.28691889
51.737166
42.10044216
44.14461482
47.49430769
52.55813595
52.32411377
41.24823239
53.67758786
44.55813079
55.67740678
53.017389
52.57722255
40.46270644
39.53372193
41.89801104
39.35945986
49.40004889
43.6100507
45.6585075
41.63439211
40.15333224
39.28907961
42.28405166
41.62140873
54.50339021
55.02321869
48.88604353
43.48168579
42.13227767
39.64709719
42.52372734
42.34678786
43.10476179
44.60953883
45.46661536
54.02144676
53.5087727
50.57888678
44.83339516
43.8757895
40.00392382
42.42233425
42.5209037
42.87041985
41.47258975
43.18934326
55.07482078
54.49561031
40.37590549
42.18499603
42.40232616
42.38591999
37.24416002
39.41138258
39.46612043
55.67675758
55.47040635
40.82564539
41.72472321
42.14317007
41.76589576
32.19604717
34.31337963
39.80155471
54.60689491
53.97676053
46.04180817
47.5267018
42.74178479
45.71234442
54.86921632
49.69719214
44.68453228
48.89734947
53.58908526
45.57220886
46.23349183
42.86285921
46.78217097
45.64997103
47.54755162
46.91563716
53.55809427
54.37373319
48.66274554
55.00481103
54.58857375
53.8153207
55.04008607
48.43138565
43.35456918
44.4663331
43.09737085
44.19609545
42.61271445
45.57723663
44.29390667
54.38777099
54.08437959
51.16671411
55.04102004
55.22472167
54.56945473
54.99591628
50.98235228
39.53140765
41.36408939
42.82308711
40.53496091
38.29904733
42.50554517
40.65862291
55.44315836
55.1323178
34.4497436
37.0866872
42.35362857
39.75226779
35.39926513
32.80014588
38.17008177
35.58615517
40.17371366
55.94754533
55.70444282
39.50731536
39.95624002
32.13541804
41.72328461
50.8156066
32.0074726
71.12606185
32.72364965
32.00240754
50.1942247
38.84632699
41.50193843
40.18435342
41.56002792
44.88193933
42.39063923
57.89854009
45.62814986
42.76679302
46.31436644
46.5328022
43.99505554
51.31583786
45.69633905
45.09834445
48.31325702
50.39944061
49.15066563
52.98796821
56.19352395
56.01578908
46.41582692
45.1393869
41.77794127
51.99157598
44.38731543
50.2678973
43.27955401
48.05368908
44.11059034
48.79783499
45.50703907
52.09285819
55.36666982
55.46569286
55.23716735
55.35233521
52.02541766
40.37681519
43.86602719
46.90073113
41.0154378
40.61742536
42.36983121
43.20484422
41.09305722
41.08581982
61.58900357
46.74157149
57.52661037
44.96475621
54.69672079
45.9919323
55.34752061
55.38153101
53.72271169
53.69038624
41.26310974
42.80750981
54.87258007
41.59486214
44.07174287
44.00290352
41.57519022
54.80752988
38.42097528
42.00109782
41.68428403
52.694359
51.0684763
44.86348996
33.42681559
39.99316336
39.53024213
40.57964502
40.15807315
33.58369145
55.41629206
52.36002821
46.79349269
52.61126558
53.51952026
49.0619839
52.34042007
46.99989123
44.10123643
48.33952824
43.8587019
52.91951156
48.97266305
44.56342774
50.83116848
55.28478191
52.79813542
52.43271302
46.24615944
42.97508579
46.17380836
47.37431466
45.86834748
48.60956092
43.3124583
45.50255492
47.27432358
54.03916874
54.11564755
54.79654303
52.24307248
51.63651425
52.86641099
52.4157132
54.76408508
54.89014315
50.32316429
49.34436137
51.4071396
50.61626336
54.97998301
43.47738409
43.3750372
45.01996095
44.93888133
54.48858575
44.48889113
54.4408652
39.64879755
39.49565739
41.64501726
41.51959608
44.60420181
48.17511872
55.28468619
44.85048175
41.41394954
36.06310359
41.10702414
40.71736358
41.57401928
41.22872935
36.19309956
39.86480758
34.58994543
34.48388679
37.26447919
37.13305803
49.28969921
41.94553154
54.1977035
53.13681704
39.35246488
38.92681615
31.87119411
33.47856654
41.47148224
40.71821652
32.32995799
60.48279678
40.81403458
53.85462408
32.266754
47.84234072
42.22137057
40.32188731
55.89016796
39.84153157
39.93378261
41.14687211
41.30727957
41.64632281
40.34861522
32.85899262
40.83972107
55.79559655
52.43937346
52.94241618
48.98862396
40.0792151
41.70015242
55.15923859
54.47657583
42.83123112
56.26606846
56.22585668
53.43079281
42.49864859
41.98145452
44.05120362
44.99219713
42.29856759
42.48106734
54.94306883
56.9248414
56.12275996
55.33066176
53.84436904
46.18731317
46.78405233
48.34387332
47.60452547
53.45582668
42.24651278
43.37990187
43.15243753
43.66549389
43.45316376
42.37102341
42.39064829
42.10067417
38.54762093
32.49674528
36.88101416
36.48514579
63.54814514
48.25688383
54.29981855
54.12843698
57.72666521
57.12355555
51.15121818
47.39729209
46.07785715
48.98416757
47.81528443
51.4853799
53.73700725
49.4675486
48.64710679
54.18170187
43.85282948
43.91803628
43.73222832
39.45086786
39.90933431
42.94587279
47.05376497
47.39182222
54.23661434
55.14489568
53.7674693
53.64413452
54.63307871
53.30424348
52.98946674
53.59461887
53.3862497
54.64957588
40.46055801
42.74652817
42.48255682
43.07413377
42.83089402
40.5836594
40.16431083
35.44381441
35.72311673
33.51950452
33.70001868
38.73669219
42.14778294
38.72914771
39.31807158
35.830213
36.13314583
41.02828046
55.32357483
48.63757342
51.68267079
52.55845573
39.3642617
35.01639988
33.43109821
37.78522953
33.25277349
33.45878104
32.79360028
36.44723885
45.416337
39.34414013
37.73644212
37.01342498
36.35770823
35.97903093
32.02689458
40.44207246
42.50874434
52.48316588
32.04833722
78.28261537
43.08058845
41.71244488
47.21389146
32.55118406
32.04715566
52.37356791
51.10587718
51.46296243
44.33925921
44.47331624
41.04354389
39.99376744
48.50271907
50.34828559
50.25790853
46.54753684
53.86087429
46.55770456
54.19901814
47.25893181
41.57933303
40.24841029
47.11272762
43.30903591
45.97908732
43.88910081
39.99022171
41.76611595
45.07009438
52.84444711
39.9970046
43.24148923
57.90096639
39.4348925
39.64501029
39.94017024
39.47564619
51.95719722
62.31835333
52.52502767
49.40167279
55.967819
53.21493399
48.80278351
46.19317112
50.39448266
54.68252276
54.16508994
55.11062755
55.37924828
55.87082223
54.98956865
46.80206817
46.27477414
53.78949509
46.39711899
46.94505142
45.33932099
46.12717594
47.14359673
53.49966259
47.49681622
46.96360056
41.11553262
41.31372416
42.13531597
51.4437091
50.75335872
42.61022587
49.37017271
48.22436398
50.48451823
49.71833336
42.21323742
40.44081799
43.41614596
41.69562935
37.43886703
37.00060803
32.72973638
33.88706069
37.92793001
37.56290831
54.30195425
53.8544792
53.50691403
49.3006841
49.79026241
48.39740443
49.09821962
53.76988539
51.06687323
49.87469642
49.68550831
49.87860658
49.90125933
51.29623279
51.50302452
47.3335263
48.15961073
53.92424164
54.29728698
57.41792277
57.18694722
53.80335506
58.32579031
58.91905981
58.95937099
57.93871781
56.79227607
59.098239
57.86683173
51.26290768
56.14621517
57.43127961
41.78976695
46.35541786
45.60644446
47.06330083
46.55865569
42.26962594
44.55787984
44.03364523
45.344993
44.73790212
46.97438398
48.99627362
48.53021466
49.56711363
49.14631953
47.36759471
44.19156654
47.72796474
47.23288539
48.37194535
47.89084273
44.51118826
50.53510315
49.66928743
53.80925059
54.19509319
51.73409847
50.84573703
39.08838563
38.6366997
39.87213871
39.24724117
37.91784572
37.48259447
38.49421603
38.0493894
43.18618307
42.68228452
43.86360588
43.35867976
41.67557404
40.26458496
42.4975567
41.98963734
46.08628209
45.23317744
47.88484414
46.58540616
45.05558901
44.55340339
45.14231295
44.93326593
44.43058746
35.0410677
35.34261674
40.03977056
33.97233106
33.75125345
34.26287228
34.05181851
33.64640395
38.9228144
33.77303698
34.85294991
36.7931403
38.46421876
42.02629919
36.51371162
35.16828596
37.38934464
36.78872239
34.63606852
34.35731063
35.07763033
34.74558581
41.15083825
36.23859927
36.58848945
45.99456302
43.17041752
45.38430149
42.97660824
45.25513626
42.63781657
54.32251511
39.38662459
52.60908639
47.63633753
34.91053528
33.88106838
33.00374698
33.19038768
37.65618077
36.66977629
32.83470724
32.95279954
49.11431011
31.98661092
35.81447893
35.08946438
61.04198762
67.51272347
31.98252724
71.13895437
53.03123611
40.83187105
32.48589278
60.36496938
42.24677909
69.50119666
43.48731499
32.15039776
41.59055314
39.70066614
38.60063583
47.64909059
47.36845786
51.7449604
46.2095049
45.8658498
47.55671006
42.35254243
39.63696307
39.33549317
55.47003868
55.30654663
52.44827431
43.98370151
43.57094451
45.62653744
49.5473359
43.96086976
44.08960865
40.61718098
40.92850764
42.94003661
48.16873939
51.04783061
53.47674866
45.00425304
44.29041843
44.17417627
44.40413449
44.32294632
45.12586102
45.77110023
44.05165206
39.85903588
52.20269751
53.39947908
55.59529034
38.39251767
38.04347788
33.99929989
54.17709806
55.84580908
50.90741372
44.12877742
43.97464226
44.01149096
43.88964525
41.29878544
41.86804824
42.14067588
42.97587537
44.58641663
35.20458456
38.8696844
38.50721002
43.32072583
41.86708988
39.55199088
32.3359931
32.35416487
32.90939574
41.05817983
50.05828044
46.15250908
40.08973852
48.16682362
46.27956636
32.01215264
32.66436418
32.3181404
32.32915301
32.00575047
58.25401369
44.04638895
40.3240869
41.06194643
47.88774433
40.5872891
41.80441787
50.54339641
51.3768414
45.62212651
44.21703548
45.82427374
47.57793247
40.11111747
40.29806403
55.50346348
57.29767837
58.66485654
50.59899994
56.2133185
42.04992868
42.30013778
44.49790927
59.34647616
55.54747531
53.449449
62.29645909
60.18133442
41.15884946
41.71429956
41.31163279
44.91926758
44.27893591
42.01325088
52.29189542
51.68342852
42.49242106
44.01735994
42.39123422
42.44807364
42.49408903
39.68383977
39.86902876
55.15911504
55.79793157
52.89834431
52.92858662
52.07840725
51.92384718
49.53727548
50.37658299
50.05681016
51.77198516
51.58562884
51.98349603
46.09217352
47.06739895
51.04564227
52.08609366
56.33789914
53.39793681
56.64129908
56.95144971
54.81238399
40.43695552
42.23176227
41.7674454
45.35757867
45.15520496
42.76988605
39.95205834
39.74706165
41.39228736
41.09461402
46.23682332
48.06668545
47.78729328
49.75957375
49.47420566
48.18160249
43.56574871
45.88445517
45.6463011
47.50527739
47.23071521
45.16515798
40.67274448
41.13860227
43.79020198
43.05112779
40.05757503
40.52033591
43.80769727
44.25261062
45.26996215
38.50243342
38.37223546
39.56098714
39.39482261
36.64609496
38.17351794
38.0632828
44.67461598
43.18303412
43.65283058
44.96349549
45.048429
42.7193561
42.9362018
44.47946783
45.20370893
45.54179839
54.28342254
47.56096208
48.78651021
39.3229436
38.98607783
35.49204822
36.56938933
39.72718081
39.42393736
33.0366362
33.1078618
34.70452862
34.33410471
32.88485912
32.98409311
49.42885064
31.99809952
32.54108295
32.06051005
107.4610446
32.59378735
40.96286242
49.41140964
45.56507565
32.15454891
32.1767687
32.36841351
59.54102223
64.04211163
62.16220082
48.5551756
32.24724295
32.13058569
32.14707129
40.35624588
41.65648282
40.28643472
47.520229
47.17388366
41.89574723
41.09259818
39.80155463
50.94490927
50.76816141
54.23959468
40.37508693
46.33565851
43.72576304
46.62843983
45.98396546
40.8575023
43.29976112
43.75732823
46.80281792
53.21833739
53.49143756
52.79828052
53.01906098
56.67708471
56.1481782
56.33209472
55.77089835
55.96597287
56.38628233
48.07200616
48.84635092
49.02727537
48.572914
48.66545749
47.91661272
57.48805574
56.68011833
56.64685806
56.49363297
56.62875457
57.30214236
49.10071468
49.64531928
49.84864112
49.23169393
49.42979995
48.87023825
52.22852751
52.39734485
51.69188969
51.85064354
35.5248981
37.48889258
37.37236807
33.59116103
34.63622645
34.54529949
34.91268328
34.7434634
33.64296423
50.52096414
51.47874065
46.77452384
51.09470765
32.71946166
32.69106119
32.78666095
32.75435761
32.69130256
33.09629029
32.38786751
32.49335914
33.32649198
34.31229584
34.22926342
34.46791216
34.3891711
33.38978288
32.89133105
32.835421
33.2868041
33.03170291
32.99980203
50.88886938
49.5451619
42.50799296
51.37692874
33.68416565
33.04686571
39.79290234
32.04954342
33.18748545
33.05448503
31.99197128
75.72080358
76.67249105
62.23311161
66.5795733
57.56724179
32.26563138
32.29447477
32.60990741
32.02206143
55.44809344
60.40856612
55.89528625
56.79361129
53.80954371
47.59961726
59.12722536
54.3498488
44.45459321
44.84237508
48.56256427
42.14497426
44.34804938
51.08227722
48.80030785
51.17785136
47.69643382
50.14293392
55.63132268
57.06286951
50.91222241
54.57072474
57.72791675
45.63460304
46.6053049
45.35890731
48.59397599
55.11173495
55.24232209
53.55010426
40.62616687
49.51738833
45.19461709
54.18798544
54.91008169
41.8082589
43.60102858
46.08602178
56.98985843
47.81809536
40.95527893
41.90868158
58.91401701
55.97350331
59.06251646
54.89814616
57.18905913
59.40538416
60.46757802
59.74395643
54.28487907
54.50578867
54.72943777
53.98413283
54.14902682
54.08745166
55.55854081
55.37233112
55.5794676
54.95103044
55.16364043
55.28326478
46.61368569
49.40087539
49.40293643
46.54949054
46.82329432
45.58041289
46.3423404
46.13930407
46.03533556
47.48499406
47.77637472
47.1676968
48.81360911
48.58740026
49.35059572
49.15357555
47.08293585
44.11205962
42.70388581
41.07983676
45.1579036
44.81410453
44.73763777
41.64880764
44.33984748
44.03461517
42.59252952
42.43029898
43.10804013
54.774462
53.33037782
51.03237135
50.70996234
49.99613217
51.73001632
51.42454259
51.19516669
57.43683355
57.09894386
53.1648006
57.44379856
59.3582377
54.65999655
57.31171124
57.43176178
57.35504172
56.15794247
56.01660592
56.44348945
56.36990079
57.30132008
58.58483797
58.71908347
57.60394067
60.12279122
60.0767522
59.86670282
60.07749604
57.4034806
59.20000446
59.76964701
60.96226099
59.17944201
44.16711791
44.02919299
41.70178794
42.41184713
44.82619081
44.68117499
40.37931247
40.15958297
40.84131543
40.60438058
48.62706335
48.34479048
46.58958525
47.77144565
49.19228836
48.90962614
46.41813854
46.1641299
43.90853253
44.81482896
46.95311749
46.68917838
50.29609764
50.49683506
50.7119698
50.0652164
50.28033559
49.95373652
51.41882741
51.26613963
51.38572974
50.92522776
51.11481273
51.1799678
38.93209824
36.6079328
36.73700285
36.37057231
36.49476631
38.78561212
39.61594963
37.16000964
37.35467675
36.86285592
37.00657683
39.42055755
37.76126915
35.67846817
35.80290548
35.47622998
35.59996971
37.64519666
38.34446824
36.13173267
36.25971126
35.89598549
36.02524023
38.20446411
38.84615038
38.69736665
43.02011512
41.22868714
41.39668216
40.8786349
41.03192884
42.84376943
39.20142126
39.03830938
37.51093742
37.34969128
41.43578541
39.67751082
39.75180269
37.64226399
38.06528705
40.82671627
42.34566819
40.53948362
40.66687877
40.19403581
40.28778545
42.13522401
37.8556275
37.76128085
44.41011723
44.67917604
44.7495062
43.30014689
43.71870542
44.73589848
45.5973615
45.50849794
45.91338431
45.86236216
44.94067775
44.59412124
44.47439458
44.1230344
45.23711559
45.05279803
44.44120692
35.14314673
36.98131883
36.85613814
37.24270905
37.1308063
35.26290045
33.90829442
33.82102697
34.19168082
34.10955487
33.61509905
33.69609757
33.94095372
35.78479582
35.22409789
36.6176752
36.38239158
34.53764011
35.47368347
34.97535291
35.02505034
35.27867102
37.19472201
35.27746363
35.4061465
35.08652369
35.21098872
37.10956937
34.54326177
34.44017849
34.96434526
34.84744195
44.8582755
40.69116004
41.09173215
40.29459446
40.44281637
45.09338231
44.57827072
44.4545351
41.61128959
42.82666382
45.62640264
51.75269867
42.14353473
43.7213816
40.0997159
40.99463805
52.35778993
32.59991486
32.55944121
32.66448994
32.63559635
32.59591008
32.8302477
34.1738299
32.41259007
32.31553836
32.51020948
32.45379363
33.06431052
33.9848683
33.90174404
34.14935353
34.06469849
33.12172826
32.86620022
33.64216095
33.53833448
33.8204669
33.73944982
32.91049534
48.71365355
32.99117406
32.72500285
31.96020395
58.84436146
85.43046652
90.89048923
84.11197711
85.18590336
63.53013605
32.23017827
62.74505802
46.87535615
49.60793144
32.42856525
32.19429014
32.23284584
60.56319916
66.68801657
65.31055229
52.9228124
59.00343314
71.22103233
66.98917843
45.70743807
63.22231342
56.13364828
32.54203365
32.01414705
32.10452851
36.68342732
36.7014075
36.81531097
36.70917928
36.74190134
36.83553361
36.7549696
36.80599808
36.86829105
36.82449677
36.88938737
36.91132845
36.90843312
36.95793724
36.952087
36.96892865
36.98539742
36.97284445
36.98571781
36.9688686
36.96112234
36.95869474
36.91212561
36.92686486
36.89390069
36.83387461
36.88535969
36.81631898
36.76712053
36.8500124
36.53317837
36.5712848
36.66608638
36.58856935
36.65885392
36.71545222
36.68880649
36.79370567
36.7935925
36.82849781
36.92872965
36.89175818
36.9580433
37.02791963
36.96725297
37.042915
37.06265813
36.99677723
37.06023852
37.03237689
36.97809877
37.01621787
36.94983095
36.91569292
36.92316072
36.83251972
36.82546342
36.80076459
36.704571
36.74548097
36.40431946
36.48168168
36.54427295
36.51765228
36.65633333
36.65004664
36.70720587
36.86917127
36.8036168
36.92423074
37.08152128
36.95366345
37.12680059
37.23205921
37.06191547
37.25402976
37.27436328
37.0976895
37.26031244
37.20302375
37.06261746
37.17486348
37.06975772
36.97057299
37.0288504
36.8973674
36.84247484
36.85190147
36.71626993
36.7012794
36.30507894
36.44801079
36.46715667
36.50965772
36.71904353
36.6663888
36.79838791
37.06262038
36.90493227
37.15584316
37.4429421
37.14509411
37.52651546
37.73363191
37.31644524
37.77688994
37.78322964
37.34943309
37.71679106
37.57319727
37.27349812
37.51260973
37.31849411
37.11703726
37.25101847
37.04991683
36.92646951
36.98344719
36.7900157
36.72831077
36.24557809
36.46363122
36.44901036
36.54927567
36.85762448
36.7466274
36.97902152
37.41255252
37.13265015
37.58353267
38.20555467
37.57476494
38.43228099
39.27820251
37.94301841
39.29426794
39.07458088
37.94168091
38.78366286
38.32402763
37.716583
38.16867417
37.76260411
37.40792072
37.64149449
37.3141578
37.10435616
37.21295308
36.92989476
36.81785896
36.21775732
36.50639513
36.47208759
36.62201968
37.05319319
36.90163576
37.23110086
37.91677219
37.52737724
38.22092849
39.936255
38.47515118
39.3775131
40.01348429
39.09143274
40.63822988
40.68480568
39.61156309
40.14888463
39.5156768
39.10422297
39.30854802
38.45594855
37.91052626
38.23857571
37.69887098
37.39932492
37.54578569
37.14010701
36.97531018
36.20685208
36.56411335
36.51845676
36.71122481
37.26511668
37.10479617
37.49743223
38.42092084
38.0516286
38.55535448
39.01625096
38.80725639
41.04523482
41.7035544
41.34623751
43.52236874
42.29251542
41.13784601
40.86888639
39.3600967
38.66310247
39.01091096
38.19351091
37.8159585
37.97330963
37.40949056
37.20220692
36.20480424
36.62874759
36.58004789
36.8047449
37.4612259
37.31634493
37.73424029
38.8042682
38.52770649
39.08584751
39.66299395
39.52904751
42.54178807
43.52735467
43.40029456
47.47233802
45.05285634
44.04770382
42.40764519
40.31312182
39.59232484
39.83571331
38.73321301
38.32274079
38.44214395
37.7115512
37.48239996
36.20752305
36.69544062
36.64531187
36.89744626
37.63942322
37.50710097
37.94343495
39.115933
38.88581155
39.47190135
40.11077559
40.00554427
43.09688357
43.97097707
44.01335029
49.89518029
47.03985313
46.40977305
43.61773775
41.16182526
40.52791451
40.58768035
39.25700706
38.86258298
38.90215776
38.01607552
37.78822171
36.2137551
36.76335111
36.71252313
36.98965722
37.81069083
37.68266153
38.14335404
39.42028396
39.19017074
39.82299444
40.52010358
40.41720012
42.95749404
43.37504769
43.52743934
51.03271869
48.15379947
47.84680241
44.4568624