/*--------------------------------*- C++ -*----------------------------------*\
| =========                 |                                                 |
| \\      /  F ield         | OpenFOAM: The Open Source CFD Toolbox           |
|  \\    /   O peration     | Version:  v1912                                 |
|   \\  /    A nd           | Website:  www.openfoam.com                      |
|    \\/     M anipulation  |                                                 |
\*---------------------------------------------------------------------------*/
FoamFile
{
    version     2.0;
    format      ascii;
    class       surfaceScalarField;
    location    "2.27";
    object      meshPhi;
}
// * * * * * * * * * * * * * * * * * * * * * * * * * * * * * * * * * * * * * //

dimensions      [0 3 -1 0 0 0 0];
oriented        oriented;


internalField   nonuniform List<scalar> 
25162
(
0
0
0
0
0
0
0
0
0
0
0
0
0
0
0
0
0
0
0
0
0
0
0
0
0
0
0
0
0
0
0
0
0
0
0
0
0
0
0
0
0
0
0
0
0
0
0
0
0
0
0
0
0
0
0
0
0
0
0
0
0
0
0
0
0
0
0
0
0
0
0
0
0
0
0
0
0
0
0
0
0
0
0
0
0
0
0
0
0
0
0
0
0
0
0
0
0
0
0
0
0
0
0
0
-5.658818922e-09
-9.666478654e-08
1.082445507e-06
0
9.868736872e-09
-9.201942262e-07
0
0
0
0
0
0
0
0
0
0
0
0
0
0
0
0
0
0
0
0
0
0
0
0
0
0
0
0
0
0
0
0
0
0
0
0
0
0
0
0
0
0
0
0
0
0
0
0
0
0
0
0
0
0
0
0
0
0
0
0
0
0
0
0
0
0
2.62908772e-08
1.66335615e-06
-2.397283339e-06
-1.053388197e-05
9.258044109e-06
9.315718358e-05
-2.12681702e-05
-0.0001317172576
1.160210115e-05
0.0002437148399
-1.940287563e-05
-0.0002726717064
-2.408525264e-06
0.0003143124402
5.223452021e-06
-0.0003106495607
-1.241017048e-05
0.0002488383773
2.292318831e-05
-0.000214465011
-5.764862306e-06
9.604836226e-05
1.569950919e-05
-6.001159402e-05
0
1.7932728e-06
3.643307358e-07
0
0
0
0
0
0
0
0
0
0
0
0
0
0
0
0
0
0
0
0
0
0
0
0
0
0
0
0
0
0
0
0
0
0
0
0
0
0
0
0
0
0
0
0
0
0
0
0
0
0
0
1.273898577e-06
3.704653358e-06
-6.500265854e-06
-2.646723857e-05
4.548595935e-05
0.0002312942735
-7.041920272e-05
-0.0003307086764
7.905088151e-05
0.0006605836349
-0.0001021843403
-0.0007676450204
4.416891602e-05
0.001034918634
-5.033224901e-05
-0.001098201438
-2.601088348e-05
0.001190031615
3.776068069e-05
-0.001185492723
-7.42090345e-05
0.001065125987
9.738901734e-05
-0.0009914818549
-7.06487664e-05
0.0006933750826
9.584644021e-05
-0.000578073173
-2.73883135e-05
0.0002429353777
4.529886527e-05
-0.0001513596003
0
3.787397801e-06
1.037250514e-06
0
0
0
0
0
0
0
0
0
0
0
0
0
0
0
0
0
0
0
0
0
0
0
0
0
0
0
0
0
0
0
0
0
0
0
0
0
0
0
0
0
0
0
0
0
-4.237170447e-07
-1.460359169e-06
5.292910994e-05
0.0001778491907
-7.779922026e-05
-0.0003041641996
0.000162848651
0.0008039676273
-0.0001956120236
-0.0009903963259
0.0001681820846
0.001526009665
-0.0001863107879
-0.001680802485
5.733522191e-05
0.002032765181
-5.616374595e-05
-0.00210887303
-8.276177229e-05
0.002215319702
9.807569749e-05
-0.002211643346
-0.0001777558875
0.002079557451
0.0002051376321
-0.001992376053
-0.0001842700339
0.001597709024
0.0002158633151
-0.001426644746
-0.0001337174871
0.0008824431168
0.0001653112404
-0.0006965590855
-2.805491147e-05
0.0002102981865
4.331358071e-05
-0.0001047476559
0
0
0
0
0
0
0
0
0
0
0
0
0
0
0
0
0
0
0
0
0
0
0
0
0
0
0
0
0
0
0
0
0
0
0
0
0
0
0
0
0
0
1.29952792e-05
2.143909653e-05
-2.124292207e-05
-9.250952132e-05
0.0001623566536
0.0005602575964
-0.0001903270245
-0.0007781568884
0.0003071668735
0.001530085136
-0.0003210491347
-0.001784765218
0.0002295279889
0.002382714123
-0.00025806213
-0.002509106622
4.947127817e-05
0.002765899949
-5.194881312e-05
-0.002799501669
-0.0001298306015
0.002831403673
0.0001327479196
-0.0028305213
-0.0002833827634
0.002793368829
0.0003000000718
-0.00274467259
-0.000375581411
0.002490082327
0.0003962916343
-0.002307321897
-0.0002278736827
0.001605960203
0.0002538506341
-0.001354452335
-9.633455306e-05
0.0006194588301
0.0001144828461
-0.0004136266877
2.842943052e-05
-2.973390102e-06
5.181635402e-06
-4.35165593e-07
0
0
0
0
0
0
0
0
0
0
0
0
0
0
0
0
0
0
0
0
0
0
0
0
0
0
0
0
0
0
0
0
0
0
0
-3.732864889e-07
-1.639640445e-08
-6.268393183e-07
4.869356117e-05
0.0001107717947
-5.890139004e-05
-0.0002493397877
0.0002648082332
0.0009199358967
-0.0002785157725
-0.001214632111
0.0003627230091
0.0020803818
-0.000375272858
-0.002334994619
0.0002659449356
0.002900370941
-0.0002409596881
-0.003015946345
9.605294914e-05
0.003117985255
-0.0001140970552
-5.341525436e-05
-0.001499701052
-0.001546824842
0.001490781329
-6.064267077e-05
6.08609889e-05
-0.001490999647
0.001536305004
-0.000385292693
-0.003094315295
0.001570869113
0.0001754966247
0.0001969372459
0.00292114889
-0.0004030191174
0.0004212521382
-0.002804987565
-0.0003279014822
0.002196490632
0.0003466509279
-0.001922979771
-0.0001620453571
0.001027371633
0.0001763698207
-0.000755625635
0.0001517738126
-2.242698909e-05
2.886253496e-05
-4.824270493e-05
0
0
0
0
0
0
0
0
0
0
0
0
0
0
0
0
0
0
0
0
0
0
0
0
0
0
0
0
0
0
0
0
0
1.561540477e-06
0
-3.331334513e-06
-5.85404759e-06
-9.007038121e-06
8.003066153e-05
0.0001907790213
-8.258782278e-05
-0.0003732282258
0.0003178990662
0.001182698436
-0.0003226666504
-0.001502249386
0.0003923896753
0.00242868543
-0.000392230404
-0.002686439252
0.0002216418928
0.003162404962
-0.0002163646905
-0.003198210225
3.291678928e-05
0.00161647545
-3.55728542e-05
-0.001613819385
0.001601101277
-0.0001560149872
0.0001535908579
-0.001598677148
0.003170097399
-0.0004498122637
0.0004555429641
-0.003104352752
-0.0003792106323
0.002553234681
0.0003858027866
-0.002277050863
-0.0002083682705
0.001325800689
0.0002148168699
-0.001013259529
0.0002753012579
-4.356378246e-05
4.993418756e-05
-0.000120730723
0
0
0
0
0
0
0
0
0
0
0
0
0
0
0
0
0
0
0
0
0
0
0
0
0
0
0
0
0
0
0
0
0
4.312566261e-06
0
-5.44054351e-06
-1.644385909e-05
-1.8646821e-05
9.557761628e-05
0.0002452210767
-9.834509044e-05
-0.0004517903765
0.0003394620224
0.001330248255
-0.0003428184163
-0.001668415153
0.0003958756208
0.002624802534
-0.0003966360755
-0.002879728064
0.0002105580899
0.003306548625
-0.0002099527667
-0.003320892618
2.653303202e-05
0.001657056439
-2.652738377e-05
-0.001657062087
0.001666753536
-0.0001486387798
0.0001477779922
-0.001665892748
0.003334185444
-0.000457867379
0.0004577954197
-0.003293096773
-0.0004060905964
0.002786586927
0.0004099635469
-0.002511923668
-0.0002315941718
0.001526942431
0.0002354992049
-0.001190885246
0.0003545324156
-5.782682335e-05
6.039156255e-05
-0.000172403708
0
0
0
0
0
0
0
0
0
0
0
0
0
0
0
0
0
0
0
0
0
0
0
0
0
0
0
0
0
0
0
0
0
6.544006943e-06
0
-8.058647857e-06
-2.558090564e-05
-2.86578415e-05
0.0001052154089
0.0002854524665
-0.0001079894297
-0.0005097718476
0.0003512091079
0.001441572018
-0.0003544950083
-0.001794982934
0.0003987432298
0.002780643324
-0.0003995213
-0.003038399876
0.00020881666
0.003451136401
-0.0002086125681
-0.00345931377
2.629626235e-05
0.00172419945
-2.684575868e-05
-0.0008603164888
-0.0008633334646
0.001734614533
-0.0001452469096
0.0001446295683
-0.001733997192
0.003468748971
-0.0004541022794
0.0004522010139
-0.003422153857
-0.0004061290359
0.002885120623
0.0004038046545
-0.002597727428
-0.0002324132661
0.001572647057
0.0002309007702
-0.001225288852
0.0003628491943
-5.856220401e-05
5.775340791e-05
-0.0001755152994
0
0
0
0
0
0
0
0
0
0
0
0
0
0
0
0
0
0
0
0
0
0
0
0
0
0
0
0
0
0
0
0
0
9.705075163e-06
0
-1.159424905e-05
-3.912945881e-05
-4.313731869e-05
0.0001166452455
0.0003352265937
-0.0001196854026
-0.0005796020182
0.0003644184514
0.001569496476
-0.0003678212469
-0.001938863817
0.000401747382
0.002953019727
-0.00040246568
-0.003212345107
0.0002075985801
0.003605226686
-0.0002073433318
-0.003608568647
2.650348982e-05
0.001799427429
-2.665194225e-05
-0.0008984059947
-0.0009008729823
0.001805991261
-0.0001427601545
0.0001421511356
-0.001805382242
0.003600790113
-0.0004412405152
0.0004363237048
-0.00351770542
-0.0003840106079
0.002869079662
0.0003789535429
-0.002566957426
-0.0002122248907
0.001493180822
0.0002067559679
-0.001140793394
0.000298296822
-4.619752188e-05
4.354474362e-05
-0.0001281377873
0
0
0
0
0
0
0
0
0
0
0
0
0
0
0
0
0
0
0
0
0
0
0
0
0
0
0
0
0
0
0
0
0
1.388486817e-05
0
-1.473765624e-05
-5.791940331e-05
-6.017315407e-05
0.0001295870522
0.0003940734761
-0.0001334464203
-0.0006598054281
0.0003785324452
0.001708619023
-0.0003825885949
-0.002093178382
0.0004045846962
0.003130845518
-0.0004053079083
-0.003389500625
0.0002067045456
0.003754825046
-0.0002068694669
-0.003754953536
2.693231615e-05
0.001872854108
-2.690855804e-05
-0.0009349409393
-0.0009379369268
0.001873404953
-0.0001399805287
0.0001398228534
-0.001873247278
0.003681967605
-0.0004201667425
0.0004129078251
-0.003541961726
-0.0003496626866
0.002767531299
0.0003348859487
-0.002426165458
-0.0001806920062
0.001309465038
0.0001675438881
-0.0009627008919
0.0002005367952
-2.954090583e-05
2.533577964e-05
-6.534702655e-05
0
0
0
0
0
0
0
0
0
0
0
0
0
0
0
0
0
0
0
0
0
0
0
0
0
0
0
0
0
0
0
0
0
2.069821011e-05
0
-2.757858304e-05
-9.143081552e-05
-0.0001048340717
0.0001449189092
0.0004760377744
-0.0001548927857
-0.0007630355556
0.0003960679048
0.001876384052
-0.0004006035418
-0.002273807093
0.0004073090664
0.003322930319
-0.0004105793042
-0.003579358991
0.0002065708398
0.003902042291
-0.0002077757715
-0.001945898821
-0.001954938538
1.474007583e-05
0.000970815495
-1.500723437e-05
-0.0009705483365
-1.904250978e-05
0.0004838753091
1.819881903e-05
-0.0009676608274
0.0004846292091
0.001937810021
-0.0001390649966
0.0002894160376
-0.003885655339
0.001946344997
-0.0001488507208
-0.0003931576337
0.003683853986
0.0003769966784
-0.003471596428
-0.0002969815966
0.002561029405
0.0002847807183
-0.002187556608
-0.0001371112559
0.00106044869
0.0001289023945
-0.0007337370314
8.332819838e-05
-1.046972382e-05
8.242307936e-06
-8.21250917e-06
0
0
0
0
0
0
0
0
0
0
0
0
0
0
0
0
0
0
0
0
0
0
0
0
0
0
0
0
0
0
0
0
0
3.057544681e-05
0
-2.516758039e-05
-0.0001251983639
-0.0001152136225
0.0001699051319
0.0005637145381
-0.000164782236
-0.0008808235214
0.0004150303164
0.002058397738
-0.0004089158529
-0.002470822148
0.0004048165375
0.003529033118
-0.0004037395235
-0.003772924185
0.000201553688
0.004050539228
-0.0002015536881
-0.002021137422
-0.002029401806
1.256381328e-05
0.002021137422
-2.2519263e-05
9.955449711e-06
-0.00100894814
-0.001012189282
-6.095274884e-05
0.001008948187
6.095267893e-05
-0.002021137422
0.001012189305
0.004050539228
-0.0002988328601
0.0002970978993
-0.004039952506
-0.0003458982933
0.003572931495
0.000336753956
-0.003303693573
-0.0002465065036
0.002231042528
0.0002307965634
-0.001846153671
-9.571525834e-05
0.0007504492023
8.578593709e-05
-0.0004787898436
1.158767808e-05
-1.625863321e-06
7.392668422e-07
0
0
0
0
0
0
0
0
0
0
0
0
0
0
0
0
0
0
0
0
0
0
0
0
0
0
0
0
0
0
0
0
0
0
1.567534882e-05
0
-5.746583899e-06
-5.855411965e-05
-3.683124179e-05
0.0001287538692
0.0004103908821
-0.0001115351448
-0.000690685817
0.000362263802
0.001801892976
-0.0003376527035
-0.002210789925
0.0003899118148
0.003327770408
-0.000379481712
-0.003618004418
0.0002089716525
0.004132494727
-0.0002143317451
-0.004185555047
2.251926299e-05
0.004198820135
-3.460537143e-05
-0.004198820135
1.208610845e-05
-0.0001323390952
0.004198820135
0.0001323390952
-0.004198820135
-0.0002829287519
0.004124417695
0.0002728305228
-0.004010017536
-0.0002928346689
0.003311970935
0.0002755185179
-0.002976672896
-0.0001815228319
0.001812326021
0.0001677032013
-0.001419065008
-5.32946217e-05
0.0004342080228
4.30784149e-05
-0.0002271600974
0
0
0
0
0
0
0
0
0
0
0
0
0
0
0
0
0
0
0
0
0
0
0
0
0
0
0
0
0
0
0
0
0
0
0
0
0
1.401865373e-07
0
0
-3.281857797e-07
0
5.499464762e-05
0.000141776308
-3.76785843e-05
-0.0003182817441
0.0002421711054
0.001171161225
-0.0002057153773
-0.001523074786
0.000322945156
0.002593389595
-0.0002953336751
-0.002914334732
0.0002153059824
0.003655534128
-0.0002088725426
-0.003819298991
4.038850157e-05
0.004089209585
-4.411307581e-05
-0.004120616275
-0.0001214268117
0.004078683103
0.0001106176793
-0.004015173175
-0.0002228783133
0.003621407901
0.0002005230435
-0.003412012508
-0.0002095586599
0.002562164539
0.000184549215
-0.00222392224
-0.0001168364464
0.001177997911
9.815797646e-05
-0.0008586226075
-1.820615208e-05
0.0001569430037
1.094120986e-05
-4.295451836e-05
0
0
0
0
0
0
0
0
0
0
0
0
0
0
0
0
0
0
0
0
0
0
0
0
0
0
0
0
0
0
0
0
0
0
0
0
0
0
0
0
0
0
3.885674671e-06
3.274129787e-07
-6.358546102e-07
-2.461151182e-05
9.837256966e-05
0.0004233828174
-6.767981184e-05
-0.0006441068456
0.0001935089424
0.00143214865
-0.0001568690031
-0.001702482362
0.0001672239466
0.002415357097
-0.0001468836138
-0.002600525644
5.225814664e-05
0.002955993223
-5.198045694e-05
-0.003004775479
-6.623190734e-05
0.002941719323
5.105106666e-05
-0.002851754749
-0.0001264068794
0.002386309936
0.0001023916943
-0.002173193901
-0.0001088671001
0.001421572459
8.546123907e-05
-0.001156305816
-4.418629071e-05
0.0004373913694
2.893420558e-05
-0.0002551051281
-1.604478952e-07
1.086821671e-06
0
0
0
0
0
0
0
0
0
0
0
0
0
0
0
0
0
0
0
0
0
0
0
0
0
0
0
0
0
0
0
0
0
0
0
0
0
0
0
0
0
0
0
0
0
0
0
0
7.704657026e-06
1.116339016e-05
-1.191818658e-06
-5.173083292e-05
5.834590971e-05
0.0003579022394
-3.395692416e-05
-0.0004975882163
7.724479792e-05
0.0009280020712
-5.494893524e-05
-0.001054207947
3.850438593e-05
0.00131608298
-3.070153689e-05
-0.001355161328
-1.641983848e-05
0.001313029168
9.647419458e-06
-0.001247687766
-4.273749472e-05
0.0009270928419
2.831103795e-05
-0.0007909235272
-2.83403802e-05
0.0003669736326
1.528764649e-05
-0.0002419314634
-1.475732279e-06
1.385033201e-05
4.151397677e-09
-1.490590878e-07
0
0
0
0
0
0
0
0
0
0
0
0
0
0
0
0
0
0
0
0
0
0
0
0
0
0
0
0
0
0
0
0
0
0
0
0
0
0
0
0
0
0
0
0
0
0
0
0
0
0
0
0
0
0
1.830786574e-07
0
0
-1.873587607e-06
7.482207147e-06
5.117587512e-05
-1.180586535e-06
-7.925522113e-05
7.407497179e-06
0.0001544008099
-2.523358333e-06
-0.0001676907467
-8.635166868e-07
0.0001559572699
2.057084736e-07
-0.000136057926
-2.823338316e-06
5.407057905e-05
2.356174343e-07
-2.978854881e-05
0
0
0
0
0
0
0
0
0
0
0
0
0
0
0
0
0
0
0
0
0
0
0
0
0
0
0
0
0
0
0
0
0
0
0
0
0
0
0
0
0
0
0
0
0
0
0
0
0
0
0
0
0
0
0
0
0
0
0
0
0
0
0
0
0
0
0
0
0
0
0
0
0
0
0
0
0
0
0
0
0
0
0
0
0
0
0
0
0
0
0
0
0
0
0
0
0
0
0
0
0
0
0
0
0
0
0
0
0
0
0
0
0
0
0
0
0
0
0
0
0
0
0
0
0
0
0
0
0
0
0
0
0
0
0
0
0
0
0
0
0
0
0
0
0
0
0
0
0
0
0
0
0
0
0
0
0
0
0
0
0
0
0
0
0
0
0
0
0
0
0
0
0
0
0
0
0
0
0
0
0
0
0
0
0
0
0
0
0
0
0
0
0
0
0
0
0
0
0
0
0
0
0
0
0
0
0
0
0
0
0
0
0
0
0
0
0
0
0
0
0
0
0
0
0
0
0
0
0
0
0
0
0
0
0
0
0
0
0
0
0
0
0
0
0
0
0
0
0
0
0
0
0
0
0
0
0
0
0
0
0
0
0
0
0
0
0
0
0
0
0
0
0
0
0
0
0
0
0
0
0
0
0
0
0
0
0
0
0
0
0
0
0
0
0
0
0
0
0
0
0
0
0
0
0
0
0
0
0
0
0
0
0
0
0
0
0
0
0
0
0
0
0
0
0
0
0
0
0
0
0
0
0
0
0
0
0
0
0
0
0
0
0
0
0
0
0
0
0
0
0
0
0
0
0
0
0
0
0
0
0
0
0
0
0
0
0
0
0
0
0
0
0
0
0
0
0
0
0
0
0
0
0
0
0
0
0
0
0
0
0
0
0
0
0
0
0
0
0
0
0
0
0
0
0
0
0
0
0
0
0
0
0
0
0
0
0
0
0
0
0
0
0
0
0
0
0
0
0
0
0
0
0
0
0
0
0
0
0
0
0
0
0
0
0
0
0
0
0
0
0
0
0
0
0
0
0
0
0
0
0
0
0
0
0
0
0
0
0
0
0
0
0
0
0
0
0
0
0
0
0
0
0
0
0
0
0
0
0
0
0
0
0
0
0
0
0
0
0
0
0
0
0
0
0
0
0
0
0
0
0
0
0
0
0
0
0
0
0
0
0
0
0
0
0
0
0
0
0
0
0
0
0
0
0
0
0
0
0
0
0
0
0
0
0
0
0
0
0
0
0
0
0
0
0
0
0
0
0
0
0
0
0
0
0
0
0
0
0
0
0
0
0
0
0
0
0
0
0
0
0
0
0
0
0
0
0
0
0
0
0
0
0
0
0
0
0
0
0
0
0
0
0
0
0
0
0
0
0
0
0
0
0
0
0
0
0
0
0
0
0
0
0
0
0
0
0
0
0
0
0
0
0
0
0
0
0
0
0
0
0
0
0
0
0
0
0
0
0
0
0
0
0
0
0
0
0
0
0
0
0
0
0
0
0
0
0
0
0
0
0
0
0
0
0
0
0
0
0
0
0
0
0
0
0
0
0
0
0
0
0
0
0
0
0
0
0
0
0
0
0
0
0
0
0
0
0
0
0
0
0
0
0
0
0
0
0
0
0
0
0
0
0
0
0
0
0
0
0
0
0
0
0
0
0
0
0
0
0
0
0
0
0
0
0
0
0
0
0
0
0
0
0
0
0
0
0
0
0
0
0
0
0
0
0
0
0
0
0
0
0
0
0
0
0
0
0
0
0
0
0
0
0
0
0
0
0
0
0
0
0
0
0
0
0
0
0
0
0
0
0
0
0
0
0
0
0
0
0
0
0
0
0
0
0
0
0
0
0
0
0
0
0
0
0
0
0
0
0
0
0
0
0
0
0
0
0
0
0
0
0
0
0
0
0
0
0
0
0
0
0
0
0
0
0
0
0
0
0
0
0
0
0
0
0
0
0
0
0
0
0
0
0
0
0
0
0
0
0
0
0
0
0
0
0
0
0
0
0
0
0
0
0
0
0
0
0
0
0
0
0
0
0
0
0
0
0
0
0
0
0
0
0
0
0
0
0
0
0
0
0
0
0
0
0
0
0
0
0
0
0
0
0
0
0
0
0
0
0
0
0
0
0
0
0
0
0
0
0
0
0
0
0
0
0
0
0
0
0
0
0
0
0
0
0
0
0
0
0
0
0
0
0
0
0
0
0
0
0
0
0
0
0
0
0
0
0
0
0
0
0
0
0
0
0
0
0
0
0
0
0
0
0
0
0
0
0
0
0
0
0
0
0
0
0
0
0
0
0
0
0
0
0
0
0
0
0
0
0
0
0
0
0
0
0
0
0
0
0
0
0
0
0
0
0
0
0
0
0
0
0
0
0
0
0
0
0
0
0
0
0
0
0
0
0
0
0
0
0
0
0
0
0
0
0
0
0
0
0
0
0
0
0
0
0
0
0
0
0
0
0
0
0
0
0
0
0
0
0
0
0
0
0
0
0
0
0
0
0
0
0
0
0
0
0
0
0
0
0
0
0
0
0
0
0
0
0
0
0
0
0
0
0
0
0
0
0
0
0
0
0
0
0
0
0
0
0
0
0
0
0
0
0
0
0
0
0
0
0
0
0
0
0
0
0
0
0
0
0
0
0
0
0
0
0
0
0
0
0
0
0
0
0
0
0
0
0
0
0
0
0
0
0
0
0
0
0
0
0
0
0
0
0
0
0
0
0
0
0
0
0
0
0
0
0
0
0
0
0
0
0
0
0
0
0
0
0
0
0
0
0
0
0
0
0
0
0
0
0
0
0
0
0
0
0
0
0
0
0
0
0
0
0
0
0
0
0
0
0
0
0
0
0
0
0
0
0
0
0
0
0
0
0
0
0
0
0
0
0
0
0
0
0
0
0
0
0
0
0
0
0
0
0
0
0
0
0
0
0
0
0
0
0
0
0
0
0
0
0
0
0
0
0
0
0
0
0
0
0
0
0
0
0
0
0
0
0
0
0
0
0
0
0
0
0
0
0
0
0
0
0
0
0
0
0
0
0
0
0
0
0
0
0
0
0
0
0
0
0
0
0
0
0
0
0
0
0
0
0
0
0
0
0
0
0
0
0
0
0
0
0
0
0
0
0
0
0
0
0
0
0
0
0
0
0
0
0
0
0
0
0
0
0
0
0
0
0
0
0
0
0
0
0
0
0
0
0
0
0
0.001650315818
-0.001650395317
2.661253127e-05
0.0001404666763
-0.001654822291
-0.0001413823815
0.0008304669798
0.0008252710169
-0.0001552912931
0.001607873237
0.0001485193328
0.001715091652
2.591183306e-05
-0.0008566841513
-0.0008580230717
0.0001341043223
-0.001727409948
-0.0001349598818
0.0008651705476
0.0008630949602
0.0001376684663
0.0008360601749
0.0008334915709
0.00179005976
2.627199029e-05
-0.0008939720487
-0.0008958562117
0.0001323810417
-0.001795214394
-0.000131215198
0.0008978323266
0.0008962162234
0.0001334911753
0.000867656895
0.0008675707852
0.001863135723
2.660965786e-05
-0.0009303443
-0.0009324687647
0.0001279994242
-0.001863415244
-0.0001292543888
0.001864670209
0.001806836217
0.0001315360856
0.0009694196158
-0.0009694240115
1.474447155e-05
-0.0004841937667
8.820144453e-06
-8.954420504e-06
0.0004843280428
0.0004836101875
-0.0009667080319
-2.013843212e-05
0.0001271813109
-0.001930963507
-0.0001271195466
0.001930901743
0.001873795523
0.000127608854
0.001007582367
-0.001007582367
1.256381328e-05
-0.001007582496
2.656380077e-05
-2.65641121e-05
0.001007582808
0.0004844061283
8.289325293e-06
-0.002011927869
0.0009212785047
1.99904883e-05
2.123631147e-06
0.0002211953304
-0.003966593932
0.002006451594
0.001985815518
-0.0001193783827
-0.0001274901275
0.001937713071
0.0001272782615
0.001606794883
-0.001606053002
3.217490852e-05
-4.926649832e-05
0.001491292112
4.875571457e-05
-0.00159949468
-0.0001526460593
0.001596849446
-0.0001652419494
0.001524200765
0.0001773461888
2.506182802e-05
-0.0004101884698
-2.526774345e-05
0.0004103943852
-0.0008113020115
-6.093946916e-05
0.0008135159578
5.872552291e-05
-0.001654174378
-0.000149286693
0.0004306807296
-0.003291355471
-0.0004350903256
0.003296664896
-0.0004425439751
0.003190843255
0.0004341601657
0.00341328733
-0.003422852005
0.0002090665912
-3.665552161e-05
3.659063946e-05
0.001715156534
3.682678334e-05
0.001656895943
-3.66662872e-05
2.776280827e-05
-0.000423939387
-2.746192058e-05
0.0004236384993
-2.423240755e-05
-0.0004164210649
0.0004161392117
2.451426075e-05
-0.001726966206
-0.0001456906519
0.0004253168413
-0.003439176727
-0.0004267528698
0.003440795356
0.003336269016
0.000428912348
0.003567602852
-0.003572003318
0.0002078791565
-3.668036641e-05
3.661613404e-05
0.001790123992
0.00172426338
-3.671945197e-05
-2.66475313e-05
0.001753976814
2.658056195e-05
-0.0008756403448
-0.0008782695001
3.223163051e-06
-0.0004394740685
-3.203151428e-06
0.0008782785784
-0.0004388245215
-3.369584261e-06
-0.0004292333204
0.0008600021865
3.044909785e-06
-0.0004304441917
2.382279486e-05
-0.0004419284992
-2.395898248e-05
0.0004420646868
-2.616574838e-05
-0.0004331605134
0.0004323503462
2.697591562e-05
-0.001795348705
-0.0001426258437
0.0004171676996
-0.00356689089
-0.0004204082831
0.003576978811
0.003470882917
0.0004237839578
0.003716842661
-0.003717617539
0.0002066102978
-3.683605929e-05
3.677521171e-05
0.001863196571
0.001799405999
-3.665893605e-05
-2.60828171e-05
0.001827120721
2.644462355e-05
-0.0009127179521
-0.0009147645758
2.053692381e-06
-0.0004576214927
-2.147395633e-06
0.000457715196
-2.82960472e-06
-0.000448830284
0.0008984151853
2.908197784e-06
-0.0004496634944
4.473176572e-05
-0.0009158887793
-4.506208468e-05
0.0009162190983
-4.640968588e-05
-0.0009021775154
4.446804157e-05
0.0004527969971
0.0004513221627
0.003865511293
0.0002070033155
-0.001928376903
-0.001937566866
-3.71981947e-05
-0.0009679261831
3.693032778e-05
0.001937613666
0.001872916714
-3.689866487e-05
-1.469471334e-05
0.000951904562
-0.0009519997032
1.478985453e-05
4.020973403e-06
-0.0004770640751
-3.544908476e-06
0.0004765880101
-3.023695893e-06
-0.0004664221608
0.0004666157446
2.83011213e-06
0.0004796066719
1.240848388e-05
-0.0004782294837
-1.378567202e-05
4.280796325e-05
-0.0009513001499
-4.253255947e-05
0.0009510247461
-4.403970059e-05
-0.0009358906456
0.0009359005409
4.402980527e-05
0.00394563037
0.0001990110083
-0.001931159821
-0.002011927869
-3.295438291e-05
-0.001004345502
3.295438291e-05
0.002011927869
-0.0009750193702
0.001945822616
-3.718594517e-05
-1.4720857e-05
0.000987932795
-0.0009878423049
1.463036689e-05
2.283655143e-06
-0.0004909707338
-3.561103579e-06
0.0004922481823
-4.791974476e-06
-0.0004826565432
0.0004832498072
4.198710539e-06
0.002085595738
-0.002085595738
2.251926299e-05
-0.002085595738
5.05185772e-05
-5.051857718e-05
0.002085595738
0.001008948361
2.656362692e-05
-5.876240759e-06
0.0008125351698
5.224087125e-06
-0.0004051651116
-0.0004067179046
6.450849392e-06
0.0008256753126
-6.352886168e-06
-0.000413180146
-0.0004125931298
0.0008122007816
9.279859315e-06
-1.099812481e-05
-0.0008104825162
0.0008124928399
-0.0008131136351
-5.255445543e-06
-0.0004161311549
-2.39776231e-05
0.0004158763704
-0.0004095995183
0.000409952019
2.470932723e-05
-0.0001441949901
-0.001633962534
0.0001424524789
0.0008205211195
0.0008151839258
-5.57377823e-05
0.0004090503356
5.428499279e-05
-0.0008171970643
2.528078922e-05
-0.0004162606614
-2.515128271e-05
-0.0004284997258
-3.771416885e-06
0.0008577104795
-0.0004288089211
-0.0008430442921
-3.439146781e-06
0.0008431242742
3.35916463e-06
2.626570097e-05
0.001689548515
-2.63338409e-05
-0.001689480375
-6.132015235e-06
5.573936203e-06
-0.0004210683568
-0.0004214178562
2.780256279e-06
-0.0004284973219
-2.782660168e-06
0.0008269144901
6.066289826e-06
-0.0004128731827
-0.0004136567479
0.0008416011589
-5.987174819e-06
-0.0004208555649
-0.0004208904345
-0.0004318411651
-2.527184393e-05
0.0004309472606
-0.0004257287267
0.0004251331005
2.835843448e-05
-6.954345095e-05
-0.0008507849746
0.0008509571081
6.937131752e-05
-2.803966487e-05
2.821338964e-05
-0.0004259024515
2.615093997e-05
-0.0004323673614
-2.56247436e-05
2.539791179e-05
-0.0004165381874
-0.0004242098881
-2.776916375e-05
-0.0008472910275
-6.955194682e-05
0.0008472995234
-0.0004480069219
-3.173103965e-06
0.0008956145603
-0.0004472641391
-0.0004404641053
0.0008813168692
3.558201708e-06
-0.0004411878025
0.001763842739
-2.622408537e-05
-0.0008811441835
-0.0008831220009
-3.07338557e-06
3.164687787e-06
-0.0004405554075
2.300610497e-06
-0.000447913101
-2.394431434e-06
2.695498639e-06
-0.0004291485627
-0.0004396638774
-2.883576634e-06
-0.0008987141624
-4.621087216e-05
0.0004495449248
0.0004489704239
-0.0004423626435
0.0004422416947
2.394374364e-05
-0.0001312948076
-0.001768194195
0.000131531307
0.000884434068
0.0008835236278
-4.972517705e-05
0.0004416704438
4.903551335e-05
-0.0008833434236
4.882210455e-05
-0.0008986002709
-4.893599604e-05
2.666969056e-05
-0.000433679264
0.0004407237576
-0.0008818831707
-2.466272752e-05
-2.583153555e-05
-0.001759825874
-0.000132844488
0.0008816654557
0.0008797100988
-0.0004658544028
-3.126665834e-06
0.0004659573728
-0.0004581116204
0.0004581209436
2.044369228e-06
0.001834953548
-2.665705147e-05
-0.0009164689193
-0.0009179103943
-2.981078661e-06
2.703581944e-06
-0.0004578341237
4.486545955e-06
-0.000465557616
-4.783332812e-06
2.294190536e-06
-0.000448823864
-0.0004575146662
-3.087905226e-06
-0.0009342377374
-4.410803267e-05
0.0009343060695
-0.000918787795
0.0009187936399
4.472592081e-05
-0.0004841276206
-5.177097228e-06
0.0004845127434
-0.0004767851139
0.0004769663175
3.839769839e-06
0.0009539416252
-1.46889947e-05
-0.0009539473439
-8.954467005e-06
-0.0004768687513
0.0004753056777
1.051754056e-05
-5.525668739e-06
5.235393178e-06
-0.0004764948383
4.941789235e-06
-0.000483333696
-5.73571392e-06
4.097071031e-06
-0.0004660326859
-0.0004773772484
-5.212495417e-06
-1.157370709e-05
0.000482225912
8.342224514e-05
-0.001930070256
-8.305780859e-05
0.0009653901641
0.0009643156558
-0.0009527479889
0.0009524387705
4.311718171e-05
1.239844817e-05
-0.0004768587156
-0.001015992497
2.871926764e-06
0.001011304988
2.155222814e-06
-3.396413574e-07
-0.00049153102
0.0004922517422
1.562932988e-06
0.0009898688996
-1.490593427e-05
-0.0009896838224
-9.523619131e-06
-0.00097771801
0.0009783443359
8.897293233e-06
-8.388153177e-07
4.103115316e-07
-0.0004911025162
8.275902908e-06
-0.00101605676
-9.587051674e-07
-7.252934132e-06
4.134506624e-06
-0.0004818492606
-1.751906677e-06
-0.0004900576425
-0.0009761793321
-1.073488536e-05
0.0009773905983
0.003270728748
-0.003288198574
0.0002119420743
3.698511208e-05
0.001650157489
4.26829865e-05
0.001614261942
-4.046947787e-05
-2.850160629e-05
0.001623855091
-0.001623711808
2.835832361e-05
2.991549312e-06
-2.88615412e-06
0.0008123874447
1.316765507e-06
0.0008145816525
-3.697636334e-06
6.568803736e-05
-0.000400477836
3.767369125e-06
0.0003310224296
-0.0004168058227
-2.960039616e-05
0.0004226406666
2.376555226e-05
0.001681273419
-0.001681440084
2.643236562e-05
-3.442658499e-06
0.0008416046707
-3.389654117e-06
0.0008269153357
3.388808504e-06
0.0001356999022
-0.000458201699
-5.489658326e-05
0.0003773983801
-0.001862845331
-0.0001405504418
0.0004072669138
-0.003669526265
-0.00041112619
0.00371859524
0.003613922961
0.0004166525867
0.0001334787986
-0.0004734080071
-4.941063693e-05
0.0003893398454
3.243833257e-05
-0.0009425512021
-3.300326687e-05
0.0004717809659
0.0004713351705
-1.702611772e-05
-0.0004677654331
0.0004676850158
1.710653494e-05
1.562528325e-05
-0.0009755999659
-1.620464946e-05
9.240747153e-05
-0.001959503913
-8.840154945e-05
0.001955497991
-0.001937257158
8.394925232e-05
0.0009690884171
0.0009676417339
-3.386493499e-06
0.0008256721519
0.0008125774289
2.949290165e-06
0.001623102433
-2.744219473e-05
-0.001624161845
-5.733589602e-06
0.0004094576848
6.531560564e-06
-0.0004102556558
0.0004191358917
8.426942744e-06
-2.740634411e-06
-0.0004248222
0.0004081855962
2.553135545e-06
-0.0004087752203
-1.963511494e-06
-6.838793842e-05
6.174345954e-05
-0.0008046575326
0.0004082230693
-0.0008166772503
-5.747207115e-05
-0.001623800929
-0.000141157749
0.0008119757686
0.0008087879191
-0.0004680055379
-1.739512351e-05
0.0004683745437
-2.205752131e-05
-0.0004643669746
0.0004656713995
2.075309643e-05
-0.0001306208802
-0.001837056369
0.001837683797
0.0001299934523
-4.794113486e-05
4.76213911e-05
-0.0009184680513
4.696570877e-05
-0.0009340106539
-4.719279227e-05
4.82216095e-05
-0.0009015770203
-0.0009158913494
-4.79385648e-05
-0.001830583722
-0.0001308174428
0.001830780285
-1.377017583e-05
-0.0004819294342
0.0004835825067
1.211710335e-05
0.0004848157931
1.201475142e-05
-0.0004847808849
-1.204965962e-05
1.250489931e-05
-0.0009719402932
-1.282601195e-05
0.000485874141
0.0004863872648
-0.0007630406929
-2.126001078e-05
0.0007630137962
2.128690746e-05
0.00164322955
2.339676958e-05
-3.537066151e-05
-1.593847345e-05
-0.0008001009814
-0.0008152162029
0.0008027185663
-0.0008192645708
2.582586382e-05
-0.0008072106932
-6.20639211e-05
0.0008083351452
-0.00160545111
-0.0001491770391
0.0008054363285
0.0007728653591
7.553129816e-05
0.0001007951635
-3.872955084e-05
3.971525819e-05
-0.0007640264002
-0.0005120432875
0.0005777313249
-5.453533814e-05
-0.0008150800966
5.284241319e-05
0.0004083491929
0.0004084238286
-2.917174856e-05
-7.06585397e-05
-0.0004122129992
-2.579156022e-05
2.283736797e-05
-0.0004138516305
-0.0004105292704
-1.912031424e-05
-0.0008100021815
-5.209752409e-05
0.0004046469154
0.000402917452
-2.48384117e-05
-0.0004204981472
0.0004205614509
2.477510801e-05
-0.0004204672103
-2.490898516e-05
0.0004205377838
-2.338407184e-05
-0.0004389364087
0.0004388097469
2.35107336e-05
-0.0004396175272
-2.397464842e-05
0.0004402081037
-0.0004576119304
2.201470964e-05
-1.893174831e-05
0.000454528969
-0.0004654085145
0.0005895073466
1.160107009e-05
-4.558241035e-05
-0.0009088010117
0.0009087955716
4.558785046e-05
-2.648728956e-05
2.039209262e-05
-0.0004593133175
2.247614023e-05
-0.0004584608955
-2.162717507e-05
-2.382473242e-05
5.426453227e-05
-0.0004464569055
0.0004160171057
-0.0004557756686
-2.891331996e-05
-0.0009072473319
-4.568429539e-05
0.0004538083627
0.0004535408543
-0.0004718063666
-1.192885301e-06
0.0004720010346
9.98217336e-07
4.80838364e-06
0.0009440628043
-4.891903209e-06
-0.0009439792847
-4.880803647e-06
0.0009518397863
-0.0009519322324
4.973249717e-06
3.088134738e-05
-0.0009508388348
-3.11513458e-05
0.0009511088332
-0.0009444841388
3.180812105e-05
0.0004729839019
0.0004721304485
0.0006088193311
6.311589096e-06
-0.0004816521215
9.668296352e-07
-0.0004888878212
0.0004895742588
-1.65326721e-06
5.370246424e-06
0.0009805736965
-5.460443297e-06
-0.0009804834997
-5.46101254e-06
0.0009877521211
5.00206324e-06
-0.0004933123461
-0.0004939808257
5.115520242e-06
0.000970383723
-5.381635832e-06
-0.0009701176074
0.0009781859884
-0.0009780985643
5.282822295e-06
-0.0004869108718
8.722541914e-08
0.000487790476
0.0004166628228
-2.138966713e-06
0.0001094413665
-0.0005239652226
0.0004071659354
-6.072022396e-06
-0.0004068275026
5.493624035e-06
0.00081864161
-5.807879981e-06
-0.0004082687248
-0.0004100586292
6.475890297e-06
-7.257283564e-06
0.0004079473287
-6.677766916e-06
0.0004125905183
1.075007138e-05
1.178366649e-05
-3.636836077e-05
0.0004136558709
-0.0003890711767
0.0004100060337
5.927541393e-06
0.0008216576226
6.394954868e-06
-0.0004114774244
-0.0004110815291
3.357696121e-06
0.0008188783832
-0.0008194178752
-2.81820409e-06
5.005810712e-06
-5.468111996e-06
0.0004086478975
1.788312587e-05
0.0004063204098
-5.067644057e-06
-0.0004116569145
-5.15267735e-06
0.0004101318249
-0.000408116024
0.0004081992274
4.922607271e-06
0.0008145804794
3.886773488e-06
-0.0008151095568
5.140818828e-06
-0.0004107037073
-0.0004110676971
-2.728184125e-06
-2.571432219e-05
-0.000413496816
0.0004125187662
2.669237206e-05
-0.000411931851
-2.578162721e-05
0.000411999156