/*--------------------------------*- C++ -*----------------------------------*\
| =========                 |                                                 |
| \\      /  F ield         | OpenFOAM: The Open Source CFD Toolbox           |
|  \\    /   O peration     | Version:  v1912                                 |
|   \\  /    A nd           | Website:  www.openfoam.com                      |
|    \\/     M anipulation  |                                                 |
\*---------------------------------------------------------------------------*/
FoamFile
{
    version     2.0;
    format      ascii;
    class       volScalarField;
    location    "500";
    object      k;
}
// * * * * * * * * * * * * * * * * * * * * * * * * * * * * * * * * * * * * * //

dimensions      [0 2 -2 0 0 0 0];


internalField   nonuniform List<scalar> 
12556
(
36.829
36.8288
36.8289
36.8308
36.9166
36.9183
36.9195
36.9223
36.9273
36.9362
36.9493
36.964
36.9747
36.9757
36.9669
36.9533
36.9404
36.9308
36.9244
36.9208
36.833
36.8298
36.8291
36.8287
36.6491
36.6493
36.6497
36.6537
36.7326
36.7401
36.7472
36.7946
36.8092
36.8342
36.8708
36.9121
36.9428
36.9477
36.9255
36.8883
36.8511
36.8222
36.7634
36.7487
36.66
36.6526
36.6506
36.6496
36.4704
36.4708
36.4717
36.4776
36.5522
36.5656
36.5814
36.6334
36.6686
36.7274
36.8109
36.8979
36.9538
36.9627
36.9236
36.8484
36.7655
36.6986
36.6169
36.5854
36.4924
36.4795
36.4751
36.4733
36.2934
36.2939
36.2955
36.3038
36.3748
36.3954
36.4237
36.4902
36.5638
36.6859
36.8324
36.9638
37.0461
37.0547
36.9927
36.8813
36.7458
36.6165
36.4963
36.4369
36.332
36.3108
36.3028
36.2996
36.1181
36.1188
36.1215
36.1328
36.203
36.2328
36.2796
36.3706
36.5132
36.7165
36.944
37.1645
37.3049
37.3022
37.1813
36.9977
36.7955
36.6027
36.4133
36.3076
36.18
36.1466
36.133
36.1277
35.9447
35.9457
35.9498
35.9648
36.0363
36.0792
36.1535
36.2872
36.5162
36.8125
37.1929
37.6438
37.9742
37.8932
37.5848
37.2436
36.9247
36.6448
36.3766
36.2025
36.0372
35.9867
35.9651
35.9567
35.7736
35.7753
35.7815
35.8011
35.8751
35.9348
36.0464
36.2395
36.5557
36.9869
37.6377
38.7812
39.5371
39.3569
38.3612
37.6673
37.1469
36.7388
36.3831
36.1239
35.9045
35.8313
35.799
35.7866
35.6058
35.6085
35.6175
35.6429
35.7214
35.8017
35.9579
36.2163
36.6203
37.2088
38.216
40.456
42.0883
39.6516
38.2834
37.4608
36.8827
36.4139
36.0701
35.7824
35.6814
35.6357
35.6182
35.4424
35.4463
35.4587
35.4912
35.576
35.68
35.8848
36.2055
36.6958
37.4224
38.6793
41.8886
46.259
41.198
39.0224
37.8385
37.0635
36.4613
36.0358
35.6716
35.5387
35.4777
35.4542
35.2844
35.2899
35.3063
35.3467
35.4394
35.5693
35.823
36.2
36.771
37.6053
39.0096
42.2575
49.0474
42.5559
39.7498
38.229
37.2588
36.5183
36.0147
35.5726
35.4058
35.3278
35.2975
35.1325
35.14
35.1608
35.2098
35.3117
35.4688
35.7695
36.1982
36.8448
37.7724
39.3075
42.0401
50.4255
43.5736
40.376
38.5881
37.4466
36.5759
36.0013
35.4846
35.2839
35.1887
35.1509
34.9872
34.9966
35.022
35.0802
35.1925
35.377
35.7219
36.2006
36.9203
37.9436
39.602
41.5536
50.8957
44.2555
40.8591
38.8859
37.6083
36.626
35.9895
35.4052
35.1729
35.061
35.0159
34.8479
34.8598
34.8908
34.9588
35.0804
35.2921
35.6783
36.2065
36.9993
38.1301
39.8962
40.9062
42.2552
50.4593
44.6586
41.1915
39.1066
37.7313
36.6623
35.9728
35.3311
35.071
34.9439
34.8918
34.7143
34.7284
34.7643
34.8413
34.9779
35.2195
35.647
36.2311
37.1067
38.3689
40.2319
39.1992
48.9232
50.3999
44.8281
41.3799
39.2473
37.81
36.6801
35.9456
35.2582
34.9749
34.8348
34.7764
34.5849
34.6011
34.6417
34.7271
34.8752
35.14
35.6013
36.2301
37.1804
38.549
40.4015
32.9758
49.7647
49.8289
44.7472
41.432
39.3095
37.8443
36.6749
35.903
35.1821
34.881
34.7299
34.6663
34.4583
34.4765
34.5214
34.6144
34.7734
35.0583
35.5477
36.2143
37.2298
38.6781
40.19
28.3535
48.1641
48.8828
44.483
41.3806
39.3008
37.8311
36.6353
35.8427
35.0995
34.786
34.6259
34.5583
34.3334
34.3533
34.402
34.5015
34.6705
34.972
35.4836
36.1791
37.2378
38.6976
39.6395
24.6173
46.599
47.8973
44.0585
41.2097
39.2217
37.7667
36.5619
35.7623
35.0082
34.6869
34.5198
34.4491
34.2088
34.2302
34.2823
34.3873
34.5649
34.8799
35.408
36.1236
37.2042
38.6046
38.8702
21.8684
45.1472
46.9703
43.5936
40.9612
39.0701
37.6519
36.4587
35.6621
34.9059
34.581
34.4102
34.3368
34.0839
34.1065
34.1614
34.2709
34.4558
34.7813
35.3213
36.0494
37.1351
38.4314
37.9601
19.8816
43.8099
46.1089
43.1331
40.683
38.88
37.5052
36.3339
35.5465
34.7941
34.4684
34.2949
34.2202
33.9581
33.9816
34.0388
34.152
34.3429
34.6765
35.2246
35.9595
37.0372
38.2001
36.9848
18.4386
42.5758
45.3034
42.692
40.3976
38.6715
37.3393
36.1933
35.4184
34.6738
34.3492
34.1742
34.0987
33.831
33.8554
33.9144
34.0305
34.2263
34.5662
35.1197
35.857
36.9161
37.9252
35.9998
17.3763
41.4321
44.5466
42.273
40.1151
38.4557
37.1625
36.0418
35.2808
34.5463
34.2239
34.0484
33.9724
33.7028
33.7278
33.7883
33.9069
34.1065
34.4512
35.0081
35.7445
36.7761
37.6157
35.0325
16.5808
40.3674
43.8326
41.8727
39.8401
38.2386
36.9801
35.883
35.1363
34.4132
34.0936
33.918
33.8418
33.5734
33.5989
33.6607
33.7814
33.9841
34.3323
34.8911
35.624
36.6205
37.2779
34.1003
15.9742
39.3722
43.1559
41.4866
39.5739
38.0237
36.7957
35.7199
34.987
34.2757
33.9592
33.7838
33.7074
33.4432
33.4691
33.532
33.6545
33.8596
34.2106
34.7702
35.4971
36.4515
36.919
33.2136
15.5031
38.4384
42.5114
41.1122
39.316
37.8127
36.6116
35.5547
34.8348
34.135
33.8216
33.6465
33.5701
33.3123
33.3386
33.4024
33.5266
33.7336
34.087
34.6465
35.3652
36.2706
36.5471
32.3779
15.1307
37.5595
41.8953
40.7481
39.0648
37.6064
36.4291
35.3888
34.6809
33.9921
33.6817
33.507
33.4305
33.181
33.2077
33.2723
33.3981
33.6068
33.962
34.5208
35.2292
36.0786
36.168
31.5947
14.8314
36.7299
41.3041
40.393
38.8193
37.4046
36.2491
35.2234
34.5263
33.8478
33.5402
33.3658
33.2892
33.0495
33.0766
33.142
33.2693
33.4795
33.8362
34.3937
35.0895
35.8769
35.7857
30.8632
14.5873
35.945
40.7352
40.0462
38.5785
37.2072
36.0719
35.0592
34.3719
33.7029
33.3976
33.2235
33.1467
32.9182
32.9456
33.0118
33.1407
33.352
33.7102
34.2657
34.9464
35.6672
35.403
30.1811
14.386
35.2012
40.1863
39.7067
38.3419
37.0136
35.8977
34.8965
34.218
33.5576
33.2545
33.0806
33.0036
32.7871
32.8148
32.8819
33.0122
33.2248
33.5841
34.1369
34.8001
35.4511
35.022
29.5453
14.2186
34.4951
39.6558
39.374
38.1089
36.8236
35.7264
34.7357
34.0651
33.4125
33.1113
32.9375
32.8603
32.6565
32.6845
32.7524
32.8843
33.0979
33.4582
34.0074
34.6508
35.2302
34.6443
28.952
14.0787
33.8243
39.1421
39.0473
37.8792
36.6367
35.5579
34.577
33.9133
33.2678
32.9683
32.7945
32.717
32.5265
32.5549
32.6236
32.757
32.9715
33.3327
33.8775
34.4988
35.0057
34.2709
28.3975
13.9619
33.1864
38.6443
38.7262
37.6525
36.4526
35.392
34.4202
33.7629
33.1237
32.8257
32.6518
32.574
32.3972
32.426
32.4955
32.6305
32.8459
33.2077
33.7472
34.3443
34.7786
33.9026
27.878
13.8649
32.5796
38.1613
38.4104
37.4284
36.271
35.2287
34.2656
33.6139
32.9805
32.6837
32.5097
32.4315
32.2688
32.298
32.3684
32.5049
32.7212
33.0833
33.6164
34.1877
34.5497
33.5401
27.3898
13.7856
32.0022
37.6924
38.0995
37.2067
36.0917
35.0677
34.1131
33.4666
32.8383
32.5426
32.3683
32.2897
32.1411
32.1707
32.2421
32.3802
32.5974
32.9596
33.4852
34.0293
34.3198
33.1836
26.9296
13.7222
31.4528
37.2371
37.7934
36.9873
35.9145
34.9089
33.9627
33.3208
32.6972
32.4022
32.2277
32.1486
32.0155
32.0455
32.1178
32.2573
32.4746
32.8367
33.3538
33.8693
34.0893
32.8333
26.494
13.6738
30.9304
36.795
37.492
36.7701
35.7392
34.7522
33.8143
33.1767
32.5579
32.264
32.0891
32.0096
31.8966
31.927
32.0003
32.1411
32.3541
32.7155
33.223
33.7083
33.8587
32.4892
26.0801
13.6394
30.4339
36.3658
37.1952
36.555
35.5658
34.5976
33.6691
33.0354
32.4275
32.1342
31.9588
31.8789
41.7742
46.6277
42.4586
42.26
49.9437
47.1526
42.0862
51.4001
50.2112
41.6257
51.8965
51.4981
40.9551
40.4941
41.8884
51.937
51.9188
39.6832
44.9198
40.6802
48.6154
52.1422
51.8788
40.1922
39.4649
41.9242
39.3136
50.9357
44.258
45.7919
41.6016
40.1704
38.9328
41.6295
41.1323
53.9701
55.5438
48.7832
43.3008
42.0648
39.2337
41.6603
41.6548
42.2203
43.4907
44.4518
51.9243
52.101
50.3129
44.5337
43.6534
39.5284
41.4574
41.6433
41.8801
40.0827
41.9417
52.3265
51.7995
39.8234
41.1123
41.4223
41.3166
35.6212
37.8458
40.948
53.4569
52.9953
40.1616
40.4192
41.0553
40.5327
31.8623
33.1899
36.0554
45.4003
45.3603
45.6756
46.8135
42.5661
45.3893
55.5123
51.3933
44.8901
50.0653
54.5281
44.5721
45.3223
42.219
45.8137
44.605
46.7643
45.9594
52.1859
53.8141
48.5868
54.3506
53.2577
54.6511
54.4387
48.4049
42.1268
43.3308
42.1954
42.9776
41.2846
44.5221
43.0906
51.7377
51.9585
51.0179
53.3215
53.3049
53.2055
53.3337
50.8526
37.9676
39.9662
41.821
39.0783
36.7459
41.1675
39.2041
52.9238
52.4074
33.2908
35.4845
41.2755
42.8347
34.1523
32.4618
36.626
34.2828
43.7621
53.6255
53.5157
40.5334
40.6179
31.8076
40.4774
42.7107
32.3155
63.0973
32.3862
32.2695
42.3507
38.5806
41.0296
39.9055
41.1524
44.5111
42.1794
58.9841
48.9695
42.1712
45.4176
45.8748
46.2314
50.8758
45.3366
44.7707
49.1761
45.5256
45.1933
45.007
53.9603
53.7326
45.8486
44.7483
41.3391
51.0105
44.4657
51.0138
43.7157
49.3497
44.2782
44.9191
42.8447
51.779
53.4555
53.5849
53.3115
53.4322
51.722
39.569
48.073
40.9872
40.8708
40.5496
42.1883
43.478
41.1354
40.9497
59.9116
48.2242
58.4975
47.3517
57.1855
47.2266
55.1468
55.2434
51.852
51.8667
42.2196
45.2426
52.0994
42.9081
42.8535
46.5041
43.1034
52.029
36.8527
40.7273
40.3642
46.9233
45.8704
47.5495
32.4754
38.4463
37.9305
39.1094
38.6198
32.5685
54.3944
51.4658
46.3643
51.6359
53.0901
48.4059
51.3414
46.5549
43.9062
48.7909
43.7829
52.8723
49.5903
44.3286
51.9881
54.4267
54.3177
54.0575
45.2843
42.5046
45.1957
46.4845
45.3024
47.9892
42.7824
44.9543
46.3644
52.9185
53.0346
53.7972
52.5366
52.0554
53.0001
52.6702
53.7195
54.9812
50.9348
50.0328
51.8668
51.1951
54.9666
42.197
42.0856
43.9078
43.8166
52.1977
46.7209
52.1694
38.1574
37.9792
40.2127
40.0831
42.9783
44.5941
52.6364
42.6334
42.0953
34.5663
39.7098
39.2645
40.2394
39.8485
34.6928
39.6668
33.4793
33.3795
35.7811
35.6565
49.9489
39.9714
48.2964
47.2724
37.7635
36.887
33.0605
35.8317
39.4263
42.8613
31.9554
56.2135
43.7118
53.9783
31.9208
41.3093
46.7512
40.6478
56.0522
40.839
41.9438
40.387
39.3236
40.2886
38.2295
32.1088
40.377
50.1297
51.4585
52.0325
52.6071
42.5065
44.8892
49.5718
48.6255
40.117
54.0372
54.0102
45.3887
42.5017
41.9661
43.9433
46.9278
42.5251
42.6252
54.4956
57.0598
56.3948
55.5061
51.826
46.7412
46.8175
49.586
48.9221
51.9206
40.949
42.2821
42.0297
42.5972
42.3634
41.1021
41.1728
40.8429
36.9808
32.0757
35.1334
34.763
58.0508
43.9953
45.0089
55.1985
57.7716
57.2687
52.3679
48.0794
46.6591
49.687
48.5153
52.7471
52.4741
50.5711
49.8652
53.4319
42.6602
42.8809
42.6713
38.2225
38.6369
41.6311
46.8025
46.6475
52.0481
53.2989
53.5016
53.4686
53.0143
53.291
53.0876
53.4477
53.3412
53.002
38.9862
41.5761
41.2774
41.9427
41.6711
39.1287
38.7021
34.8088
35.0894
33.694
33.8001
37.1499
40.7774
37.5019
38.0817
35.1905
35.5141
39.5814
52.7087
44.8547
47.1032
51.9552
40.8752
33.8454
32.7733
36.2663
33.4893
33.6523
33.1298
34.9372
47.8957
38.0941
36.0364
35.0028
34.6437
34.2717
31.7
40.1795
38.6045
43.743
32.4277
66.1753
40.3545
39.2423
43.982
32.1758
32.1659
55.9563
55.1694
54.5819
46.9159
46.8601
40.4439
40.6295
49.6417
49.6627
49.2313
46.9239
55.7412
47.4109
57.0622
47.9537
44.642
42.4205
43.5731
46.102
47.935
47.6707
43.7588
39.845
48.4877
52.4027
43.6571
47.1792
54.1842
40.5623
42.6998
39.1443
40.0776
52.4025
60.4392
55.0331
52.4216
57.5049
55.7276
51.452
48.4115
53.9333
55.1144
54.7432
54.6904
55.4597
56.1498
55.3624
47.5586
46.8575
51.8227
48.0215
48.4611
46.6471
47.8048
48.5142
51.896
48.6748
47.8285
42.9414
43.3346
42.6042
48.0579
47.387
44.6281
46.4555
45.9732
47.12
46.6204
44.1331
43.8866
40.9301
40.5051
35.7212
35.2526
32.1561
32.8265
36.2345
35.8568
53.2876
52.8334
52.4725
49.0818
49.2747
48.3238
48.9429
52.7269
49.9072
49.0615
48.7409
49.265
49.1262
50.3615
51.9589
47.217
48.0818
54.1998
54.3703
57.8021
57.6136
55.0013
58.5178
58.8548
58.6036
58.3854
57.9488
58.9681
58.5784
53.0623
57.3564
57.8804
41.4591
45.2619
44.3225
46.0294
45.488
41.7171
43.325
42.8246
44.0665
43.496
46.3907
47.9969
47.5206
48.6014
48.1519
46.7773
43.6759
46.7016
46.1985
47.3587
46.8674
43.9807
51.5051
50.8086
52.5796
53.3384
52.4638
51.7165
38.1955
37.7753
38.8501
38.3427
37.0982
36.7189
37.6379
37.2298
42.0096
41.5158
42.6623
42.1734
40.4966
39.1091
41.3496
40.7849
45.4105
45.3409
45.8532
45.5195
47.0731
45.5155
46.3292
45.3476
45.3571
34.4238
34.7184
38.5757
34.1149
33.8694
34.4103
34.1924
33.7992
37.3291
33.838
34.2924
36.1569
37.1265
40.6266
35.8212
35.1891
36.5939
36.1273
34.7496
34.4908
35.1016
34.8382
39.7066
35.6284
36.003
47.9019
42.1749
47.7499
45.8134
47.5928
42.0945
52.504
40.4287
52.1339
49.6099
33.7542
32.9284
33.2632
33.4308
36.1455
35.1827
33.1214
33.2166
49.627
31.7101
34.1214
33.2095
61.3018
63.5008
32.525
61.9628
55.5785
40.9271
32.1083
56.4871
46.9891
62.3559
48.3957
32.1787
41.6038
39.7191
38.5802
49.5347
49.1246
50.9309
45.8046
45.4824
48.9078
40.0104
42.839
40.7067
53.6056
53.8125
51.9546
44.2203
43.4865
46.993
54.1373
44.3545
44.4357
40.6059
41.0306
43.1103
49.5989
53.7938
55.6914
43.9342
43.3314
43.1837
43.488
43.3747
44.0699
42.1991
41.2966
42.9403
47.3929
48.2768
53.2011
36.7215
36.3567
32.917
56.1958
57.0632
52.6671
43.1285
42.9466
42.8325
42.6413
39.9251
40.4359
40.6847
41.6792
43.4255
33.764
37.243
36.8451
46.8396
45.6673
42.0725
32.5527
32.5199
32.5473
44.8802
49.9017
48.3389
39.8285
43.1903
42.4787
32.343
32.3166
32.6133
32.5914
32.234
58.3264
46.7909
43.6451
44.627
49.804
40.8796
40.7983
45.8792
50.5412
46.1557
44.6085
47.0329
43.9709
41.9175
41.022
53.93
54.1485
54.769
51.4286
53.3316
42.0215
42.4007
45.7611
59.0591
57.21
56.3851
60.844
60.1717
42.3988
44.3781
43.7366
46.7406
46.6293
44.4096
48.7398
48.2462
42.6051
46.1173
43.7193
43.9359
46.049
42.0276
42.7617
54.0992
54.9256
51.9175
51.9217
51.2245
51.0561
48.8123
49.2961
48.9966
50.876
50.6847
51.0345
45.9615
46.9231
51.6039
53.1113
56.2838
54.9137
55.4493
55.8591
54.4484
40.8996
41.8519
41.612
44.5032
44.2555
42.2339
39.8761
39.6634
41.3516
41.0848
45.6643
47.109
46.838
48.721
48.4533
47.5784
43.0697
45.0051
44.7523
46.5684
46.3013
44.6169
39.3467
39.7774
42.5315
41.7447
38.7774
39.2043
42.5779
43.0273
44.178
38.3196
38.1458
39.4634
39.2636
37.1735
37.9769
37.8131
43.5273
41.9142
42.4254
47.0522
47.1335
44.2409
44.6075
46.8465
47.1571
47.3129
52.0737
46.6625
46.9711
37.7591
37.3792
34.0024
35.0312
38.2033
37.874
32.609
32.6768
33.5733
33.2645
32.4813
32.543
50.229
32.179
31.9688
32.1354
103.293
33.7253
40.4089
53.9402
50.8265
32.5349
32.5453
31.9984
57.0097
58.2964
58.1475
51.7325
31.9065
32.5154
32.5227
43.4689
38.9623
39.0511
48.9353
49.622
45.3141
44.4356
41.4944
55.1547
55.6701
57.1745
43.193
47.9026
46.5415
48.3396
48.316
43.9726
43.6046
44.1843
52.1507
53.8056
54.0332
53.3006
53.5662
56.8455
56.2886
56.4753
55.9041
56.0979
56.6094
49.4014
48.8998
49.1052
48.6398
48.7342
49.186
57.6031
56.9342
56.9841
56.6554
56.816
57.4514
50.2887
49.7984
50.044
49.3291
49.5605
50.1
52.8145
53.0379
52.3586
52.5613
34.8986
36.2723
36.1617
33.7301
34.1795
34.0802
34.411
34.2875
33.7657
51.2087
51.2233
48.906
50.6047
32.9555
32.9574
32.9616
32.9575
33.0097
32.646
32.5029
32.5181
33.5477
33.8049
33.7163
33.9865
33.8952
33.6031
32.9812
32.9676
33.0287
33.019
33.3357
50.5793
50.4124
46.1927
51.0538
32.9672
32.1598
41.5926
31.7231
32.2135
32.141
32.3662
66.4089
65.8333
64.3536
65.2594
61.5044
32.5874
32.6108
32.2469
32.1974
57.7726
58.924
57.5969
56.7511
55.6837
53.0776
58.1691
56.8164
46.9878
46.9339
49.7942
45.7594
47.2716
50.0952
48.6227
54.3401
49.7588
51.6307
56.6985
57.3185
53.3864
55.9404
58.3324
47.4281
48.276
47.8881
50.1517
53.3014
53.5308
51.8762
44.7574
50.8932
48.8522
53.562
52.909
45.9659
47.9384
49.4733
54.6877
50.6889
45.378
46.5596
59.0399
57.9063
59.5649
56.8408
58.4833
59.4057
59.8192
59.4414
54.8563
54.6128
54.8397
54.2362
54.3921
54.6709
55.8869
55.4921
55.702
55.0605
55.2782
55.6327
47.2968
48.5163
48.6075
48.1853
48.3506
47.0152
47.9055
47.7895
47.4895
48.74
49.0304
48.3393
48.6808
48.6335
48.683
48.7128
48.0907
46.3113
45.2715
42.632
47.1202
47.3295
47.1716
43.8156
46.786
46.7691
43.4853
43.5813
45.306
53.7194
52.3713
50.0018
49.6311
49.1672
50.7151
50.4831
50.266
56.5389
56.4661
53.8374
57.7414
58.0287
54.4392
56.225
56.4718
57.7034
56.8853
56.8439
56.9459
56.9134
57.6303
58.6325
58.7131
58.2965
59.8916
59.8968
59.6117
59.789
58.182
59.0457
59.9062
60.2072
59.0818
43.3641
42.7944
41.209
41.9744
44.0048
43.7283
40.3325
40.0996
40.8256
40.5748
47.6462
47.3775
46.0225
47.1742
48.1855
47.9162
45.5211
45.2623
43.3691
44.2911
46.0377
45.7787
51.2786
50.8098
51.0754
50.2929
50.5476
51.0052
52.2092
51.8635
52.0857
51.3459
51.6134
51.9824
38.0527
36.7804
36.9192
36.5076
36.644
37.9134
38.6608
37.3688
37.5284
37.0626
37.2121
38.4963
36.9693
35.7363
35.8537
35.5106
35.6227
36.8431
37.501
36.236
36.3714
35.9758
36.1034
37.3644
38.6827
38.4985
41.8453
40.3416
40.5169
39.9948
40.1676
41.6807
39.0652
38.8715
37.3558
37.2344
40.0567
38.5536
39.0006
37.6862
37.8417
39.5071
41.1795
39.6504
39.8229
39.2738
39.4732
40.998
37.6548
37.502
46.3111
46.7822
46.9001
45.0419
45.615
45.7518
47.5461
47.4339
47.7362
47.6668
46.0302
45.3216
46.1487
45.655
47.1813
46.7712
45.3029
34.5286
35.8096
35.6584
36.0505
35.9351
34.6252
34.0323
33.9488
34.3344
34.2648
33.7737
33.9291
33.8946
34.8157
34.5726
35.4521
35.1459
34.1051
35.3797
35.0904
35.0242
35.2791
36.4647
35.2898
35.3993
35.0874
35.1851
36.3207
34.6614
34.5749
35.0143
34.9265
47.676
43.2017
43.8182
42.1848
42.6544
47.1314
46.7599
47.2982
44.5494
45.5739
47.4936
52.2167
46.0426
47.2942
43.7964
44.9036
51.5488
32.9047
32.8663
32.9513
32.9348
32.4064
32.4291
33.1197
32.7516
32.7676
32.8253
32.7856
33.3163
33.4647
33.3865
33.6299
33.546
33.3729
33.1502
33.1757
33.1062
33.3122
33.2421
33.1776
50.2701
32.0654
31.9723
31.7979
59.6816
77.6759
78.9134
71.6969
73.8877
61.5195
32.818
59.6042
51.5686
53.191
32.0488
32.5501
32.5646
56.9119
59.4545
59.8863
54.9196
57.197
62.2747
59.8224
49.9923
57.5091
55.3224
32.8165
32.5678
31.9549
36.6723
36.6923
36.8036
36.701
36.7352
36.825
36.7493
36.7998
36.8581
36.8185
36.8762
36.8993
36.8938
36.936
36.9352
36.945
36.9557
36.9494
36.9535
36.9306
36.935
36.918
36.8696
36.9008
36.8519
36.7985
36.8623
36.7822
36.7389
36.8304
36.5239
36.5669
36.658
36.5856
36.6586
36.7103
36.6885
36.7873
36.7886
36.8201
36.9116
36.8783
36.938
36.9993
36.944
37.0121
37.0253
36.9652
37.0213
36.9856
36.9374
36.9668
36.8945
36.8691
36.8665
36.7751
36.7851
36.7436
36.6564
36.7134
36.3976
36.4832
36.5415
36.5205
36.655
36.6508
36.703
36.8539
36.7961
36.9052
37.0523
36.9342
37.096
37.1962
37.0319
37.2161
37.229
37.0597
37.2185
37.1509
37.0138
37.1189
37.0032
36.9123
36.9591
36.8218
36.781
36.7762
36.6434
36.6457
36.3045
36.4517
36.4696
36.5114
36.7076
36.6632
36.7808
37.0258
36.8858
37.1148
37.3933
37.1135
37.4839
37.7003
37.282
37.7397
37.7328
37.3162
37.6943
37.5241
37.2192
37.4568
37.2402
37.0479
37.1672
36.9528
36.8458
36.8841
36.6901
36.6499
36.2485
36.463
36.4519
36.5429
36.8257
36.7312
36.9371
37.3417
37.0893
37.5069
38.1352
37.5291
38.3949
39.1605
37.924
39.2351
39.0461
37.9487
38.8645
38.2926
37.6697
38.1214
37.674
37.3278
37.5425
37.1887
37.0012
37.0825
36.796
36.7108
36.2205
36.4964
36.4695
36.6026
36.9918
36.8639
37.1519
37.7831
37.4442
38.0726
39.6822
38.4238
39.1916
39.8989
38.9389
40.7032
40.6745
39.5716
40.0148
39.5725
39.0872
39.2871
38.3494
37.8204
38.1131
37.5352
37.2652
37.3744
36.961
36.832
36.2075
36.5435
36.5072
36.6768
37.1679
37.0366
37.3719
38.1931
37.8957
38.3499
38.7848
38.6145
40.707
41.3805
41.0566
43.7182
42.0931
41.0341
40.8151
39.2079
38.5525
38.8336
37.9694
37.6376
37.7408
37.1735
37.0107
36.2011
36.5948
36.5562
36.7524
37.3263
37.2094
37.5619
38.4972
38.2776
38.7694
39.2904
39.1857
41.9957
42.9324
42.8128
47.4773
44.8065
43.8631
42.247
40.0784
39.4314
39.5752
38.4303
38.0847
38.133
37.4077
37.2312
36.1983
36.6469
36.6077
36.8263
37.4702
37.3631
37.7309
38.7558
38.5634
39.085
39.6616
39.5728
42.2509
43.0508
43.1235
49.7067
46.623
46.0688
43.3523
40.8302
40.2802
40.2317
38.8597
38.5421
38.5032
37.6366
37.4662
36.1996
36.7012
36.6602
36.9011
37.6134
37.5056
37.8996
39.0198
38.8202
39.3812
39.9816
39.9076
41.99
42.3215
42.4954
50.686
47.544
47.2773
44.1135
41.4119
40.9928
40.7523
39.2198
38.9573
38.8182
37.8385
37.6902
36.2048
36.7593
36.7154
36.9792
37.7657
37.6505
38.082
39.3058
39.0893
39.6789
40.3615
40.1836
41.478
41.1791
41.4273
50.9318
48.5965
48.492
44.5802
41.8142
41.5292
41.1225
39.491
39.2964
39.059
37.998
37.8826
36.229
36.8433
36.7744
37.0855
37.9626
37.8055
38.3183
39.6575
39.3801
39.9707
40.6313
40.5455
40.7498
39.4919
39.8666
43.4348
50.7998
49.8674
50.4738
45.998
45.8769
44.8056
42.0488
41.8878
41.3457
39.6685
39.544
39.2195
38.1068
38.0298
36.2316
36.9014
36.8597
37.1631
38.1189
38.0043
38.5076
39.9132
39.7303
40.2979
40.7442
40.7851
38.9886
35.5496
36.5277
49.2754
53.5698
53.9896
50.0234
45.9094
46.009
44.7826
42.1236
42.0836
41.4317
39.7559
39.6989
39.3024
38.1644
38.1257
36.22
36.9384
36.9132
37.2211
38.2424
38.1535
38.6524
39.9893
39.9556
40.282
36.135
38.602
29.4497
42.4764
42.9518
48.5683
50.2733
51.1834
49.131
45.5906
45.8539
44.5711
42.0717
42.1194
41.4012
39.7581
39.7626
39.308
38.1661
38.1691
36.1899
36.9432
36.9428
37.2399
38.2996
38.2662
38.7048
39.7709
39.9593
39.8008
32.8037
35.2837
25.4521
41.4649
42.2455
46.9803
49.0582
49.964
48.1395
45.0818
45.4732
44.1713
41.8901
42.0413
41.2624
39.6895
39.7494
39.25
38.1176
38.1595
36.1393
36.9133
36.9389
37.2162
38.2644
38.2987
38.6365
39.3521
39.6815
39.0786
29.7967
32.0156
22.4745
40.3568
41.1902
45.4991
47.9263
48.7668
47.1956
44.5316
44.945
43.7104
41.614
41.8266
41.0274
39.5359
39.6574
39.1126
38.0081
38.095
36.0695
36.8526
36.9008
37.1553
38.1575
38.2436
38.4809
38.8009
39.2251
38.1967
27.2037
29.1091
20.3197
39.2646
40.0803
44.1341
46.8811
47.6573
46.3187
43.9937
44.3951
43.2468
41.3051
41.5384
40.7538
39.3365
39.4891
38.9299
37.8596
37.9738
35.9833
36.7666
36.8333
37.064
37.9966
38.1217
38.2625
38.1552
38.6469
37.231
25.0127
26.6198
18.7583
38.2209
38.9986
42.8754
45.9135
46.6323
45.5
43.4833
43.8633
42.8002
40.99
41.2263
40.4689
39.1162
39.2827
38.7247
37.6884
37.8184
35.8837
36.66
36.7417
36.9483
37.7946
37.9495
37.9975
37.4525
37.9833
36.2452
23.1756
24.5224
17.6131
37.2327
37.9685
41.7102
45.0138
45.6826
44.7316
43.0008
43.3602
42.3758
40.6803
40.9119
40.1851
38.8881
39.0595
38.5099
37.505
37.6434
35.7735
36.5369
36.6307
36.8126
37.5605
37.7388
37.696
36.7279
37.2724
35.2715
21.6371
22.765
16.7594
36.2991
36.9943
40.6267
44.1722
44.7983
44.0074
42.5405
42.8839
41.9713
40.3805
40.6043
39.908
38.6592
38.8307
38.2928
37.3157
37.4581
35.6548
36.4001
36.5039
36.6607
37.3002
37.4978
37.3646
36.0017
36.546
34.3294
20.3466
21.2931
16.1114
35.4166
36.0739
39.615
43.3805
43.9699
43.3218
42.0976
42.4283
41.582
40.0917
40.3074
39.6396
38.4334
38.6024
38.0771
37.1246
37.268
35.5294
36.252
36.3641
36.4949
37.0175
37.2315
37.0102
35.2859
35.8215
33.4307
19.2605
20.0574
15.6104
34.5813
35.2035
38.6665
42.6316
43.1895
42.6698
41.6696
41.9893
41.2048
39.8122
40.021
39.3798
38.2124
38.3776
37.8651
36.934
37.0768
35.3986
36.0938
36.2133
36.3169
36.7169
36.9438
36.6409
34.5885
35.1095
32.5819
18.3428
19.0165
15.2161
33.7898
34.3794
37.7744
41.9199
42.4504
42.0469
41.2549
41.5647
40.8382
39.5402
39.7435
39.127
37.9966
38.1579
37.6575
36.7456
36.8867
35.2635
35.9266
36.0529
36.1276
36.4037
36.6396
36.2632
33.9149
34.4177
31.7855
17.5644
18.1361
14.9004
33.0388
33.5983
36.9329
41.241
41.7473
41.4497
40.8521
41.1532
40.481
39.2744
39.4732
38.8802
37.786
37.9435
37.4547
36.5602
36.699
35.1247
35.751
35.8835
35.9282
36.0825
36.324
35.8814
33.2683
33.7507
31.0413
16.9017
17.3887
14.6439
32.3259
32.8571
36.1372
40.5913
41.076
40.8755
40.46
40.7532
40.1322
39.0138
39.2088
38.6383
37.58
37.7341
37.2562
36.378
36.5144
34.9824
35.5678
35.7059
35.7203
35.7566
36.0014
35.4986
32.6503
33.1112
30.3472
16.3358
16.7518
14.4329
31.6487
32.1534
35.3835
39.9679
40.4331
40.3218
40.0775
40.3635
39.791
38.7578
38.9494
38.4007
37.378
37.5291
37.0617
36.1992
36.333
34.8369
35.3781
35.5209
35.5057
35.4284
35.6747
35.117
32.0612
32.5003
29.7001
15.8512
16.2075
14.2576
31.0053
31.4848
34.6683
39.3684
39.8158
39.7868
39.7037
39.9833
39.4566
38.5059
38.6944
38.1668
37.1796
37.3281
36.8708
36.0236
36.155
34.6884
35.1831
35.3298
35.2858
35.0997
35.3462
34.7383
31.5003
31.9183
29.0965
15.4357
15.7412
14.1113
30.3939
30.8495
33.9889
38.7911
39.2221
39.2691
39.3378
39.6115
39.1284
38.2576
38.4435
37.9364
36.9845
37.1306
36.6831
35.8509
35.9801
34.537
34.9839
35.1337
35.0621
34.7718
35.0176
34.3637
30.9666
31.3644
28.5327
15.079
15.3413
13.9891
29.8129
30.2458
33.3429
38.2342
38.65
38.7673
38.9791
39.2474
38.806
38.0127
38.1961
37.7089
36.7922
36.9362
36.4983
35.6811
35.8082
34.3831
34.7814
34.9336
34.8356
34.4456
34.69
33.9942
30.4587
30.8373
28.0048
14.773
14.998
13.8874
29.2611
29.6723
32.7285
37.6967
38.0981
38.2807
38.6273
38.8906
38.4889
37.7708
37.9519
37.4842
36.6025
36.7445
36.3161
35.5139
35.6391
34.227
34.5763
34.7303
34.6071
34.122
34.3645
33.6302
29.9747
30.3355
27.5091
14.5108
14.7035
13.8038
28.7373
29.1276
32.1439
37.1775
37.5652
37.8083
38.282
38.5404
38.1768
37.5316
37.7107
37.2619
36.415
36.5554
36.1363
35.3491
35.4725
34.069
34.3695
34.5248
34.3774
33.8016
34.0416
33.2721
29.513
29.8573
27.0422
14.2867
14.4513
13.7366
28.2405
28.6106
31.5876
36.6758
37.0504
37.3497
37.9429
38.1967
37.8695
37.2951
37.4722
37.042
36.2297
36.3685
35.9586
35.1866
35.3083
33.9094
34.1613
34.3175
34.1469
33.4846
33.722
32.9203
29.0715
29.4008
26.6007
14.0959
14.236
13.6845
27.7696
28.1203
31.0585
36.1909
36.553
36.9043
37.6099
37.8591
37.5669
37.061
37.2363
36.8242
36.0462
36.1836
35.7828
35.0261
35.1463
33.7486
33.9523
34.1091
33.9163
33.1714
33.4059
32.5747
28.6485
28.9641
26.1817
13.9346
14.053
13.6467
27.324
27.6559
30.5556
35.7224
36.0723
36.4719
37.2828
37.5276
37.269
36.8293
37.0029
36.6085
35.8646
36.0007
35.6089
34.8677
34.9864
33.5965
33.7543
33.9
33.6977
32.8742
33.0937
32.2468
28.2494
28.5454
25.7875
13.7995
13.8984
13.6227
26.9079
27.2165
30.0852
35.2819
35.6078
36.0651
36.9752
37.202
36.9889
36.6126
36.7719
36.4071
35.696
35.8196
35.4477
34.7216
34.8285
42.6828
42.5382
41.6473
46.0726
47.5209
48.6242
42.7702
43.4592
43.0576
43.1433
43.1837
42.2584
49.6463
51.6547
52.0313
48.9567
49.8418
47.6477
42.5501
42.704
42.1278
51.2895
52.8128
52.8657
52.1374
52.4035
50.4508
41.5058
41.7299
41.6941
51.8652
52.8157
52.8344
52.5975
52.6557
51.5825
39.9853
40.3238
41.0995
40.3384
39.4378
39.4906
44.5381
44.1344
41.5496
51.9563
53.8526
53.9544
52.8481
52.8611
51.9366
36.7915
37.4356
39.9391
44.0696
38.5824
38.7676
40.1985
39.2844
40.4528
51.7408
51.5393
46.7147
51.7195
54.0245
53.9206
53.9816
54.0264
51.7496
41.8455
40.2803
39.4169
52.375
49.8909
55.6152
39.1728
40.1381
40.6123
53.3198
53.2159
41.441
41.6707
42.1823
39.4895
40.5766
40.2458
50.4685
51.4612
52.0877
44.9395
46.1197
45.2264
43.526
42.4544
44.2611
41.1247
41.9107
42.4877
40.7556
41.3268
40.6431
39.4817
39.388
38.8532
41.4876
39.9072
40.077
39.6641
39.8494
41.409
54.1354
53.5788
53.3265
56.1299
56.0344
55.5502
45.8508
45.09
47.8375
42.9182
44.0568
44.5051
43.0444
43.5698
42.5057
39.8296
39.7474
39.1596
41.6884
40.3191
40.4296
40.1302
40.2759
41.689
42.9206
43.022
42.2388
43.6456
43.6465
43.5399
44.1975
44.1147
44.3284
51.879
50.3297
50.3821
50.5956
50.4704
52.0256
47.1662
46.7806
49.885
44.2693
45.6034
45.89
44.912
45.2783
43.9765
40.1192
40.0519
39.4548
41.5493
40.5671
40.6309
40.4617
40.5424
41.576
42.071
42.2607
41.9365
40.4364
41.5693
41.4185
42.4245
42.2844
41.7478
52.2491
50.2946
50.4511
48.0717
48.5255
51.8699
40.5152
40.4087
39.7514
41.2653
40.7031
40.7594
40.6513
40.6856
41.3084
40.8229
41.0923
41.4016
36.1974
38.6916
38.6631
39.8883
39.7018
37.479
40.0362
40.1339
41.4727
53.2678
48.5667
49.4138
51.7791
51.9176
53.0665
40.7653
40.6598
40.061
40.8073
40.8452
40.8947
40.7772
40.8287
40.8736
38.9555
39.3606
40.6975
31.9268
32.5238
32.4364
34.4065
34.2926
33.098
28.0245
30.844
37.7695
45.1368
41.4482
36.9458
38.7128
38.7353
44.5353
45.9271
47.745
46.9464
48.2149
48.4004
46.8032
42.9854
43.46
42.9273
46.5344
46.1201
45.0675
55.4519
56.2644
56.21
52.6518
53.1529
51.838
45.8251
47.1199
45.4905
50.7532
49.3613
48.7509
52.1486
51.7679
53.9587
44.9173
43.61
43.5211
43.7487
43.6383
45.0248
42.249
43.1819
43.0269
45.6637
45.7499
46.1718
43.7602
44.2013
44.8563
46.6886
47.8066
48.1236
46.3061
46.7027
46.1005
52.2764
50.8845
50.7358
53.082
52.8607
53.6688
50.9911
51.5091
49.0904
54.1047
54.0061
53.9008
54.2751
54.2729
53.4353
54.8912
52.7959
52.4907
53.8574
53.7299
54.7168
47.8395
50.1034
50.7943
42.3072
42.6933
42.5605
43.429
43.3144
43.1677
42.1644
42.7516
42.8818
42.8638
42.3552
42.4949
40.5338
40.6653
41.4014
44.2645
43.1754
43.6148
42.6422
42.7955
43.2059
51.6848
47.4939
47.9291
50.4257
50.4649
51.9923
52.6904
52.7897
51.1624
53.3103
54.1307
54.1573
53.5006
53.5044
53.3005
53.0861
54.265
54.2721
54.1839
54.2099
52.9771
50.6645
52.4746
52.6477
38.3554
40.252
40.0713
41.2648
41.1083
39.618
41.7591
41.8012
42.0056
38.9527
37.7823
37.9076
35.3411
35.4539
36.8691
41.0453
40.2592
40.3998
38.0335
38.1597
39.33
52.8524
51.4949
51.6379
50.6134
50.7611
52.4867
33.4097
34.6676
34.5285
38.5896
38.3069
35.1401
41.1441
40.4299
40.7288
34.0415
33.0358
33.1287
36.5066
35.126
35.2329
33.2336
33.361
34.4522
53.5136
50.718
51.4291
49.6885
50.4689
53.6791
40.2163
40.0252
40.0034
44.1535
31.8329
31.7938
32.3573
32.284
31.761
40.1843
38.0985
38.819
40.3502
40.6281
43.0616
63.0933
62.0379
67.3565
42.0011
39.8511
40.0866
39.0694
38.9368
38.4714
40.6492
39.3659
39.5975
38.9935
39.2795
40.4903
41.9477
41.6817
40.9415
43.6472
42.3095
42.7755
41.7586
42.1415
43.3012
50.8992
53.3296
51.0879
43.0332
43.0094
42.0947
45.6743
43.8237
43.7734
43.6653
43.8197
45.7455
48.3627
47.6182
50.7516
45.1699
46.5513
46.7198
46.1412
46.361
44.9817
45.1967
40.9106
41.5193
43.109
43.3816
45.4307
51.697
51.0714
43.8326
53.8956
52.8452
53.0316
51.6375
52.6412
53.8187
45.4949
43.3458
43.5946
42.908
43.2516
45.3342