/*--------------------------------*- C++ -*----------------------------------*\
| =========                 |                                                 |
| \\      /  F ield         | OpenFOAM: The Open Source CFD Toolbox           |
|  \\    /   O peration     | Version:  v1912                                 |
|   \\  /    A nd           | Website:  www.openfoam.com                      |
|    \\/     M anipulation  |                                                 |
\*---------------------------------------------------------------------------*/
FoamFile
{
    version     2.0;
    format      ascii;
    class       volScalarField;
    location    "500";
    object      nut;
}
// * * * * * * * * * * * * * * * * * * * * * * * * * * * * * * * * * * * * * //

dimensions      [0 2 -1 0 0 0 0];


internalField   nonuniform List<scalar> 
12556
(
1.15562
1.15558
1.15553
1.15552
1.15589
1.15591
1.15593
1.15597
1.15603
1.15615
1.15632
1.15652
1.15666
1.15667
1.15656
1.15638
1.15621
1.15608
1.15599
1.15595
1.15555
1.15554
1.15558
1.15562
1.15486
1.15476
1.15466
1.15463
1.15492
1.15501
1.1551
1.15537
1.15557
1.15592
1.15642
1.15698
1.1574
1.15748
1.15718
1.15667
1.15616
1.15575
1.15533
1.15513
1.15473
1.1547
1.15478
1.15487
1.15407
1.15391
1.15377
1.15375
1.15399
1.15414
1.15435
1.15469
1.1552
1.15603
1.1572
1.13193
1.03666
1.03346
1.11253
1.15771
1.15656
1.15561
1.15487
1.15443
1.15396
1.15388
1.15397
1.15411
1.15326
1.15305
1.15288
1.15287
1.15309
1.15333
1.15372
1.15428
1.15535
1.15708
0.96263
0.782201
0.706654
0.717444
0.79876
0.949626
1.15787
1.15608
1.15477
1.15392
1.15326
1.1531
1.15317
1.15335
1.15244
1.15218
1.152
1.15201
1.15225
1.15261
1.15327
1.15422
1.15627
0.935909
0.657911
0.491042
0.421083
0.441589
0.529572
0.671293
0.883755
1.15747
1.15519
1.15368
1.15267
1.15235
1.15238
1.15257
1.15162
1.15132
1.15113
1.15118
1.15147
1.15201
1.15308
1.15469
1.09578
0.714379
0.449838
0.278857
0.208673
0.24019
0.334253
0.471889
0.663836
0.94835
1.15624
1.15377
1.1522
1.15164
1.15158
1.15177
1.1508
1.15047
1.15029
1.1504
1.15076
1.15155
1.15317
1.15567
0.949853
0.589927
0.331451
0.142515
0.0744375
0.114605
0.211974
0.342729
0.518836
0.771361
1.15447
1.15424
1.15186
1.15098
1.15078
1.15095
1.15
1.14966
1.14949
1.14968
1.15014
1.15124
1.15354
1.15698
0.889913
0.56866
0.329791
0.12568
0.0625974
0.154734
0.272383
0.432935
0.659875
1.02898
1.15506
1.15167
1.15039
1.15002
1.15014
1.14925
1.14889
1.14876
1.14904
1.14963
1.1511
1.15414
1.15842
0.898118
0.634872
0.47787
0.372688
0.0708634
0.145379
0.24734
0.392813
0.598737
0.947492
1.15614
1.15165
1.1499
1.14931
1.14937
1.14855
1.14819
1.14809
1.1485
1.14923
1.15111
1.15489
1.15987
0.935169
0.724521
0.661264
0.707846
0.0960646
0.160188
0.252541
0.386991
0.577456
0.90656
1.15738
1.15179
1.14955
1.14872
1.1487
1.14793
1.14756
1.14752
1.14805
1.14895
1.15126
1.15575
1.16132
0.968406
0.779451
0.740885
0.606376
0.129846
0.189649
0.27875
0.407598
0.587958
0.900511
1.15868
1.1521
1.14935
1.14828
1.14818
1.14737
1.14701
1.14703
1.14769
1.14879
1.15153
1.15668
1.16277
0.987771
0.785756
0.700973
0.499472
0.165332
0.232193
0.324515
0.452748
0.627409
0.92523
1.15997
1.15254
1.14932
1.14802
1.14784
1.14689
1.14653
1.14662
1.14744
1.14873
1.1519
1.15767
1.16419
1.0064
0.77499
0.617881
0.419644
0.0423946
0.212415
0.296702
0.397403
0.526679
0.697621
0.980111
1.16119
1.15306
1.14942
1.14791
1.14766
1.14647
1.14612
1.14627
1.14724
1.14878
1.15243
1.15879
1.16567
1.04898
0.795626
0.579539
0.217499
0.0978152
0.314666
0.411764
0.51407
0.638881
0.803568
1.06816
1.16227
1.15359
1.14962
1.14794
1.14763
1.1461
1.14576
1.14597
1.14707
1.14882
1.15285
1.15969
1.16681
1.15814
0.899
0.677076
0.0426265
0.147522
0.504476
0.626894
0.699508
0.802664
0.95214
1.16717
1.16314
1.15409
1.14986
1.14804
1.1477
1.14577
1.14543
1.14569
1.14691
1.14886
1.15323
1.16045
1.16766
1.16687
1.10801
0.75767
0.0325008
0.164301
0.521499
0.814543
0.981194
1.03165
1.1554
1.16802
1.16375
1.1545
1.1501
1.14818
1.14781
1.14546
1.14512
1.14541
1.14674
1.14887
1.15352
1.16102
1.16817
1.16606
1.1087
0.63037
0.0293462
0.177918
0.533177
0.823253
1.01678
1.11524
1.15665
1.16841
1.16409
1.15478
1.15029
1.14831
1.14793
1.14517
1.14482
1.14513
1.14654
1.14883
1.15372
1.16139
1.16831
1.16422
1.08561
0.519895
0.0283812
0.189254
0.53983
0.829095
1.01917
1.1162
1.15709
1.1684
1.16415
1.15492
1.1504
1.1484
1.14802
1.14487
1.14451
1.14483
1.1463
1.14873
1.1538
1.16157
1.16813
1.1613
1.0568
0.437823
0.0284615
0.198834
0.542368
0.832895
1.0203
1.11631
1.15694
1.16807
1.16399
1.15494
1.15044
1.14844
1.14806
1.14458
1.14421
1.14452
1.14603
1.14856
1.15377
1.16156
1.16764
1.15726
1.02353
0.382896
0.0291506
0.207035
0.543221
0.834678
1.02056
1.11587
1.15639
1.16751
1.16366
1.15485
1.15041
1.14842
1.14804
1.14428
1.1439
1.14421
1.14574
1.14834
1.15365
1.1614
1.16688
1.15209
0.986316
0.346201
0.0302352
0.214135
0.543578
0.834032
1.02011
1.11505
1.15556
1.16678
1.1632
1.15468
1.15032
1.14834
1.14796
1.14397
1.14359
1.14389
1.14543
1.14808
1.15345
1.16111
1.16587
1.14577
0.944369
0.319957
0.0315939
0.220343
0.54365
0.831333
1.01887
1.11391
1.15454
1.16594
1.16266
1.15446
1.15018
1.14822
1.14783
1.14365
1.14328
1.14357
1.14512
1.1478
1.15321
1.16072
1.16463
1.13816
0.89965
0.300439
0.0331504
0.225821
0.543462
0.82755
1.01668
1.11248
1.15337
1.16504
1.16207
1.1542
1.15
1.14806
1.14765
1.14332
1.14296
1.14326
1.14483
1.14752
1.15294
1.16026
1.16313
1.12885
0.857728
0.285622
0.0348545
0.230699
0.543041
0.823365
1.01359
1.11071
1.15207
1.16409
1.16146
1.15391
1.14979
1.14786
1.14743
1.14299
1.14265
1.14295
1.14453
1.14725
1.15266
1.15972
1.16134
1.11732
0.82151
0.274236
0.0366714
0.235079
0.542426
0.819068
1.00985
1.1086
1.15064
1.16312
1.16083
1.1536
1.14956
1.14763
1.14718
1.14265
1.14233
1.14265
1.14425
1.14698
1.15238
1.15913
1.15915
1.10354
0.790761
0.265423
0.0385779
0.239048
0.541659
0.814766
1.00569
1.10618
1.1491
1.16213
1.16019
1.15328
1.14931
1.14738
1.1469
1.14231
1.14201
1.14235
1.14398
1.14673
1.15209
1.15845
1.15647
1.08812
0.764467
0.25858
0.040558
0.242676
0.540783
0.810502
1.00129
1.10352
1.14746
1.16112
1.15956
1.15294
1.14905
1.14711
1.1466
1.14196
1.14169
1.14206
1.14371
1.14648
1.15179
1.15768
1.15321
1.07192
0.74173
0.253267
0.042602
0.246023
0.539836
0.806298
0.996778
1.10066
1.14574
1.16011
1.15893
1.15261
1.14877
1.14683
1.14629
1.14161
1.14137
1.14176
1.14344
1.14623
1.15149
1.15678
1.14932
1.0556
0.721873
0.249156
0.0447038
0.249139
0.538854
0.802175
0.99222
1.09765
1.14395
1.15908
1.1583
1.15227
1.14849
1.14654
1.14597
1.14126
1.14105
1.14147
1.14319
1.14599
1.15116
1.15573
1.14481
1.0396
0.704382
0.245995
0.0468613
0.252068
0.537866
0.798148
0.987666
1.09453
1.1421
1.15806
1.15767
1.15193
1.14821
1.14624
1.14564
1.14091
1.14073
1.14118
1.14293
1.14575
1.15082
1.15451
1.13974
1.02414
0.688857
0.243589
0.0490747
0.25485
0.536901
0.794233
0.98315
1.09135
1.14021
1.15702
1.15705
1.15159
1.14792
1.14594
1.14531
1.14056
1.14042
1.1409
1.14269
1.14552
1.15044
1.1531
1.1342
1.00933
0.674978
0.241782
0.0513463
0.257517
0.535982
0.790446
0.978698
1.08811
1.13828
1.15599
1.15644
1.15124
1.14763
1.14564
1.14497
1.14022
1.14011
1.14062
1.14244
1.14528
1.15003
1.15148
1.12827
0.995194
0.662484
0.240447
0.0536801
0.260101
0.53513
0.786799
0.97433
1.08486
1.13632
1.15495
1.15583
1.15091
1.14735
1.14534
1.14464
1.13987
1.13979
1.14035
1.1422
1.14504
1.14957
1.14965
1.12204
0.981732
0.651162
0.239481
0.0560814
0.262629
0.534367
0.783308
0.970064
1.0816
1.13434
1.1539
1.15522
1.15057
1.14706
1.14504
1.14431
1.13955
1.1395
1.14009
1.14198
1.14479
1.14907
1.14761
1.11559
0.968909
0.640827
0.238796
0.0585567
0.265127
0.533708
0.779983
0.965914
1.07835
1.13234
1.15286
1.15462
1.15025
1.14679
1.14476
1.144
1.13926
1.13925
1.13987
1.14179
1.14457
1.14853
1.14539
1.10897
0.956684
0.631327
0.238319
0.0611138
0.267621
0.533173
0.77684
0.961896
1.07513
1.13034
1.15183
1.15404
1.14998
1.14657
1.14452
1.14374
0.314053
0.0625987
0.0536331
0.719286
0.0871484
0.0654933
0.619517
0.12179
0.0911479
0.512989
0.153476
0.127298
0.426811
0.0325736
0.0398428
0.189754
0.157475
0.262348
0.064606
0.0340269
0.0930301
0.254183
0.192412
0.120748
0.0764252
0.0556567
0.107612
0.0327209
0.0232047
0.0685103
0.12307
0.130422
0.620952
0.801997
0.386705
0.0410758
0.0530142
0.0923518
0.136746
0.124609
0.734861
0.729485
0.805565
0.671163
0.204956
0.244937
0.0605614
0.0466623
0.125502
0.16492
0.142741
0.715249
0.630476
0.717728
0.566604
0.114348
0.161146
0.0976141
0.0770643
0.635295
0.527968
0.61734
0.477561
0.058145
0.0820118
0.0183103
0.138357
0.130868
0.577865
0.35238
0.51436
0.36904
0.0254703
0.0373829
0.0829582
0.0859899
0.0680984
0.0967602
0.288155
0.043816
0.0857548
0.0515759
0.034253
0.0556235
0.0356715
0.0504848
0.250773
0.29608
0.726824
0.217179
0.189415
0.277846
0.22333
0.0462629
0.0410607
0.0767652
0.0531119
0.058296
0.0516995
0.0531325
0.075259
0.165546
0.199318
0.658439
0.145262
0.11644
0.186736
0.148019
0.0745341
0.0620175
0.108781
0.0812987
0.0983374
0.0588466
0.0793427
0.104127
0.0833235
0.112489
0.553263
0.0868488
0.0613972
0.114806
0.0881095
0.126778
0.100931
0.0378159
0.0568544
0.473595
0.0163978
0.0401795
0.0269159
0.0606326
0.0409619
0.0158675
0.143417
0.140047
0.019085
0.00517856
0.0253659
0.361774
0.0491227
0.0186419
0.00911728
0.0267968
0.0190107
0.0468055
0.430603
0.332941
0.148138
0.1693
0.0965115
0.0523127
0.0126593
0.0105289
0.621085
0.30361
0.365859
0.0140018
0.158578
0.201826
0.173435
0.0136445
0.0508688
0.045835
0.0614773
0.157983
0.146198
0.293682
0.108686
0.194788
0.0410671
0.0162477
0.0287674
0.0265788
0.0340092
0.0542297
0.0437628
0.0303292
0.142084
0.126887
0.136021
0.101124
0.123335
0.138866
0.0225556
0.0147055
0.0378299
0.0295208
0.0527264
0.0424137
0.0234737
0.0374483
0.0281647
0.0109009
0.0265793
0.0219503
0.0123577
0.0197282
0.0250379
0.049458
0.0500822
0.0528415
0.0519869
0.0197038
0.0146175
0.0883388
0.0188145
0.0261046
0.0139707
0.0178689
0.085438
0.0725207
0.241847
0.224801
0.0636048
0.0539056
0.014357
0.0345989
0.156856
0.142613
0.177457
0.162065
0.0352319
0.052519
0.0421006
0.147165
0.0649349
0.0766594
0.0411457
0.0640967
0.169271
0.0538273
0.0303108
0.0189288
0.0689063
0.0336446
0.0597644
0.0318351
0.0630093
0.0428414
0.0421131
0.208632
0.0285013
0.20732
0.251389
0.0333837
0.0398602
0.0289353
0.0326734
0.243717
0.0443296
0.0440946
0.0552784
0.0724959
0.0679091
0.0790867
0.074304
0.0555634
0.0605585
0.060569
0.0555505
0.066197
0.0619005
0.0598034
0.130285
0.128432
0.169042
0.166693
0.0733056
0.0138857
0.071829
0.0778644
0.0757316
0.0994952
0.0977476
0.0273278
0.0384626
0.111404
0.0288448
0.0205527
0.0507819
0.198426
0.182631
0.219342
0.203614
0.0516206
0.0215228
0.037973
0.0375528
0.055715
0.0549642
0.00761148
0.0265969
0.0777372
0.0670138
0.138429
0.112886
0.0118126
0.00731933
0.0215126
0.0169778
0.0260422
0.0115251
0.0164846
0.0135846
0.0257268
0.0400264
0.0150878
0.0186349
0.00500373
0.0191045
0.0171064
0.634523
0.238807
0.337387
0.146783
0.00834626
0.00557693
0.142548
0.416024
0.286599
0.00683917
0.0164817
0.0148696
0.0931248
0.0814744
0.0279995
0.198549
0.164501
0.0643355
0.0119457
0.020919
0.0163137
0.0105565
0.0156621
0.0112032
0.0427689
0.027585
0.0254813
0.051795
0.0564771
0.0224739
0.0259145
0.0166581
0.0163949
0.0483849
0.131803
0.336424
0.317834
0.36236
0.342801
0.136127
0.264772
0.247567
0.073691
0.0265708
0.0698711
0.0652169
0.00964355
0.0146256
0.0718264
0.0482776
0.0302391
0.0282797
0.0417466
0.0478574
0.0436332
0.0540306
0.0492998
0.0432318
0.045285
0.0180281
0.0168908
0.0420495
0.17915
0.389196
0.36898
0.0506031
0.0518827
0.12139
0.0267973
0.0288156
0.0661297
0.0879825
0.107867
0.0999126
0.0646623
0.087055
0.0810968
0.0968505
0.0894887
0.0656354
0.0981968
0.288089
0.270549
0.311795
0.293993
0.100364
0.0832135
0.0317569
0.032312
0.0210399
0.0220489
0.0647267
0.108918
0.0463658
0.0501097
0.0324883
0.0329172
0.0920301
0.115105
0.0403014
0.0572196
0.00745931
0.0181932
0.0390832
0.0297242
0.0584951
0.0200259
0.0207634
0.0181178
0.0484124
0.0143994
0.00426077
0.0778983
0.0542105
0.0639119
0.0599711
0.0249126
0.0193097
0.0254674
0.0559637
0.0177606
0.00998322
0.0213546
0.0219486
0.0029864
0.0266267
0.0199684
0.0149633
0.0073756
0.0137843
0.0135532
0.0136134
0.0230696
0.0199773
0.00769755
0.038046
0.0369395
0.0191352
0.0128451
0.00867949
0.0135092
0.0210157
0.0149331
0.0167738
0.0351928
0.0143723
0.0128358
0.0146482
0.015982
0.0267849
0.0144482
0.0113213
0.0160567
0.0147594
0.0115467
0.0183892
0.0165742
0.0214445
0.0190896
0.0137867
0.0176927
0.0251781
0.0217002
0.0323141
0.0267459
0.0209267
0.0186519
0.015304
0.022659
0.020575
0.0445686
0.051355
0.0248618
0.0232512
0.0208769
0.0217994
0.0554796
0.0151672
0.0160892
0.0179245
0.0152559
0.0166652
0.0492228
0.0172471
0.0205048
0.0171323
0.0164025
0.0215669
0.0523744
0.0462853
0.0156581
0.0380373
0.0337477
0.0441366
0.0395188
0.0161345
0.0156542
0.0282769
0.0242663
0.0781934
0.0716803
0.0282063
0.0362852
0.0849515
0.0799715
0.0475433
0.045954
0.0668981
0.11171
0.156206
0.0801804
0.102015
0.0675988
0.0531711
0.139646
0.121965
0.158982
0.145916
0.0586857
0.0478067
0.058801
0.0731699
0.0423263
0.0483891
0.0370098
0.0340544
0.0471726
0.0275628
0.0302415
0.0259609
0.0376864
0.033444
0.0309777
0.0361443
0.0386602
0.0390911
0.0374128
0.0270445
0.0869191
0.070441
0.0953308
0.0902815
0.0274438
0.0643889
0.0629254
0.0676932
0.0648961
0.0356483
0.111419
0.107028
0.118851
0.112997
0.0366103
0.0304389
0.100363
0.0965921
0.10563
0.101635
0.0308825
0.0199314
0.0184464
0.0450145
0.0427032
0.0215409
0.0205736
0.0373378
0.036892
0.038244
0.0374758
0.0358284
0.0350698
0.0367209
0.0360762
0.060569
0.0590281
0.0624662
0.0610583
0.0532727
0.0394946
0.0584732
0.0557295
0.027568
0.0246017
0.0325005
0.0288235
0.0126435
0.0196079
0.0185218
0.0236345
0.020264
0.0306055
0.0315838
0.0820314
0.0199138
0.0194091
0.020829
0.020092
0.0192178
0.0668359
0.0223633
0.0294416
0.0337333
0.0425066
0.106307
0.0295172
0.0239128
0.0347937
0.0324559
0.022024
0.0211105
0.0234929
0.0223562
0.0933816
0.033026
0.0333675
0.00827413
0.0249007
0.0135069
0.0143657
0.0132872
0.0237431
0.00739673
0.0189152
0.0111774
0.0142329
0.0388166
0.0330889
0.0191529
0.0197975
0.0578009
0.0511442
0.018333
0.0189332
0.0133751
0.0242882
0.0582613
0.0415911
0.012576
0.0121499
0.0171601
0.0103877
0.0134515
0.018597
0.0265203
0.00723489
0.0151593
0.00994804
0.014752
0.0201627
0.0645091
0.138267
0.184236
0.0127254
0.0120078
0.193178
0.255717
0.213033
0.00783664
0.0283283
0.0164537
0.0182361
0.140115
0.146227
0.168404
0.00572262
0.00910849
0.00671016
0.00568085
0.0069628
0.00543111
0.0701374
0.0447897
0.0270101
0.0297028
0.0271176
0.0307064
0.222154
0.446002
0.424196
0.476063
0.4534
0.227733
0.0358625
0.0302817
0.0162341
0.0602804
0.0700937
0.138177
0.0919209
0.0866226
0.0365659
0.0320294
0.0369416
0.0371431
0.417055
0.39606
0.183955
0.138237
0.0552972
0.0575453
0.0597982
0.0733365
0.156838
0.0423279
0.10067
0.0938614
0.0146702
0.0150095
0.0169383
0.0200529
0.0203983
0.0271896
0.0153505
0.0126799
0.0143101
0.0217281
0.0427853
0.03773
0.0184192
0.0267473
0.0194522
0.0197042
0.0192688
0.0120873
0.0135765
0.0157012
0.0151883
0.0128016
0.0208883
0.0239415
0.0514962
0.0398445
0.0424056
0.0391232
0.0290507
0.0374694
0.0175189
0.0199639
0.0110164
0.00731495
0.0072503
0.0139611
0.0117528
0.0282454
0.0179883
0.0122292
0.017148
0.0221657
0.0210526
0.0304155
0.0315981
0.0188828
0.0150889
0.0155597
0.00983017
0.0136743
0.0153172
0.0599486
0.0543571
0.0225891
0.0143103
0.0185611
0.0177487
0.0147744
0.0169301
0.016298
0.051057
0.0416426
0.0432224
0.0656229
0.0918676
0.090776
0.0425473
0.0608674
0.0587179
0.0895395
0.0879637
0.0629574
0.0439416
0.0532567
0.0440189
0.0336654
0.0365468
0.0296895
0.0457473
0.0476426
0.068573
0.0247445
0.0321548
0.0315672
0.0485501
0.0479088
0.0280859
0.0269696
0.0264549
0.0308212
0.0300511
0.0341801
0.0548343
0.0542141
0.0578316
0.0573333
0.0387071
0.0294058
0.0498174
0.0491788
0.0535728
0.0529183
0.0319931
0.0538262
0.0549057
0.136159
0.12309
0.0522952
0.0534639
0.0810507
0.083876
0.176365
0.0242989
0.0240523
0.02609
0.0257473
0.021484
0.0238162
0.0235849
0.159474
0.0760699
0.0800863
0.0140596
0.0141676
0.0171747
0.0167247
0.0138991
0.0143356
0.014283
0.0675377
0.0297101
0.0333882
0.109858
0.103113
0.0454139
0.0536851
0.117733
0.11188
0.0274886
0.0276043
0.038287
0.0368679
0.0269771
0.0273137
0.0117005
0.018372
0.0267562
0.018804
0.00732888
0.0118986
0.0194283
0.0138201
0.0147126
0.0180245
0.0182118
0.0262295
0.0110367
0.00724155
0.0105266
0.0139657
0.0249593
0.0176495
0.0178537
0.0163992
0.0260378
0.0226747
0.0139337
0.0134276
0.0147328
0.0150623
0.0177078
0.00795638
0.00544916
0.00988273
0.0158695
0.0139886
0.0143282
0.0123994
0.0135333
0.0153319
0.0120966
0.00810175
0.00623556
0.0239012
0.0244566
0.022866
0.0233276
0.0268677
0.0349955
0.035181
0.0345737
0.0348085
0.0262679
0.0162619
0.026091
0.0259905
0.0268839
0.0263393
0.016087
0.0298111
0.0365498
0.0382257
0.0353882
0.0357446
0.0290385
0.0177442
0.0259834
0.0259759
0.0259402
0.0259412
0.0172424
0.0218757
0.0224002
0.0225125
0.0219668
0.0319243
0.0457711
0.0454403
0.0213671
0.0301538
0.0300755
0.0305896
0.030277
0.0217079
0.0120911
0.0111637
0.0142962
0.0128888
0.0199606
0.0196456
0.0206032
0.020282
0.0171349
0.0279343
0.0206947
0.0209154
0.0202576
0.0298596
0.0297591
0.0300144
0.0299441
0.0205031
0.0211937
0.0209119
0.0251504
0.0214072
0.0174328
0.00755402
0.0117357
0.0148678
0.00736284
0.0195488
0.0146161
0.00356753
0.0251695
0.0339489
0.0334849
0.0182031
0.00966517
0.00681274
0.00524354
0.0117238
0.0126558
0.0189806
0.0192121
0.0267034
0.0195563
0.00864032
0.00724587
0.0164809
0.00571927
0.00990003
0.00809627
0.00586302
0.00726174
0.0134663
0.0110196
0.0118332
0.014757
0.0142992
0.0389245
0.0339847
0.0105893
0.012618
0.0141108
0.0207887
0.0235996
0.0153115
0.0187669
0.0165816
0.013978
0.00801692
0.0137088
0.0141185
0.00726857
0.0108036
0.0121063
0.0155731
0.0140696
0.0144621
0.0116091
0.012238
0.015133
0.0146979
0.0143293
0.0108921
0.0140889
0.0154564
0.0150789
0.0275529
0.0237751
0.0186875
0.0302727
0.0323231
0.0343086
0.0277879
0.024699
0.0221945
0.031741
0.0328901
0.0250254
0.0292668
0.0216396
0.0243311
0.034086
0.0343335
0.0334529
0.0337968
0.0237404
0.0211339
0.031614
0.0311969
0.0153846
0.0156703
0.0168726
0.0152219
0.0151366
0.015883
0.0168363
0.0166568
0.0184862
0.0289224
0.0278023
0.03069
0.0299519
0.0197943
0.0139581
0.0144846
0.0179999
0.00911631
0.0134607
0.013458
0.0158475
0.0136038
0.0136318
0.0204995
0.0195366
0.0149499
0.0492946
0.044472
0.0749335
0.0657316
0.0436895
0.0614489
0.0857032
0.0818414
0.0415396
0.038052
0.0377517
0.0267881
0.0334255
0.0572657
0.0493366
0.046874
0.0366581
0.0439718
0.0446957
0.0410891
0.042932
0.035858
0.0284221
0.0295985
0.0383687
0.0317324
0.0309399
0.0330562
0.0327687
0.035696
0.0317058
0.0301586
0.0281671
0.0323823
0.0439367
0.0394475
0.026438
0.0277644
0.0472077
0.0461458
0.0280833
0.0275146
0.0293462
0.0286924
0.055889
0.0553692
0.0348666
0.0376379
0.0568912
0.0564111
0.0510973
0.0504678
0.0299243
0.031369
0.0522743
0.0516803
0.0193924
0.0260134
0.0259876
0.0259934
0.0260297
0.019031
0.0214355
0.0250388
0.0237775
0.0258895
0.0256366
0.020964
0.0371929
0.0242695
0.0246777
0.0236139
0.0239308
0.0370491
0.0378094
0.026156
0.0266625
0.0251284
0.0256162
0.0376155
0.035573
0.0218935
0.0221602
0.0214586
0.021655
0.0353191
0.0365327
0.0230356
0.0233164
0.0224369
0.0227285
0.0363129
0.0248322
0.0245581
0.0600673
0.0410125
0.0413179
0.0403834
0.0407011
0.0595546
0.025424
0.0251196
0.0229168
0.0225799
0.0486481
0.0333291
0.0368357
0.0271481
0.0275267
0.0425941
0.0578482
0.0396892
0.0400522
0.0384911
0.039239
0.0570347
0.0233674
0.0231523
0.0147055
0.014203
0.0139536
0.0162013
0.0154134
0.0192022
0.0143732
0.0141932
0.0148572
0.0145815
0.0188865
0.0224722
0.0157809
0.0167389
0.0143189
0.014897
0.0212628
0.0311041
0.0441612
0.0432634
0.0450963
0.0446997
0.0313812
0.0197422
0.0195765
0.0205523
0.020278
0.0189675
0.0181404
0.0226303
0.0337965
0.0315085
0.0415319
0.0382144
0.0269131
0.0246108
0.0194864
0.0204024
0.0243062
0.034436
0.0210682
0.0212614
0.0206736
0.0208753
0.0338273
0.0217072
0.0214019
0.0230883
0.0227102
0.0136118
0.0158222
0.0153443
0.0172365
0.0164596
0.0139069
0.0138591
0.0135306
0.0149021
0.0143439
0.00854784
0.0119858
0.0149731
0.0146412
0.0158581
0.015376
0.0126286
0.018992
0.0187948
0.0194159
0.0191989
0.0242713
0.0261497
0.0355689
0.0182384
0.0180032
0.0186069
0.0184255
0.0193682
0.0293618
0.0291921
0.0296414
0.0295092
0.0195788
0.018494
0.0282799
0.027316
0.02899
0.0287234
0.0187138
0.0125884
0.0326681
0.0308624
0.0225258
0.0128271
0.00950253
0.0094665
0.00651291
0.00927892
0.0124615
0.0156139
0.0127035
0.0141754
0.0137965
0.0263888
0.0184743
0.0187295
0.0104646
0.0107393
0.0102832
0.0134234
0.0130426
0.00691144
0.0070687
0.0143497
0.0110225
0.0133428
0.0156638
0.0173888
0.0232267
1.15484
1.15513
1.1555
1.15526
1.15574
1.1558
1.15594
1.15665
1.15626
1.1569
1.1577
1.15683
1.15793
1.12812
1.15731
1.1149
1.1011
1.1575
1.10708
1.15842
1.1573
1.15826
1.1576
1.15683
1.15736
1.15661
1.1563
1.15639
1.15578
1.15586
1.15435
1.15498
1.15505
1.15525
1.15629
1.15579
1.15671
1.11493
1.15689
1.053
0.902095
1.15812
0.866643
0.798195
1.05018
0.7873
0.786189
1.02642
0.795249
0.849455
1.08716
0.875938
0.98453
1.15799
1.03042
1.15788
1.15683
1.15745
1.15623
1.15582
1.15419
1.15543
1.15502
1.15596
1.09776
1.15659
1.00904
0.783779
1.02602
0.7248
0.589003
0.816475
0.556407
0.494777
0.716786
0.486006
0.49236
0.707733
0.50406
0.562904
0.772373
0.589509
0.69207
0.904745
0.733201
0.89004
1.11713
0.95322
1.15762
1.15649
1.15452
1.15663
1.15565
1.14354
0.844536
1.02608
0.757833
0.549614
0.715773
0.493122
0.358336
0.523579
0.324742
0.262213
0.429577
0.254646
0.268415
0.429104
0.282999
0.348652
0.502592
0.375838
0.475899
0.629921
0.515004
0.655306
0.823326
0.711023
0.913521
1.10289
1.15538
1.08801
1.15702
0.978661
0.690376
0.797258
0.611603
0.410352
0.50592
0.352215
0.20591
0.313062
0.170706
0.0912024
0.21612
0.0895665
0.122765
0.2247
0.140206
0.208566
0.306705
0.236211
0.332186
0.433227
0.369003
0.498181
0.609485
0.549035
0.730809
0.860117
1.15663
1.00554
1.06024
0.897399
0.63656
0.667501
0.564227
0.373032
0.390141
0.317242
0.144534
0.182683
0.128465
0.0753802
0.118101
0.0368625
0.0464005
0.0806899
0.0867842
0.116429
0.137244
0.163587
0.251334
0.306441
0.285219
0.403579
0.469313
0.449799
0.614853
0.69529
1.15805
0.990081
0.996099
0.891657
0.671493
0.638043
0.613156
0.468638
0.385041
0.352523
0.304364
0.282479
0.134668
0.113717
0.102713
0.061677
0.088217
0.0939481
0.144753
0.220189
0.239459
0.250239
0.357173
0.387832
0.399203
0.55008
0.593444
1.15951
1.0143
0.993923
0.92534
0.746303
0.689038
0.703728
0.624392
0.506549
0.526971
0.510398
0.447385
0.43911
0.4478
0.362903
0.0799804
0.0989193
0.0937199
0.154945
0.221918
0.218161
0.249061
0.346933
0.35168
0.385761
0.525323
0.540138
1.16096
1.04526
1.02242
0.961421
0.80512
0.764076
0.770626
0.722851
0.658109
0.69454
0.72294
0.682314
0.695935
0.527106
0.550232
0.10817
0.124532
0.114346
0.181113
0.244766
0.225892
0.270464
0.363383
0.348785
0.400203
0.531655
0.524359
1.16241
1.06624
1.05163
0.983857
0.825059
0.813731
0.787559
0.716793
0.730319
0.738367
0.767558
0.773973
0.593171
0.413506
0.433935
0.142274
0.16018
0.145956
0.219957
0.285222
0.253199
0.310974
0.403048
0.371098
0.439024
0.565091
0.538185
1.16384
1.08325
1.07013
1.00049
0.823414
0.825263
0.776688
0.662878
0.704302
0.671952
0.699711
0.702892
0.485947
0.310622
0.329404
0.173381
0.193758
0.182605
0.277411
0.34875
0.298515
0.375881
0.469393
0.416866
0.505033
0.626866
0.578775
1.16533
1.11649
1.08947
1.03285
0.838473
0.824182
0.783045
0.626738
0.64994
0.600162
0.555198
0.611201
0.397891
0.214927
0.232551
0.0503877
0.11103
0.0971005
0.278846
0.352602
0.274318
0.376424
0.452174
0.369929
0.479612
0.572125
0.491178
0.606598
0.722431
0.648612
1.16654
1.16831
1.13197
1.12109
0.919549
0.852315
0.863056
0.695369
0.631961
0.585675
0.519706
0.504946
0.202708
0.0663908
0.0896065
0.110217
0.245055
0.215656
0.489834
0.544117
0.389073
0.5616
0.621852
0.487359
0.645297
0.725598
0.605014
0.756425
0.859266
0.753882
1.16748
1.16888
1.16851
1.16692
1.09563
0.954034
1.04263
0.918547
0.733221
0.790039
0.111563
0.183256
0.0339755
0.0818931
0.0703181
0.160461
0.434589
0.42138
0.517814
0.744649
0.613247
0.81175
0.888671
0.678435
0.897991
0.945845
0.773616
0.967592
1.04946
0.903312
1.16807
1.16884
1.16893
1.16636
1.13864
1.14444
1.11345
0.860043
0.927681
0.66103
0.0796354
0.100165
0.0298525
0.0954001
0.0854544
0.174752
0.446659
0.438189
0.530709
0.755781
0.747848
0.821391
0.977622
0.973547
1.01592
1.09692
1.01317
1.11482
1.14953
1.10904
1.16831
1.16809
1.16872
1.16478
1.12711
1.13617
1.09197
0.765423
0.836474
0.545037
0.0661273
0.0753009
0.0284985
0.107194
0.0984939
0.186603
0.453085
0.448719
0.538638
0.763422
0.757965
0.827847
0.981072
0.978666
1.01871
1.09842
1.09742
1.11605
1.15026
1.14979
1.1682
1.16663
1.16779
1.16213
1.11135
1.12356
1.06446
0.673812
0.742122
0.455596
0.0590025
0.0639387
0.0283728
0.117595
0.109915
0.196581
0.456591
0.454115
0.541976
0.768506
0.76492
0.83212
0.982983
0.98167
1.02011
1.09888
1.09861
1.11635
1.1503
1.15033
1.16779
1.16445
1.16615
1.15838
1.09178
1.1068
1.03221
0.592784
0.652107
0.3945
0.0548869
0.0577627
0.028935
0.12683
0.120006
0.205097
0.459223
0.4573
0.543074
0.770863
0.769376
0.834449
0.983824
0.983281
1.02057
1.09867
1.09888
1.11603
1.14986
1.15023
1.16709
1.16154
1.16379
1.15349
1.06886
1.08635
0.996028
0.530497
0.575311
0.354184
0.0524363
0.0541505
0.0299346
0.135077
0.128979
0.21245
0.461375
0.459804
0.543517
0.77026
0.77097
0.83442
0.983772
0.983896
1.02029
1.09798
1.09854
1.11528
1.1491
1.1497
1.16615
1.15787
1.16069
1.14746
1.04254
1.06263
0.955294
0.486082
0.517951
0.325782
0.0510117
0.0520006
0.0312332
0.142482
0.137002
0.218865
0.463077
0.461842
0.543657
0.767691
0.769747
0.832146
0.982676
0.983606
1.01927
1.09692
1.09775
1.11422
1.1481
1.14887
1.16496
1.15342
1.15684
1.1402
1.01182
1.03531
0.910777
0.45342
0.477025
0.304815
0.0502714
0.0507719
0.0327459
0.149165
0.144215
0.224512
0.464367
0.463436
0.543532
0.764327
0.766893
0.828551
0.980357
0.982211
1.01732
1.09548
1.0966
1.11287
1.14693
1.14782
1.16353
1.148
1.15216
1.13137
0.97736
1.00344
0.867712
0.428339
0.446549
0.288964
0.0500163
0.0501679
0.0344167
0.155231
0.150735
0.229529
0.465306
0.464632
0.543166
0.760725
0.763438
0.824428
0.976969
0.979597
1.01444
1.0936
1.09505
1.11118
1.14559
1.14661
1.16182
1.1413
1.14647
1.12043
0.942764
0.968571
0.830016
0.408588
0.422965
0.276813
0.0501227
0.0500126
0.036208
0.160766
0.156661
0.234025
0.465957
0.465493
0.542596
0.757063
0.759811
0.820145
0.972875
0.975997
1.01083
1.09129
1.09307
1.10915
1.1441
1.14523
1.15974
1.13295
1.13937
1.10717
0.910897
0.934481
0.79799
0.392788
0.404309
0.267421
0.0505101
0.0501956
0.0380939
0.165846
0.162076
0.23809
0.466379
0.466081
0.541863
0.753397
0.756146
0.815839
0.968392
0.97178
1.00676
1.08859
1.09065
1.10681
1.14244
1.1437
1.1572
1.12293
1.1306
1.09208
0.882535
0.903479
0.770674
0.380014
0.389341
0.260132
0.0511238
0.0506439
0.0400567
0.170535
0.167052
0.241797
0.466628
0.466456
0.54101
0.749751
0.752483
0.811562
0.963722
0.967236
1.00241
1.08559
1.08787
1.1042
1.14066
1.14201
1.15408
1.11154
1.12019
1.076
0.857443
0.875973
0.74712
0.369598
0.37721
0.254471
0.051926
0.0513078
0.0420853
0.174891
0.171653
0.245209
0.466749
0.466669
0.540077
0.746145
0.748845
0.807342
0.958981
0.96254
0.997913
1.08236
1.0848
1.10139
1.13875
1.14019
1.15035
1.09926
1.10853
1.05966
0.835166
0.851626
0.726598
0.361048
0.367302
0.250086
0.0528897
0.0521526
0.044173
0.178963
0.175934
0.248379
0.466784
0.466765
0.539101
0.742597
0.745252
0.803197
0.954237
0.957793
0.993361
1.07897
1.08153
1.09841
1.13675
1.13826
1.14599
1.08654
1.09611
1.04355
0.815277
0.829985
0.708557
0.353988
0.359156
0.246708
0.0539954
0.0531533
0.0463167
0.182796
0.179942
0.251351
0.466768
0.466784
0.538112
0.739128
0.741722
0.799144
0.949531
0.953055
0.988802
1.07547
1.07811
1.09532
1.13467
1.13623
1.14105
1.07372
1.08334
1.02794
0.797412
0.810633
0.692572
0.348124
0.352419
0.244129
0.0552291
0.0542922
0.048516
0.18643
0.183722
0.254166
0.466731
0.466759
0.537138
0.735753
0.738274
0.7952
0.944893
0.948364
0.984274
1.07191
1.07459
1.09215
1.13252
1.13413
1.13562
1.06102
1.07053
1.01297
0.78127
0.793225
0.678308
0.343223
0.346816
0.242185
0.0565803
0.0555561
0.0507727
0.1899
0.187311
0.256859
0.466701
0.466722
0.536206
0.732491
0.734926
0.79138
0.940345
0.943747
0.979804
1.0683
1.07101
1.08892
1.13033
1.13198
1.12978
1.04857
1.05788
0.998663
0.766602
0.777474
0.66549
0.3391
0.342126
0.240742
0.0580415
0.0569354
0.0530905
0.193239
0.190745
0.259461
0.466701
0.466697
0.535336
0.729358
0.731695
0.787697
0.935904
0.939224
0.975413
1.06469
1.0674
1.08567
1.12809
1.12977
1.12362
1.03645
1.04551
0.985036
0.753195
0.763139
0.653893
0.335599
0.338171
0.239692
0.0596069
0.0584231
0.0554743
0.196478
0.194057
0.262
0.466754
0.466708
0.534548
0.726368
0.728596
0.784165
0.931586
0.934812
0.97112
1.06109
1.06379
1.08241
1.12583
1.12753
1.11722
1.02471
1.03348
0.972056
0.740871
0.750019
0.643326
0.332596
0.334806
0.238945
0.0612725
0.0600139
0.0579305
0.199646
0.197276
0.264504
0.466879
0.466777
0.533862
0.723536
0.725644
0.780798
0.927404
0.930527
0.966939
1.05752
1.06019
1.07916
1.12355
1.12526
1.11064
1.01334
1.02183
0.959685
0.729474
0.73794
0.63363
0.329983
0.33191
0.238422
0.0630352
0.061704
0.0604663
0.202769
0.200429
0.266997
0.467095
0.466923
0.533294
0.720875
0.722854
0.777608
0.923373
0.926382
0.962886
1.05399
1.05663
1.07593
1.12127
1.12298
1.10432
1.00289
1.01056
0.948422
0.719251
0.726755
0.624951
0.327718
0.32938
0.23807
0.0648868
0.0634906
0.063082
0.205848
0.203545
0.26948
0.467435
0.467165
0.532898
0.718522
0.720238
0.774759
0.919723
0.92239
0.959205
1.05077
1.05312
1.07297
1.11917
1.1207
0.296801
0.242926
0.265256
0.0599798
0.0525457
0.0567779
0.0450087
0.0444818
0.052901
0.558292
0.58566
0.730291
0.083703
0.0780082
0.0827747
0.0584254
0.0640758
0.0673723
0.440816
0.461731
0.632588
0.117666
0.113792
0.118806
0.0848806
0.0903151
0.0952681
0.335692