/*--------------------------------*- C++ -*----------------------------------*\
| =========                 |                                                 |
| \\      /  F ield         | OpenFOAM: The Open Source CFD Toolbox           |
|  \\    /   O peration     | Version:  v1912                                 |
|   \\  /    A nd           | Website:  www.openfoam.com                      |
|    \\/     M anipulation  |                                                 |
\*---------------------------------------------------------------------------*/
FoamFile
{
    version     2.0;
    format      ascii;
    class       volScalarField;
    location    "500";
    object      omega;
}
// * * * * * * * * * * * * * * * * * * * * * * * * * * * * * * * * * * * * * //

dimensions      [0 0 -1 0 0 0 0];


internalField   nonuniform List<scalar> 
12556
(
31.8693
31.8706
31.8719
31.8739
31.9377
31.9387
31.9393
31.9406
31.9431
31.9475
31.9541
31.9615
31.9668
31.9673
31.9629
31.9561
31.9496
31.9449
31.9417
31.9399
31.8748
31.8723
31.8706
31.8691
31.7347
31.7377
31.7408
31.7448
31.8052
31.8094
31.8129
31.8467
31.8537
31.8658
31.8836
31.9037
31.9186
31.9209
31.9099
31.8918
31.8737
31.8599
31.8205
31.8134
31.7476
31.742
31.7382
31.7347
31.6014
31.6062
31.6109
31.6166
31.6747
31.6821
31.69
31.7256
31.7421
31.7702
31.8103
31.8537
31.8849
31.8897
31.867
31.8288
31.7888
31.7568
31.7064
31.6914
31.6237
31.6146
31.6083
31.6029
31.4702
31.4764
31.4824
31.49
31.5455
31.5568
31.5708
31.613
31.6475
31.7057
31.7866
31.8791
31.9443
31.9472
31.8933
31.8137
31.7358
31.673
31.6049
31.5766
31.5036
31.4899
31.4808
31.4733
31.3405
31.3481
31.3555
31.365
31.4194
31.4354
31.458
31.5109
31.5784
31.6911
31.8766
32.1229
32.3085
32.2813
32.1052
31.9049
31.7393
31.6232
31.5216
31.4712
31.3879
31.3678
31.3552
31.3454
31.2123
31.2212
31.2301
31.2417
31.2961
31.3183
31.3539
31.426
31.5388
31.7609
32.2215
33.1062
34.0286
33.6553
32.8259
32.2279
31.8489
31.6179
31.461
31.3776
31.2769
31.2482
31.2311
31.2187
31.0859
31.0961
31.1066
31.1206
31.1753
31.2055
31.2584
31.3581
31.535
31.9517
33.066
37.2588
43.0632
40.2041
34.9525
33.0002
32.1233
31.6782
31.4243
31.2967
31.1708
31.1311
31.1083
31.0931
30.9615
30.9731
30.9854
31.0024
31.0584
31.0982
31.1717
31.3025
31.5599
32.2246
34.2974
45.5825
65.4524
40.0298
34.4336
32.6033
31.8143
31.4114
31.228
31.0699
31.0167
30.9872
30.9687
30.8396
30.8527
30.8671
30.8876
30.9457
30.9965
31.0924
31.2543
31.5966
32.4747
35.1568
52.2957
115.899
47.1667
36.3987
33.2558
32.0165
31.4192
31.1691
30.9744
30.9059
30.8686
30.8466
30.7207
30.7354
30.7521
30.7765
30.8375
30.9002
31.0186
31.2103
31.6319
32.6699
35.7611
59.6987
140.4
52.969
38.3469
33.9559
32.2504
31.44
31.1175
30.8846
30.7997
30.7541
30.7281
30.6053
30.6215
30.6408
30.6694
30.7338
30.8088
30.9492
31.1697
31.6655
32.8448
36.5031
69.33
141.079
56.3958
39.8793
34.578
32.4757
31.4635
31.071
30.7999
30.6989
30.6447
30.6144
30.4933
30.5111
30.5329
30.5659
30.6344
30.7218
30.883
31.133
31.702
33.0365
37.5773
83.1951
130.978
57.762
40.8503
35.041
32.6573
31.4795
31.0261
30.7194
30.6033
30.5406
30.506
30.3848
30.4045
30.4292
30.4668
30.5386
30.6381
30.8191
31.1001
31.744
33.2686
38.9375
97.4784
996.711
110.978
57.7687
41.3069
35.3192
32.7739
31.4801
30.9792
30.6413
30.5118
30.4413
30.4026
30.2794
30.3007
30.328
30.3697
30.4479
30.561
30.7622
31.0819
31.8214
33.6437
41.5095
180.227
500.159
104.91
57.0522
41.3754
35.4325
32.8215
31.461
30.9271
30.5638
30.423
30.3455
30.3028
30.1761
30.1992
30.2291
30.2746
30.3574
30.4809
30.699
31.0507
31.8663
33.975
45.8102
773.598
337.337
98.7736
55.8042
41.1778
35.4158
32.8089
31.4221
30.8675
30.4847
30.335
30.2514
30.2051
30.0744
30.0991
30.1315
30.1805
30.2677
30.4001
30.6327
31.0144
31.9057
34.3785
53.0443
872.394
293.146
93.7352
54.611
40.8711
35.3105
32.743
31.3653
30.7993
30.4024
30.2461
30.1572
30.108
29.9734
29.9997
30.0346
30.0866
30.1778
30.3175
30.5624
30.9709
31.9348
34.9035
62.8829
838.86
261.913
89.8339
53.5176
40.5294
35.1689
32.6517
31.292
30.7213
30.3158
30.155
30.0614
30.0098
29.8724
29.9002
29.9375
29.9923
30.0869
30.2326
30.4875
30.9194
31.9564
35.5604
74.7656
770.525
238.553
87.0096
52.5797
40.1906
35.0029
32.5403
31.204
30.6337
30.2236
30.0599
29.9636
29.9097
29.7709
29.8
29.8396
29.8969
29.9947
30.145
30.4082
30.8608
31.9772
36.3659
86.7018
698.543
220.334
85.014
51.787
39.8734
34.8289
32.4177
31.1059
30.5385
30.1264
29.961
29.8622
29.8071
29.6686
29.6989
29.7406
29.8002
29.9008
30.0549
30.3252
30.7968
32.0041
37.3218
96.5924
632.529
205.646
83.3978
51.1478
39.5836
34.6558
32.2896
31.0005
30.4372
30.0245
29.8581
29.7576
29.7017
29.5654
29.5965
29.6401
29.7019
29.8051
29.9625
30.239
30.729
32.0426
38.4514
103.985
574.703
193.486
81.9508
50.6851
39.3241
34.488
32.1597
30.8899
30.3308
29.9185
29.7516
29.6499
29.5937
29.4613
29.4929
29.5381
29.6019
29.7075
29.8678
30.1504
30.659
32.0973
39.8316
109.491
524.811
183.203
80.6266
50.3681
39.1022
34.3282
32.0302
30.7759
30.2206
29.8089
29.6419
29.5396
29.4833
29.3564
29.3883
29.4347
29.5002
29.6079
29.7711
30.0598
30.5884
32.1751
41.436
113.501
481.871
174.352
79.4091
50.1319
38.9247
34.1793
31.9028
30.6598
30.1074
29.6966
29.5297
29.4269
29.3708
29.2509
29.2828
29.3301
29.397
29.5066
29.6726
29.9677
30.5186
32.2908
43.0428
116.285
444.796
166.618
78.284
49.932
38.7887
34.0439
31.7789
30.5428
29.9923
29.5821
29.4154
29.3125
29.2568
29.1448
29.1766
29.2246
29.2927
29.4039
29.5725
29.8748
30.4522
32.4621
44.4877
118.066
412.601
159.774
77.2369
49.7493
38.6838
33.9225
31.6597
30.4258
29.876
29.4662
29.2996
29.1967
29.1415
29.0386
29.0701
29.1185
29.1877
29.3001
29.4713
29.7817
30.3922
32.6936
45.7382
119.035
384.453
153.651
76.2549
49.5762
38.5997
33.8142
31.5455
30.3094
29.7591
29.3493
29.1829
29.0801
29.0254
28.9323
28.9634
29.0121
29.0822
29.1956
29.3695
29.6894
30.3417
32.9714
46.8113
119.356
359.666
148.12
75.3264
49.4092
38.5287
33.7169
31.4362
30.1942
29.6422
29.232
29.0655
28.9628
28.9087
28.8261
28.8568
28.9056
28.9765
29.0908
29.2676
29.5986
30.3035
33.2743
47.7303
119.167
337.684
143.081
74.4417
49.2457
38.4658
33.6287
31.3314
30.0805
29.5256
29.1145
28.9479
28.8453
28.7917
28.7201
28.7503
28.7993
28.8709
28.986
29.1658
29.5102
30.2789
33.5839
48.5154
118.581
318.062
138.458
73.5929
49.0841
38.4077
33.5477
31.2307
29.9683
29.4096
28.9971
28.8303
28.7278
28.6747
28.6145
28.6442
28.6932
28.7655
28.8814
29.0647
29.425
30.2678
33.8884
49.1839
117.693
300.433
134.187
72.773
48.9224
38.3523
33.4724
31.1337
29.8578
29.2943
28.8801
28.7128
28.6105
28.5579
28.5093
28.5385
28.5875
28.6605
28.7772
28.9644
29.3436
30.269
34.1806
49.7503
116.579
284.502
130.22
71.9766
48.7593
38.2978
33.4014
31.0399
29.749
29.18
28.7636
28.5958
28.4934
28.4413
28.4046
28.4334
28.4824
28.556
28.6735
28.8652
29.2665
30.2807
34.4572
50.2277
115.302
270.027
126.514
71.1988
48.5934
38.243
33.3338
30.949
29.6419
29.0668
28.6477
28.4793
28.3769
28.3251
28.3006
28.3289
28.3779
28.4521
28.5705
28.7674
29.1941
30.301
34.7166
50.6277
113.912
256.809
123.038
70.4359
48.4235
38.1869
33.2686
30.8607
29.5366
28.9547
28.5326
28.3633
28.2609
28.2094
28.1971
28.225
28.2739
28.3489
28.4684
28.6712
29.1265
30.328
34.9584
50.9606
112.45
244.684
119.762
69.6846
48.2485
38.1287
33.2051
30.7746
29.4329
28.8437
28.4183
28.2481
28.1454
28.0943
28.0948
28.1223
28.1712
28.2468
28.3672
28.5768
29.0636
30.3601
35.1832
51.2358
110.948
233.513
116.662
68.9422
48.0677
38.0677
33.1425
30.6905
29.3308
28.7339
28.3052
28.1341
28.0312
27.9804
27.9975
28.0247
28.0736
28.1497
28.2676
28.4848
29.0057
30.396
35.3917
51.4618
109.434
223.181
113.72
68.2065
47.8802
38.0031
33.0803
30.6081
29.2309
28.626
28.1984
28.0264
27.9233
27.8726
51.6153
133.427
73.4272
58.7526
171.917
140.963
67.9339
170.421
173.324
81.1435
155.444
168.944
95.956
1243.16
1051.34
138.536
153.275
151.261
695.288
1195.53
522.577
134.152
135.823
44.2665
42.4846
66.2011
40.2157
506.928
159.853
110.427
51.0169
43.1861
35.6091
51.0278
46.5642
1313.92
1039.94
138.927
59.731
53.5439
36.291
57.1092
51.7088
62.9062
212.196
181.483
857.383
1116.56
141.799
64.5465
61.2845
37.2739
65.7557
58.021
73.9143
350.532
260.272
536.055
672.16
38.5616
77.869
67.098
86.5159
612.628
461.468
2236.34
325.559
404.953
40.8923
109.332
79.8183
109.833
1250.96
887.835
434.621
527.973
666.099
121.7
162.459
79.2776
117.31
1025.02
541.202
107.868
402.061
804.496
177.739
153.074
56.0461
210.949
235.488
168.31
205.791
1128.03
1310.6
156.349
1023.32
913.574
822.775
1024.58
154.739
254.472
217.395
64.084
295.863
354.557
238.422
291.116
694.148
837.803
173.878
655.871
542.061
904.139
672.194
174.402
455.665
355.29
75.5896
449.958
598.494
358.584
444.948
417.452
519.242
880.339
624.128
87.1536
2612.22
849.993
1206.04
604.063
836.944
2757.97
300.766
316.68
2123.84
7843.48
1253.95
111.886
869.47
1733.48
6920.63
1208.59
1697.44
904.822
34.9852
46.1109
41.7698
48.782
95.3167
69.678
1757.01
661.79
55.052
149.592
125.389
3301.81
132.577
66.2481
65.2135
3505.71
894.961
985.999
732.091
266.807
290.929
121.32
98.1036
49.5895
1242.13
174.602
476.558
129.827
362.728
99.0239
1026.42
1412.65
161.678
421.285
344.67
527.19
433.228
163.633
1754.28
3269.05
1083.46
62.2023
52.5351
74.0295
130.169
63.8043
64.129
1881.71
342.918
1661.39
461.994
1494.25
290.061
1115.02
1103.06
981.274
997.689
2142.71
3095.09
589.768
2280.59
1641.6
3328.69
2412.2
608.967
508.167
168.401
179.555
737.732
850.939
3311.94
938.626
245.105
265.968
220.387
238.298
924.404
1035.71
1222.45
135.213
795.195
692.545
1176.45
801
141.136
97.1801
317.462
135.499
606.633
356.737
102.712
539.044
863.789
812.352
783.565
217.053
1491.32
218
184.911
1357.02
1203.94
1478.55
1375.87
190.238
1193.75
1202.75
973.204
337.532
331.663
337.404
338.304
966.815
907.903
304.586
277.78
328.186
311.862
919.121
323.882
327.687
259.745
262.857
712.057
3364.68
726.301
490.049
501.497
404.167
410.067
1572.7
1159.41
472.483
1478.03
2048.16
680.682
200.124
214.994
183.455
195.706
672.072
1843.01
881.662
888.868
642.217
648.723
3689.69
1502.86
621.278
705.413
272.801
326.765
2798.75
4895.49
1832.71
2524.56
1227.06
4226.71
2651.67
3973.49
1240.76
1032.05
3098.61
2181.27
1880.83
2137.67
2451.94
44.4778
164.666
116.066
260.449
3847.09
7239.99
351.669
123.691
131.164
1033.83
2579
3018.86
532.316
596.82
1432.77
243.872
260.042
705.499
123.896
86.8388
154.858
453.927
117.857
133.286
1274.19
2068.51
2213.19
1071.65
917.647
2079.8
1806.61
2976.69
2983.98
1073.07
310.683
125.681
132.238
117.555
123.58
301.939
155.503
164.977
501.837
1207.18
502.831
533.037
6019.65
3008.11
626.635
942.813
1910.49
2025.08
567.56
218.587
178.419
267.216
231.527
601.559
1158.75
2805.12
2952.21
1270.69
238.126
110.178
115.647
755.339
744.697
342.954
1746.54
1618.83
787.06
605.79
299.637
312.389
819.864
329.621
336.104
316.345
326.725
807.521
397.021
144.317
152.569
134.52
141.742
389.869
465.094
1096.1
1085.96
1601.44
1532.96
573.951
374.386
808.826
759.966
1083.18
1078.89
430.092
457.917
1112.98
823.201
3869.68
2246.73
865.983
1102.58
619.989
1672.3
1620.75
1828.58
721.658
3326.23
8940.65
462.608
645.683
542.055
571.47
1272.45
2080.79
1515.84
781.631
1825.83
5593.3
1889.74
1787.92
14270.5
1208.4
1610.84
1444.3
1666.46
1291.9
3461.62
3442.19
1753.13
2033.78
3687.76
1305.33
1332.75
272.186
1090.8
429.111
1171.33
316.781
2989.47
2528.98
1238.13
3207.69
3535.14
3254.37
2738.01
1487.59
3355.97
3840.21
2718.93
3196.55
3999.4
2205.77
2576.28
1825.38
2099.45
3800.94
1913.77
1070.66
800.406
1387.69
1149.47
709.181
450.876
1137.19
2432.34
2660.67
1227.11
1079.93
2258.47
2381.06
2278.05
2149.48
934.085
3166.14
3012.03
2602.43
3133.54
2911.11
1054.31
2822.2
2332.55
2506.46
2641.95
1975.44
917.585
1023.8
2850.16
1221.32
1362.26
1067.59
1179.7
2735.33
2803.5
1447.47
1669.19
456.831
491.803
1140.03
904.68
426.531
448.37
1120.82
1149.7
784.365
274.531
302.252
228.574
263.922
779.997
938.614
351.327
399.628
309.877
336.674
858.156
499.933
189.77
217.54
730.874
747.408
1561.8
1691.81
905.046
2123.07
1946.16
2257.38
1549.25
1457.71
1903.57
1620.68
681.128
1340.73
1547.08
1532.99
520.736
629.214
482.838
503.846
1520.09
672.864
680.561
650.974
670.241
1301.35
430.779
444
408.925
426.133
1277.71
1434.87
465.327
478.285
448.347
461.134
1424.13
2584.12
2754.38
1168.06
1249.05
2435.54
2513.73
1022.97
1023.94
1015.85
1023.13
1035.44
1047.02
1024.97
1031.98
693.581
703.323
682.967
690.708
760.174
990.24
707.155
731.836
1647.21
1843
1410.85
1579.25
3402.23
2321.28
2501.33
1918.7
2238.3
1124.76
1099.25
470.255
1713.13
1745.03
1652.04
1701.79
1758.74
558.519
1513.1
1164.76
1071.85
873.43
382.164
1213.57
1471.56
1051.74
1113.12
1577.8
1633.82
1494.14
1558.33
425.208
1078.8
1078.98
3579.02
1693.73
3535.22
3189.07
3536.23
1772.92
3906.58
2137.36
3835.21
3485.57
869.583
995.149
1736.72
1688.64
625.344
687.911
1806.65
1754.41
3528.81
1305.57
585.662
798.476
4874.52
5226.46
1895.38
4993.34
4131.75
2200.73
1210.71
4381.34
3099.7
5081.71
3280.62
1595.95
59.9614
40.8713
35.8202
3651.61
3629.03
120.057
66.0245
66.3346
3647.16
1412.39
2603.61
2232.2
335.258
268.397
146.791
274.341
175.687
462.564
1639.54
279.296
305.087
50.576
60.1285
110.622
420.971
888.536
1100.49
197.764
97.1553
101.801
91.3493
95.6654
193.516
1176.69
1363.75
2645.06
786.207
688.747
370.841
399.49
419.714
900.211
1164.85
1281.53
645.132
103.412
108.435
232.842
308.466
722.009
702.68
680.366
568.328
276.881
797.676
369.953
392.548
3192.84
3042.55
2483.87
1623.34
1594.25
1197.05
2923.71
3557.2
3377.95
1833.04
1009.46
1125.86
1755.94
1208.22
1676.59
1654.04
1672.86
1704.36
3446.47
2779.73
2938.25
3621.29
1957.05
1704.08
890.924
1268.46
165.081
127.16
253.137
1173.51
2392.7
2054.81
4000.97
4082.54
4158.75
3683.7
3895.35
83.3169
107.648
324.651
1717.54
1433.92
1339.97
2000.42
1854.95
2245.37
2941.11
2810.89
3460.34
3410
2899.33
813.026
887.579
1886.09
3222.67
2355.42
2475.45
3116.81
2482.42
2623.74
1059.58
1318.98
1201.17
791.214
557.59
562.44
1147.25
809.893
834.441
568.197
576.2
810.62
161.35
182.366
479.098
634.668
987.379
808.462
1212.08
1172.46
794.021
1652.88
1301.58
1318.21
916.644
923.745
1503.74
1478.55
1499.28
1341.66
1367.17
1335.99
859.116
863.944
842.464
845.117
1229.19
1464.67
903.401
909.993
869.254
874.959
1394.58
730.996
724.469
312.365
339.139
741.509
733.286
525.325
512.987
250.491
1577.01
1585.95
1512.59
1524.96
1730.29
1594.58
1603.27
272.943
550.997
529.746
3346.62
3326.84
2575.93
2667.17
3370.46
3289.51
3312.54
771.032
1570.59
1406.82
343.71
362.509
748.721
652.531
324.491
338.524
1186.27
1183.76
876.884
902.262
1204.03
1191.45
3674.96
1751.53
1194.82
1708.97
14093.9
2834.4
2079.9
3903.02
3454.62
1805.04
1787.04
1219.94
4353.07
4587.01
4519.14
3704.25
1278.34
1842.29
1821.62
2650.67
1496.38
1722.23
3512.01
3633.93
3075.74
2950.11
2343.28
1240.98
1572.1
1387.05
2721.75
3424.41
3248.24
3554.01
3513.82
2868.05
177.059
249.498
1256.4
2251.17
2209.35
2331
2296.26
2115.75
1608.45
1605.28
1616.95
1611.62
2155.08
3037.85
1874.2
1889.36
1809.25
1850.24
3057.51
1932.27
1557.72
1490.73
1600.97
1589.5
1978.46
2834.09
1916.55
1926.56
1901.65
1910.5
2905.62
2414.3
2367.75
2325.75
2392.76
1093.17
792.47
795.806
1578.6
1133.51
1133.16
1124.92
1132.46
1555.46
3711.24
3754.1
3420.91
3607.05
1651.02
1677.6
1599.83
1624.96
1910.93
1168.67
1570.59
1554.75
1656.06
1132.13
1132.97
1132.34
1131.95
1638.93
1556.18
1576.5
1313.25
1542.43
1912.25
3736.96
3659.39
3106.9
3789.96
1686.4
2200.3
11658.6
1260.38
948.882
959.864
1778.06
5660.19
5616.23
9010.39
5334.62
4859.76
1716.88
1697.41
1207.59
1646.4
1728.17
1856.17
1642.04
1846.03
1624.67
1288.74
1884.87
1729.63
3489.3
3472.1
3656.93
3100.87
3305.89
1286.98
1430.72
1010.26
533.391
655.553
1036.72
1086.79
772.55
990.403
1275.96
3393.06
3593.7
3493.25
3552.2
4008.49
3978.47
3743.03
2874.02
3617.24
3377.95
3941.95
3838.07
3037.46
3261.58
3452.59
4094.3
3597.79
2935.87
3087.72
1679.73
1512.96
1766.27
1284.64
1555.29
1731.51
1791.28
1733.16
2471.62
1720.58
1667.36
2167.25
1858.49
2526.43
2296.93
1628
1622.38
1645.91
1635.61
2343.38
2237.96
1534.65
1558.09
3132.04
3085.49
2786.48
3147.14
3157.21
2989.95
2894.93
2943.57
2614.88
1683.15
1749.26
1586.28
1626.37
2429.52
3317.87
3125.49
2368.45
3533.41
3516.12
3505.11
2764.82
3439.19
3430.89
2121.28
2230.75
3030.53
1089.76
1177.62
667.282
755.058
1125.38
825.322
589.046
614.187
1058.93
1019.27
699.235
1141.51
1257.38
763.964
1139.62
1101.32
1574.1
1293.68
1271.8
1385.91
1325.66
1607.18
2062.92
1983.65
1519.38
1887.4
1935.91
1770.52
1824.58
1496.06
1862.3
1986.37
2137.5
1824.51
986.97
1084.84
1558.7
1511.81
932.154
947.613
1436.18
1457.39
1391.17
1414.13
852.514
855.666
1319.96
1253.37
846.977
849.412
890.873
896.854
1449.29
1411.94
880.695
885.806
2644.26
1953.21
1965.38
1934.83
1941.92
2680.11
2435.64
2071.32
2190.54
1983.27
2013.27
2479.6
1023.12
1515.5
1496.05
1546.02
1531.25
1023.33
1022.52
1428.69
1407.54
1474.93
1452.68
1023.42
1039.25
1632.28
1617.93
1654.84
1645.01
1043.15
1026.5
1573.04
1559.91
1603.42
1588.47
1028.96
1557.76
1567.65
696.64
983.643
980.613
990.378
986.89
699.875
1536.55
1547.46
1630.07
1649.01
823.399
1156.76
1058.77
1388.17
1374.73
927.527
711.855
999.023
994.275
1020.33
1005.97
718.826
1611.42
1619.8
3149.25
3293.84
3361.14
2780.14
2959.43
2382.64
3307.98
3342.01
3213
3268.99
2437.2
2016.78
2924.34
2727.47
3295.04
3139.65
2130.61
1110.1
810.883
824.218
799.41
803.923
1103.37
1723.84
1734.16
1670.59
1689.75
1780.61
1870.37
1497.75
1030.16
1097.25
853.611
919.703
1267.23
1437.57
1800.77
1716.67
1451.44
1058.91
1675.02
1664.96
1697.21
1685.49
1073.71
1596.77
1615.5
1516.53
1537.92
3502.56
2730.44
2855.66
2447.42
2591.46
3389.07
3373.94
3495.65
2989.46
3177.24
3565.21
3807.99
3075.02
3230.21
2761.77
2920.38
3700.01
1732.56
1748.7
1697.13
1715.45
1335.17
1240.13
931.143
1795.75
1820.1
1764.15
1779.36
1720.15
1139.74
1143.68
1134.56
1136.8
1704.54
1792.49
1173.12
1211.97
1149.09
1157.32
1772.89
3643.04
981.55
1035.96
1411.62
4652.77
7516.65
7605.38
6497.4
6826.44
4936.75
2101.85
4691.94
3637.89
3855.39
1214.48
1761.92
1738.68
4381.47
4663.38
4750.34
4091.35
4385.4
5122.7
4789.7
3483.86
4405.53
4146.24
1955.89
1872.92
1375.78
31.7552
31.7645
31.8508
31.7687
31.785
31.861
31.7918
31.816
31.877
31.825
31.853
31.897
31.8617
31.8833
31.9147
31.8882
31.8939
31.9218
31.8926
31.8802
31.9149
31.8738
31.8501
31.8983
31.8414
31.8157
31.8795
31.8078
31.7871
31.864
31.6402
31.6603
31.7371
31.6691
31.7037
31.7619
31.718
31.7674
31.7994
31.7855
31.8426
31.8434
31.8607
31.9046
31.8792
31.9139
31.922
31.8913
31.9182
31.8895
31.8746
31.8758
31.8274
31.839
31.8105
31.7609
31.7982
31.7454
31.7033
31.7639
31.5351
31.5755
31.637
31.5932
31.6602
31.6888
31.6882
31.7947
31.7644
31.8373
31.9782
31.8568
32.0252
32.1396
31.933
32.162
32.1668
31.9526
32.1495
32.0603
31.9105
32.0233
31.9065
31.8342
31.8674
31.761
31.7542
31.7304
31.6539
31.6871
31.4455
31.5154
31.5576
31.5453
31.6728
31.6571
31.7327
31.9856
31.8228
32.0995
32.5459
32.0599
32.7239
33.2128
32.2787
33.3034
33.2258
32.308
33.1094
32.6983
32.1548
32.5652
32.2131
31.9543
32.115
31.8733
31.776
31.8085
31.6542
31.6482
31.3736
31.4822
31.5048
31.5327
31.7721
31.689
31.893
32.48
32.0741
32.7971
34.5458
32.8393
35.5733
40.0768
33.883
40.5684
38.6885
33.8539
37.5073
34.7945
33.0191
34.2029
33.0173
32.3537
32.7502
32.1746
31.9275
32.0364
31.7306
31.6652
31.3155
31.4716
31.4777
31.5519
31.9454
31.8103
32.1546
33.2889
32.6621
33.9994
40.8153
35.55
39.1435
45.0304
38.2952
58.7988
55.8392
42.8742
44.7406
41.0589
38.4053
38.4541
34.6848
33.3422
34.01
32.7358
32.2886
32.4635
31.9014
31.7642
31.2658
31.4751
31.4716
31.5873
32.1302
31.9935
32.4179
33.9872
33.4923
34.5623
35.9117
35.5197
46.7788
52.5922
50.7183
85.0204
58.6697
50.5458
45.3904
37.2107
35.2551
35.8856
33.549
32.9196
33.0826
32.162
31.9595
31.221
31.4826
31.4769
31.6234
32.2833
32.1717
32.6246
34.4496
34.1173
35.3131
36.9665
36.7515
53.0822
62.6528
61.1634
128.702
79.6871
72.7238
51.7413
39.8449
37.8955
37.8892
34.4594
33.7754
33.7843
32.4714
32.2369
31.1795
31.4907
31.4845
31.657
32.4153
32.3173
32.8007
34.885
34.5533
35.9228
37.9452
37.6602
60.711
81.6738
78.3732
142.687
89.508
87.2819
55.7559
41.9261
40.43
39.5462
35.2854
34.6791
34.4352
32.7761
32.5498
31.1419
31.5018
31.4931
31.6924
32.5506
32.448
32.9854
35.4542
35.0101
36.7367
39.4602
39.0253
70.7891
102.348
97.9302
138.062
89.7789
90.3475
57.5762
43.2447
42.3296
40.6593
35.9106
35.4635
34.9424
33.03
32.8455
31.108
31.5179
31.5054
31.733
32.7063
32.5872
33.2062
36.2397
35.6301
37.8982
42.6362
40.9761
85.3551
132.57
125.765
126.152
93.7691
94.5211
57.8519
43.8592
43.4587
41.2351
36.2957
36.0293
35.2665
33.2053
33.0816
31.089
31.5627
31.5227
31.8087
32.9514
32.7492
33.5648
37.6461
36.4727
39.3572
46.9903
45.3635
102.415
183.746
171.432
862.011
457.53
513.565
106.62
64.8043
65.7802
57.2687
43.9575
43.9235
41.3869
36.4633
36.3559
35.4176
33.2943
33.2351
31.0589
31.5852
31.5691
31.8555
33.1572
33.0029
33.8884
39.2956
37.9859
42.3799
51.1494
51.9023
192.339
535.46
407.646
447.077
218.603
237.702
100.231
62.9967
64.4403
56.1132
43.7024
43.9269
41.2483
36.4642
36.478
35.433
33.3079
33.3039
31.0242
31.6014
31.5901
31.8968
33.375
33.2096
34.2653
42.1648
39.8682
50.9873
323.9
210.645
866.793
518.681
610.821
302.679
115.68
121.466
94.8816
61.2243
62.5434
54.9074
43.2906
43.6016
40.9487
36.3444
36.4405
35.3408
33.2509
33.2981
30.9825
31.6068
31.6039
31.9284
33.6363
33.4366
34.7611
46.2429
43.0744
60.2103
411.924
352.256
852.595
434.642
494.363
268.841
109.834
114.024
90.7081
59.6493
60.8054
53.7763
42.8489
43.1836
40.6158
36.1827
36.3073
35.2074
33.1592
33.2301
30.933
31.6014
31.6064
31.9513
33.949
33.7087
35.3825
51.4122
47.439
71.6989
450.596
425.169
788.621
376.484
418.201
243.828
105.778
108.68
87.6202
58.3316
59.2969
52.8001
42.4169
42.7384
40.2737
35.9935
36.1371
35.0456
33.0429
33.132
30.8761
31.589
31.5988
31.9717
34.3342
34.0379
36.1505
57.5842
52.8553
83.839
461.06
455.266
716.169
333.897
364.65
224.509
102.676
104.945
85.4626
57.2457
58.0388
51.9718
42.0201
42.314
39.9503
35.7968
35.9445
34.8726
32.9127
33.0113
30.8132
31.5742
31.5853
31.9965
34.8025
34.4433
37.0684
64.3661
59.2647
94.3752
455.714
460.848
648.29
301.355
324.972
209.049
99.9809
101.973
83.7823
56.4086
57.0114
51.2915
41.664
41.9273
39.6533
35.6032
35.7478
34.6987
32.7765
32.879
30.7462
31.5617
31.5707
32.0316
35.3596
34.9331
38.149
70.5989
66.0221
102.335
441.975
452.856
588.387
275.641
294.379
196.329
97.5644
99.3523
82.3003
55.8264
56.2412
50.7848
41.3513
41.5815
39.3858
35.4178
35.556
34.5293
32.6387
32.742
30.6767
31.5552
31.5594
32.0818
36.028
35.5146
39.4601
75.5591
71.9612
108.267
424.159
437.783
536.588
254.763
270.027
185.625
95.3886
96.9992
80.9471
55.4136
55.7117
50.4374
41.0925
41.2811
39.1537
35.2435
35.3731
34.3672
32.5021
32.6044
30.606
31.5585
31.5549
32.1529
36.8646
36.219
41.025
79.4005
76.6122
112.624
404.735
419.386
492.014
237.432
250.139
176.449
93.4186
94.8782
79.7043
55.078
55.3249
50.1864
40.895
41.0374
38.9649
35.0837
35.202
34.2154
32.3687
32.4684
30.5359
31.5782
31.5616
32.2573
37.875
37.1038
42.6527
82.3784
80.2185
115.692
385.084
399.806
453.572
222.774
233.545
168.46
91.6206
92.9542
78.5574
54.7762
55.0003
49.9799
40.7507
40.8546
38.8193
34.9417
35.0465
34.0764
32.2401
32.336
30.4683
31.6253
31.5869
32.4134
38.946
38.1426
44.1449
84.6538
83.0082
117.704
365.959
380.233
420.242
210.18
219.451
161.412
89.9653
91.1944
77.4922
54.4934
54.704
49.7939
40.6427
40.721
38.7078
34.818
34.9091
33.9516
32.1176
32.2089
30.4064
31.7106
31.6427
32.6306
39.9646
39.2085
45.4432
86.344
85.1273
118.86
347.741
361.309
391.15
199.214
207.3
155.121
88.428
89.5708
76.4949
54.2239
54.4249
49.6188
40.5563
40.6195
38.6193
34.7108
34.7898
33.8402
32.0017
32.088
30.3533
31.8373
31.7385
32.8988
40.885
40.2046
46.5584
87.5452
86.6867
119.329
330.604
343.352
365.579
189.556
196.688
149.453
86.9886
88.0598
75.554
53.9646
54.1583
49.4505
40.4824
40.5369
38.5455
34.617
34.6862
33.7403
31.8922
31.9738
30.3119
31.9987
31.8748
33.1973
41.7015
41.0987
47.5139
88.3401
87.7791
119.256
314.597
326.497
342.943
180.962
187.316
144.299
85.6303
86.642
74.6593
53.7128
53.9011
49.2864
40.4156
40.4652
38.481
34.5337
34.5953
33.65
31.7886
31.8658
30.2838
32.1836
32.0432
33.5066
42.4208
41.8901
48.3308
88.8001
88.484
118.76
299.703
310.771
322.768
173.249
178.958
139.578
84.3397
85.3018
73.8022
53.4659
53.6507
49.1244
40.3525
40.3995
38.4219
34.4584
34.5142
33.5674
31.6901
31.7635
30.2694
32.3808
32.2321
33.8132
43.0525
42.5866
49.0269
88.9869
88.8704
117.939
285.87
296.148
304.671
166.272
171.441
135.225
83.1057
84.0263
72.9756
53.2219
53.4048
48.9629
40.2911
40.3371
38.366
34.389
34.4406
33.4908
31.596
31.6662
30.2677
32.582
32.431
34.109
43.6058
43.1978
49.6176
88.9529
88.9973
116.875
273.026
282.569
288.339
159.915
164.628
131.185
81.9192
82.8049
72.1738
52.9785
53.1611
48.8003
40.2296
40.2758
38.3114
34.3241
34.3725
33.4188
31.5059
31.5732
30.2769
32.7812
32.6321
34.3897
44.0893
43.7329
50.1161
88.7431
88.9155
115.634
261.097
269.962
273.521
154.087
158.412
127.418
80.7728
81.6291
71.3917
52.7342
52.9176
48.6352
40.1669
40.2141
38.2568
34.2623
34.3084
33.3505
31.4192
31.484
30.2953
32.9748
32.8302
34.6534
44.5108
44.2002
50.5344
88.3951
88.6678
114.268
250.007
258.249
260.006
148.714
152.704
123.887
79.6602
80.4917
70.6254
52.4873
52.6728
48.4664
40.102
40.1509
38.2012
34.2025
34.2472
33.2847
31.3353
31.398
30.3207
33.1606
33.022
34.8996
44.8776
44.6074
50.8832
87.9411
88.2905
112.82
239.682
247.356
247.621
143.733
147.434
120.563
78.5763
79.3867
69.8715
52.2365
52.425
48.2928
40.0339
40.0853
38.1436
34.1439
34.1878
33.2208
31.2539
31.3148
30.3517
33.3376
33.2057
35.1286
45.1963
44.9615
51.172
87.4078
87.8143
111.326
230.053
237.212
236.223
139.094
142.543
117.422
77.5167
78.3093
69.1271
51.9807
52.1731
48.1135
39.9621
40.0164
38.0833
34.0857
34.1293
33.1581
31.1745
31.2339
30.3867
33.5053
33.3804
35.3411
45.473
45.2692
51.4096
86.8179
87.2649
109.812
221.06
227.748
225.691
134.755
137.983
114.442
76.4778
77.2552
68.3899
51.7189
51.9159
47.9277
39.8857
39.9434
38.0196
34.0274
34.0712
33.0959
31.0967
31.1549
30.4227
33.6569
33.5458
35.5303
45.7061
45.5363
51.5989
86.2003
86.664
108.319
212.671
218.905
215.952
130.717
133.712
111.642
75.4798
76.221
67.6772
51.4601
51.6524
47.7424
39.8083
39.8658
37.9555
33.9714
34.0127
33.037
31.0246
31.0775
60.0129
59.0107
50.9694
125.275
183.247
209.944
82.7732
94.4786
81.8482
77.2774
73.7351
57.8651
169.907
267.357
268.132
217.945
238.542
147.82
96.5257
92.4867
66.596
171.845
242.562
233.627
267.649
264.311
174.176
123.643
117.658
79.1972
157.56
190.884
187.4
212.722
209.26
167.287
167.679
157.296
91.6645
1291.36
1580.11
1508.39
820.631
860.305
1111.19
144.663
260.094
238.443
183.904
180.542
151.113
377.055
312.452
139.043
756.527
1447.92
1416.13
2121.24
1823.65
1202.37
389.96
404.973
620.455
127.605
211.83
200.118
232.246
216.328
129.352
65.8196
48.3793
40.2667
1504.86
1052.36
1966.9
39.8643
47.9017
56.913
1719.19
1717.04
60.0225
65.6316
73.3556
41.9783
53.4301
47.1479
474.073
581.016
635.677
205.485
262.863
198.461
70.1059
61.5371
91.7218
48.3758
55.0245
58.8234
47.5341
51.1881
45.7243
37.4077
37.1802
35.4617
48.9473
39.3139
39.9147
38.7047
39.1496
48.2403
1311.95
1722.72
1721.34
1293.5
1300.5
1052.02
86.1846
81.5971
131.923
57.9319
68.4508
70.8432
62.4107
65.6478
55.8691
38.6274
38.2672
36.0983
54.6048
41.2503
42.224
40.1471
40.9547
53.8445
86.2693
82.7959
61.7816
207.025
155.184
158.388
138.14
140.78
185.373
878.225
1079.31
1053.85
1407.62
1392.99
1104.01
90.3918
89.9217
142.829
63.68
75.7272
76.659
72.8443
74.4674
62.5998
40.4419
39.9321
36.9932
62.1166
44.0784
45.3726
42.5679
43.6832
61.0192
108.737
103.889
72.3152
335.599
214.411
218.536
190.173
194.296
266.819
553.288
704.415
678.535
1055.8
962.438
650.575
44.8381
43.2321
38.219
72.9024
47.6576
49.4865
45.8376
47.1351
71.4694
142.634
135.001
87.5484
553.763
314.28
309.698
268.096
274.725
478.53
1813.82
1909.6
2360.05
357.187
660.415
585.279
493.752
477.582
393.152
51.1493
47.6045
40.0021
89.4582
53.1866
58.3158
50.1573
52.3434
86.6706
203.053
188.285
104.159
1248.05
920.536
929.185
659.107
667.027
892.475
2697.74
3490.05
301.507
600.342
2700.18
2069.33
1354.03
1192.61
688.897
125.873
193.32
164.865
293.639
266.632
155.7
84.9886
100.033
90.9498
153.228
144.714
112.633
1005.17
1266.37
1283.53
686.82
733.257
575.913
143.887
173.691
116.684
443.396
325.086
297.797
465.661
444.074
728.127
167.405
85.9957
89.9615
81.9615
84.8059
164.077
56.9994
72.293
67.1285
216.399
388.124
372.249
493.343
481.175
226.935
173.967
316.876
300.593
368.136
356.022
200.657
1138.78
1431.6
1420.21
1715.06
1701.7
1303.09
260.467
266.335
160.337
1006.69
562.022
562.745
585.214
590.46
938.996
865.884
504.156
485.697
562.648
563.262
999.045
149.537
244.224
257.437
248.932
182.514
186.277
161.648
164.948
222.509
65.3131
91.1966
87.4668
300.309
381.962
375.526
445.38
440.908
350.638
247.46
509.005
497.262
367.8
359.079
286.15
716.393
1199.78
1089.13
1030.03
1007.75
820.19
253.706
245.479
173.004
639.315
493.808
504.251
281.47
295.185
589.149
871.413
571.533
578.898
514.563
524.725
759.275
174.528
262.595
256.231
435.231
255.41
261.685
222.889
227.449
369.316
77.3485
115.77
110.429
454.991
591.689
587.087
815.621
811.831
592.278
362.988
455.635
450.134
582.544
578.064
439.963
430.368
528.564
510.767
653.455
630.326
503.13
866.635
636.675
649.528
311.093
320.393
646.293
90.3753
154.126
145.343
857.087
1179.81
1178.06
609.406
821.187
818.498
1170.02
1141.78
811.397
311.19
486.259
438.205
563.057
504.339
295.155
2020.82
1643.4
1725.46
11111.8
2308.6
3523.03
935.835
941.856
1256.21
124.995
245.8
208.256
1082.63
1037.83
837.609
4814.87
4859.27
8822.47
942.923
1186.81
1132.27
36.5169
36.2429
34.7899
44.6704
38.0662
38.5627
37.132
37.8682
44.0858
55.7435
54.2944
47.8537
85.9159
62.4829
65.2087
58.8414
61.4659
82.1913
937.921
1232.99
894.253
65.7677
64.2717
54.0269
139.262
77.4006
80.8314
72.2304
76.2214
135.818
95.1255
89.4528
136.848
66.0419
77.8794
77.9173
77.3008
77.6977
65.703
941.966
1622.86
1400.74
1237.7
1185.17
952.16
406.476
441.682
825.081
274.172
351.11
339.284
424.295
364.109
282.244
109.299
68.8071
71.2323
65.9706
68.1155
106.264
50.3074