/*--------------------------------*- C++ -*----------------------------------*\
| =========                 |                                                 |
| \\      /  F ield         | OpenFOAM: The Open Source CFD Toolbox           |
|  \\    /   O peration     | Version:  v1912                                 |
|   \\  /    A nd           | Website:  www.openfoam.com                      |
|    \\/     M anipulation  |                                                 |
\*---------------------------------------------------------------------------*/
FoamFile
{
    version     2.0;
    format      ascii;
    class       volScalarField;
    location    "500";
    object      p;
}
// * * * * * * * * * * * * * * * * * * * * * * * * * * * * * * * * * * * * * //

dimensions      [0 2 -2 0 0 0 0];


internalField   nonuniform List<scalar> 
12556
(
657.304
656.515
654.563
650.483
645.008
632.799
612.972
581.343
533.558
464.605
370.553
251.001
111.49
-36.3689
-178.533
-303.689
-406.106
-485.277
-543.529
-584.62
-618.752
-634.711
-643.902
-648.223
657.777
657.265
655.916
652.88
647.411
636.987
619.319
593.051
549.892
485.837
395.652
277.151
134.726
-19.22
-168.226
-298.907
-404.817
-485.778
-552.714
-591.353
-624.897
-639.037
-647.051
-650.794
658.985
659.102
659.096
658.299
654.41
648.138
636.123
614.326
578.803
521.692
434.248
309.53
149.772
-26.6829
-194.109
-333.605
-439.853
-516.132
-578.482
-610.592
-639.278
-649.464
-654.984
-657.527
660.386
661.388
663.24
665.546
664.445
664.236
660.68
647.491
625.524
583.016
505.031
373.09
180.27
-43.0581
-244.885
-397.102
-501.102
-568.068
-618.44
-639.757
-660.125
-664.599
-666.552
-667.375
661.024
663.028
666.976
672.865
675.624
682.932
690.506
690.442
689.066
673.456
622.802
492.865
237.676
-84.8704
-345.452
-509.062
-597.122
-641.075
-671.271
-677.099
-684.619
-681.849
-679.477
-678.213
659.926
662.931
668.971
678.492
685.786
701.039
720.57
736.547
763.138
791.703
804.777
727.154
354.036
-210.508
-552.631
-688.943
-729.933
-734.707
-733.207
-718.725
-709.626
-698.676
-691.56
-688.027
656.177
660.057
667.916
680.618
692.552
714.989
745.376
777.298
831.67
911.555
1036.29
1214.6
711.172
-660.358
-949.197
-950.161
-896.554
-840.279
-796.288
-759.175
-731.332
-712.274
-700.549
-694.825
648.949
653.466
662.63
677.605
693.63
721.323
759.374
803.428
876.147
986.838
1176.68
1584.55
-2051.31
-1567.42
-1259.99
-1066.87
-939.45
-849.863
-791.297
-745.436
-719.609
-704.096
-696.569
637.61
642.453
652.26
668.363
687.468
717.788
759.198
809.184
886.121
992.659
1134.27
1269.48
-3483.63
-2075.73
-1499.06
-1191.05
-1007.65
-881.639
-807.793
-748.092
-718.003
-700.144
-691.486
621.819
626.65
636.398
652.412
673.344
703.619
744.36
794.727
866.342
956.446
1056.31
1134.23
-3404.06
-2143.41
-1554.18
-1223.16
-1023.9
-882.571
-803.586
-736.842
-705.76
-687.378
-678.435
601.551
606.051
615.084
629.892
651.379
679.328
716.317
763.334
826.089
902.581
987.2
1066.26
-2630.23
-1851.97
-1424.9
-1156.26
-983.157
-850.443
-777.686
-711.392
-682.596
-665.512
-657.132
577.068
580.958
588.732
601.458
622.339
646.17
677.186
718.337
770.538
835.945
917.43
1018.57
-1755.49
-1405.98
-1184.52
-1017.97
-896.751
-790.73
-732.739
-673.483
-649.597
-635.272
-628.156
548.908
551.995
558.11
567.995
587.258
605.746
629.289
662.456
701.471
752.145
824.43
943.737
-772.851
-915.289
-956.334
-913.73
-848.269
-784.555
-713.363
-674.21
-626.389
-608.867
-598.179
-592.784
517.747
519.964
524.302
531.2
548.155
560.692
575.786
599.506
622.285
649.96
687.034
783.278
224.793
-389.083
-602.459
-672.765
-681.853
-666.434
-629.031
-608.49
-573.767
-563.006
-556.232
-552.727
484.406
485.67
488.065
491.709
505.749
511.866
518.092
531.385
536.363
535.774
519.075
455.204
179.594
-168.934
-380.304
-489.838
-539.443
-556.512
-546.165
-541.318
-519.138
-514.633
-511.514
-509.825
449.715
450.053
450.582
451.162
462.233
462.546
460.896
464.426
454.391
432.44
386.092
294.151
125.564
-87.7262
-254.397
-363.495
-427.406
-461.822
-469.872
-476.663
-465.213
-465.923
-465.911
-465.803
414.499
414.021
412.929
410.868
419.061
414.435
406.398
402.094
381.513
347.042
292.672
207.864
88.7943
-55.2955
-180.694
-275.613
-340.846
-382.644
-402.419
-416.942
-413.858
-418.56
-420.982
-422.101
379.507
378.357
375.943
371.758
377.386
368.973
356.355
346.546
320.118
281.23
227.808
155.092
64.7505
-40.1857
-136.313
-215.501
-275.631
-318.713
-344.392
-363.292
-366.219
-373.659
-377.848
-379.851
345.353
343.684
340.263
334.506
338.011
326.984
311.492
298.323
269.549
230.63
181.436
119.962
48.4291
-32.0117
-107.636
-173.25
-226.455
-267.468
-295.196
-316.008
-322.812
-331.904
-337.218
-339.839
312.507
310.472
306.356
299.555
301.401
288.803
271.841
256.983
228.091
191.271
147.184
95.1673
36.9348
-26.9393
-87.8229
-142.407
-188.667
-226.172
-253.647
-274.726
-283.765
-293.635
-299.553
-302.507
281.305
279.046
274.516
267.129
267.752
254.43
237.05
221.679
193.962
160.155
121.118
76.8946
28.5928
-23.3867
-73.3132
-119.032
-158.974
-192.531
-218.497
-238.818
-248.887
-258.904
-265.023
-268.103
251.962
249.597
244.888
237.291
237.067
223.663
206.599
191.49
165.638
135.135
100.766
62.9742
22.3919
-20.6429
-62.1601
-100.712
-135.115
-164.768
-188.611
-207.592
-217.858
-227.591
-233.623
-236.676
224.581
222.208
217.505
209.986
209.225
196.198
179.933
165.571
141.902
114.684
84.5219
52.0883
17.6939
-18.3655
-53.2433
-85.9307
-115.544
-141.549
-163.033
-180.384
-190.305
-199.477
-205.228
-208.151
199.182
196.874
192.318
185.088
184.033
171.693
156.524
143.191
121.809
97.71
71.3075
43.3913
14.0789
-16.3803
-45.8857
-73.7112
-99.194
-121.879
-140.981
-156.596
-165.84
-174.291
-179.64
-182.366
175.718
173.529
169.219
162.426
161.264
149.807
135.899
123.746
104.633
83.4234
60.3783
36.3184
11.2617
-14.5944
-39.6615
-63.4025
-85.3144
-105.019
-121.826
-135.71
-144.089
-151.74
-156.618
-159.11
154.096
152.062
148.069
141.807
140.676
130.216
117.644
106.735
89.8091
71.2476
51.2051
30.4764
9.04155
-12.9557
-34.2905
-54.5561
-73.3659
-90.4092
-105.061
-117.282
-124.704
-131.529
-135.908
-138.147
134.188
132.335
128.701
123.028
122.031
112.622
101.405
91.7501
76.8955
60.7523
43.4035
25.5842
7.2746
-11.4339
-29.5814
-46.8546
-62.9529
-77.6223
-90.28
-100.936
-107.369
-113.378
-117.251
-119.233
115.846
114.187
110.937
105.884
105.096
96.754
86.8727
78.4527
65.5405
51.6066
36.6852
21.4339
5.85468
-10.0094
-25.3974
-40.0645
-53.7757
-66.3231
-77.1477
-86.3479
-91.7966
-97.0174
-100.395
-102.124
98.9063
97.4488
94.5962
90.173
89.6508
82.3669
73.7827
66.5612
55.4624
43.5525
30.8307
17.869
4.70233
-8.66897
-21.6374
-34.0101
-45.6029
-56.2462
-65.3875
-73.2421
-77.7277
-82.1994
-85.1
-86.5852
83.2005
81.947
79.4952
75.7014
75.4881
69.2393
61.9036
55.8374
46.4303
36.3829
25.6675
14.7679
3.75674
-7.40229
-18.2231
-28.5537
-38.2498
-47.1741
-54.7665
-61.3783
-64.9308
-68.6951
-71.1414
-72.3938
68.549
67.5002
65.4484
62.2781
62.4128
57.1711
51.0332
46.0776
38.2523
29.9288
21.0576
12.0343
2.97065
-6.20061
-15.092
-23.5844
-31.5662
-38.9268
-45.0866
-50.547
-53.1923
-56.2886
-58.303
-59.3335
54.8038
53.9557
52.2986
49.7412
50.2474
45.9807
40.9923
37.1066
30.7667
24.0498
16.8879
9.5904
2.30665
-5.05603
-12.1926
-19.011
-25.4267
-31.3519
-36.1762
-40.5637
-42.334
-44.7993
-46.4043
-47.2258
41.7035
41.0608
39.7996
37.8549
38.8049
35.5006
31.6206
28.7697
23.8332
18.6254
13.0626
7.37081
1.73447
-3.96072
-9.48046
-14.7556
-19.7241
-24.3173
-27.8837
-31.2612
-32.1283
-33.9859
-35.1953
-35.8114
29.3868
28.924
28.0359
26.6719
27.9818
25.5815
22.7738
20.9317
17.3303
13.5506
9.49801
5.31921
1.22945
-2.90652
-6.91673
-10.7509
-14.3657
-17.7082
-20.0753
-22.4973
-22.5906
-23.8832
-24.7272
-25.1665
16.6444
16.4292
15.96
15.2385
17.4483
16.0657
14.3121
13.4735
11.1502
8.72868
6.1161
3.38302
0.772466
-1.88348
-4.46556
-6.93715
-9.26968
-11.422
-12.6193
-14.1186
-12.9064
-13.5997
-14.0503
-14.2562
7.51656
7.32998
7.10024
6.68362
7.62042
6.72175
6.00041
6.29799
5.19766
4.0616
2.84135
1.49074
0.360179
-0.876414
-2.0919
-3.25882
-4.36281
-5.37124
-5.30506
-5.96469
-5.70159
-6.0696
-6.27702
-6.44948
1301.62
-3695.11
-2141.96
1144.66
-3702.2
-3782.07
1072.92
-2859.13
-3622.09
1025.21
-1912.82
-2739.17
951.041
-829.009
-862.494
-1032.34
-1797.25
809.606
313.014
-784.971
178.005
-402.289
-936.563
1585.51
872.065
-1835.23
-486.598
-4605.87
-2470.31
-3397.88
-2190.31
-1672.84
1075.06
1136.86
1259.32
-5210.97
-5305.28
-3469.1
-2392.52
-2298.24
1003.87
1063.43
1125.72
1105.1
1128.79
1166.57
-3973.25
-4658.4
-2738.37
-2107.23
-2356.26
936.038
1011.05
1056.4
1048.58
1086.35
1095.82
-2681.43
-3234.81
851.332
938.932
1003.82
990.029
1053.62
1072.88
-1568.78
-1496.87
-2005.87
725.155
797.811
927.041
898.19
998.57
1019.01
521.806
284.611
321.648
1545.06
1264.92
2176.49
1614.65
-5297.94
-4677.28
-3229.08
-4488.31
-5155.44
1170.02
1188.35
1182.74
1186
1173.72
1246.73
1188.88
-4697.83
-5191.29
-3790.42
-5071.5
-4613.24
-5164.25
-5090.04
-3809.65
1098.36
1123.57
1096.2
1126.84
1100.49
1171.74
1129.73
-3315.72
-3920.48
-3209.54
-3824.31
-3245.9
-4574.02
-3914.74
-3321.6
1074.48
1086.18
1043.03
1089.36
1078.57
1099.02
1089.22
-2079.76
-2604.39
1021.39
1052.11
984.469
-1532.11
1057.54
1025.96
1076.95
1059.21
-1566.93
-971.442
-1426.48
-1524.91
1033.28
998.719
887.676
-61.6044
1005.51
919.408
1023.96
1004.96
-138.337
1152.91
1287.5
1499.19
1476.51
1606.49
2056.86
-5255.69
-2698.34
1199.6
1192.51
1260.72
-3201.56
-1863.16
-1606
-1992.88
-1938.08
-1875.19
-2136.17
-190.187
-478.926
-838.194
1279.32
1544.72
1428.49
1224.96
2973.69
2149.05
-2398.9
-4323.37
-2999.87
-2177.77
-2464.93
-2264.75
-2559.4
-2051.25
-3168.19
-2634.04
-2383.39
-1158.6
-340.98
-479.543
1424.39
1793.08
2197.13
-2075.26
-308.986
1235.08
-5391.59
-3924.57
-5282
-2640.4
-5103.2
-3602.35
-5272.37
-5281.51
-4302.18
-4348.78
-2845.09
-3140.81
-2914.75
-3118.14
-2819.69
-3487.61
-3163.49
-2993.95
1062.29
1034.59
1024.16
-1545.94
-1792.67
-1869.3
1004.96
965.932
950.863
984.583
970.645
1005.97
1423.62
1245.53
1383.8
1265.54
1464.66
1174.55
1246.89
1345.23
1965.03
2136.13
2828.14
1514.54
2034.07
1871.24
2031.17
1482.02
-5123.05
-5086.58
1179.87
1177.56
1179.33
1210.26
1161.38
1174.28
1174.04
1162.45
1202.84
-4938.19
-4968.26
-4876.83
-4325.77
-4419.09
-4137.91
-4284.9
-4846.56
-5165.23
-4464.54
-4402.58
-4439.88
-4468.56
-5156.44
1111.67
1109.73
1154.55
1151.14
-3564
-3519.08
-3610.06
1085.32
1084.24
1091.58
1091
-2775.04
-2484.89
-2377.29
-2505.27
-2796.69
1031.65
1002.66
989.042
1020.28
1007.33
1034.99
-1204.73
1039.06
1035.3
1067.06
1066.41
-1878.72
-1203.91
-1218.83
-1464.13
944.564
921.621
992.33
1006.4
471.346
158.067
1012.31
-335.077
111.536
-252.879
1011.98
-390.472
-280.565
79.5932
-2976.3
-2066.06
-2203.8
559.36
535.784
763.387
655.699
659.59
954.386
196.633
-122.867
-295.478
3954.51
-2235.08
-2384.17
-898.663
-1137.24
-1158.6
-139.999
-376.831
-117.653
2321.69
2549.68
3013.11
-2203.58
-62.724
1772.78
-5252.05
-5750.85
-5714.06
-5308.56
-4112.79
-4299.08
-4125.57
-4906.65
-4771.45
-4532.94
1088.94
1073.84
1067.83
1083.91
1076.13
1089.97
1046.84
1037.78
1063.29
999.731
980.267
975.389
857.103
593.695
341.651
-5239.13
-5692.23
-5766.58
-4937.16
-4095.97
-3756.46
-4363.62
-4180.59
-4967.62
-4808.35
-5070.55
-4953.94
-5107.7
1106.98
1096.75
1086.88
1105.79
1107.71
1103.83
-4071.7
-3919.64
-3786.24
-3567.68
-3330.02
-3543.95
-4281.08
-3893.19
-4080.82
-3615.62
-3825.75
-4235.95
1080.85
1057.33
1049.72
1065.89
1059.69
1081.92
1089.1
1102.67
1099.07
1090.82
1101.67
1082.79
1095.38
1099.59
1104.56
1097.46
1094.63
1089.16
-2302.5
-2444.78
-2173.22
-1398.42
-1392.3
1051.86
1021.82
1071.57
1079.19
1090.03
1081.63
1061.99
-1696.3
910.152
910.736
873.739
973.467
965.598
995.521
124.848
372.981
134.233
1006.09
443.44
672.578
507.441
622.219
1013.2
1009.76
-4550.5
-3136.47
-4166.77
-3316
-3370.74
-1897.07
-2023.8
-2042.58
1199.6
1189.05
2678.78
2962.47
3626.9
2753.93
2547.33
-2536.75
-2388.22
-2340.32
-2396.46
-2555.56
-1175.52
-1009.98
-1016.25
-1017.4
-1180.32
-808.501
-966.699
-588.179
-604.365
-759.584
-398.705
-551.767
-491.27
-5621.93
-4962.38
-4474.79
-5398.8
-5095.18
-4284.12
-3592.55
-4273.3
-5606.44
-5566.51
-5256.3
-5304.08
-5691.32
-5627.82
-4509.55
-4352.45
-4161.27
-4406.13
-4575.22
-4181.72
-4356.83
-4617.91
-4487.84
-4727.99
-4557.37
-2974.14
-3025.89
-2994.97
-2912.02
-3034.09
-3347.51
-3246.5
-3376.63
-3075.24
-3203.4
-3298.63
-1749.03
-1723.07
-1852.45
987.035
982.289
997.07
1007.54
994.208
989.517
1324.3
1301.84
1327.46
1399.7
1329.57
1534.64
1428.52
1353.57
1201.69
1251.17
1221.21
1310.38
1263.75
1212.63
1689.67
1728.94
1576.66
1739.29
1659.06
-5632.94
-5664.97
-5213.86
-5789.34
-5788.57
-5784.96
-5625.87
-5487.2
-5795.79
-5658.6
-4944.24
-5472.46
-5618.37
1175.09
1179.64
1181.88
1180.77
1180.07
1177.37
1187.71
1189.12
1184.01
1186.75
1163.52
1194.52
1186.47
1214.41
1198.38
1163.93
1171.63
1181.79
1180.65
1184.84
1182.5
1172.35
-5205.6
-5106.81
-4842.84
-5071.22
-5342.77
-5229.46
1120.54
1115.5
1130.62
1121.25
1108.7
1107.96
1112.95
1108.62
1176.2
1164.83
1188.34
1179.73
1144.33
1133.06
1160.92
1148.85
-3590.21
-3725.6
-3419.95
-3548.23
-3644.6
-3968.2
-4122.65
-3771.47
-3920.03
1095.38
1101.6
1088.46
1107.07
1097.82
1101.94
1108.87
1097.22
1082.75
1101.25
1094.16
1097.79
1098.45
1094.02
1102.06
1101.26
1106.61
1101.78
1095.38
1099.49
1096.2
1094.9
1089.41
1094.38
1096.12
-2565.51
-2631.44
-2693.28
-2553.1
-2739.97
-2671.41
-1191.04
-1349.71
-1383.47
-1187.61
1049.95
1026.63
1076.22
1077.27
1070.03
1063.5
1083.61
1077.49
-1769.64
991.516
961.795
954.019
651.268
551.525
1005.19
244.081
414.647
299.655
1009.83
-487.977
-49.0233
182.046
-92.8921
996.288
-1795.2
-1467.32
-923.579
-2190.71
-2243.1
-1044.23
-1078.02
-1470.69
-2253.69
-971.539
-964.089
-812.059
-1980.01
-1516.12
-1457.06
3021.07
3373.95
3961.18
-1949.12
300.003
2420.73
-1067.8
-612.905
-2065.53
-4284.65
-4856.05
-5162.87
1146.2
1132.53
1117.79
1151.88
1137.56
1151.95
-1549.38
-1679.32
-1697.15
-2092.73
-1851.58
-1784.99
1002.75
996.949
1010.25
-5253.61
-5425.07
-4900.07
1113.11
1100.52
1110.54
1119.6
1121.49
1130.27
1132.75
1143.13
1138.48
1021.22
1009.99
1005.37
-1547.36
-1501.72
-1490.47
1030.57
1035.42
1027.56
-1629.59
-1644.34
-1556.47
-1388.6
-1374.56
-1506.34
1007.17
1022.31
1029.16
1029.01
1001.21
-5121.36
-3233.36
-1916.9
-1975.79
-1983.47
-2185.4
-2054.09
-2013.75
1209.67
-3612.19
-3087.14
-3652.44
-2300.09
-2357.56
-2224.48
-815.382
-830.714
-662.08
-663.05
-758.491
-1086.05
-441.167
-2220.53
-5445.37
-5197.78
-5023.45
-5736.33
-5675.76
-2888.06
-2918.03
-2872.19
-3157.1
-3148.32
-3121.66
-2746.61
-2868.36
-2947.91
-3455.59
-3405.82
-3449.95
-1861.36
-1838.2
-1868.27
1380.06
1411.76
1265.08
1284.96
1310.68
1290.62
1176.43
1195.27
1189.98
1272.1
1255.96
1231.67
1986.59
1789.16
1764.14
1925.9
1884.54
2026.14
1457.23
1499.61
1532.09
1174.7
1176.7
1186.28
1177.71
1178.59
1178.86
1199.16
1201.43
1188.57
1187.9
1163.68
1170.93
1169.54
1186.26
1182.21
1171.45
1170.23
1173.71
1175.69
1169.61
1171.48
1166.75
1114.63
1119.9
1117.28
1105.31
1108.28
1112.57
1162.23
1172.67
1162.81
1174.12
1169.77
1202.56
1199
1134.21
1165.38
1161.02
1141.9
1147.14
1158.55
-3743.14
-3795.31
-3490.7
-3537.84
-3562.8
-3847.46
-3868.95
-3737.41
-3872.13
-3730.97
1019.09
1012.61
1023.47
1044.27
1028.87
1022.23
1042.8
1048.14
1043.21
1032.12
1035.69
1038.64
-1876.32
965.414
965.278
971.686
737.824
973.506
343.247
487.897
614.33
1018.34
1015.43
1011.4
-393.431
-248.519
-222.443
-236.076
1009.48
1016.12
1018.8
-125.777
-199.788
-348.952
-2105.32
-2139.76
-2228.48
-2182.29
-2161.96
3780.03
4404.8
3466.77
-2282.89
-2310.77
-2241.76
-2402.26
-2350.76
-2337.45
-1045.36
-142.696
-2023.7
-5493.47
-5500.18
-5450.04
-5470.19
-5739.15
-5604.48
-5612.02
-5585.63
-5596.51
-5728.14
-4867.24
-4790.68
-4832.63
-4697.06
-4747.12
-4823.35
-5738.84
-5582.09
-5549.55
-5616.79
-5607.97
-5767.61
-5028.27
-4950.77
-4988.94
-4875.16
-4913.58
-4994.02
-5417.42
-5435.16
-5345.25
-5382.92
1102.02
1097.34
1097.46
1091.88
1088.79
1087.12
1093.23
1091.38
1095.57
-1504.79
-1557.21
-1390.58
-1461.18
1062.17
1063.45
1063.99
1061.44
1022.18
1025.39
1035.19
1019.16
1082.45
1080.1
1077.51
1085.63
1083.18
1086.83
1071.63
1070.21
1074.68
1059.06
1064.8
-1705.73
-1696.93
-1684.55
-1561.28
940.72
1000.78
1155.57
997.687
987.286
984.715
1008.13
377.856
357.957
1141.08
1007.89
768.847
1014.26
1023.71
1018.62
1003.95
-4793.97
-5075.82
-4878.65
-3947.31
-3729.59
-2880.29
-4594.51
-4288.41
-3271.29
-3399.13
-2037.75
-2024.57
-2035.09
1204.2
1171.13
3200.6
3085.56
2903.42
2266.31
2132.58
2697.19
2451.81
2531.78
-2463.55
-2408.92
-2503.53
-1029.12
-1029.28
-1018.83
-1123.95
-844.704
-829.319
-815.85
-959.408
-909.67
-901.619
-588.925
-647.177
-647.01
-472.868
-473.88
-518.461
-5475.21
-5351.22
-5540.68
-5303.26
-5531.46
-5616.92
-5648.5
-5594.62
-5582.45
-5488.05
-5503.32
-5488.21
-5475.69
-5563.99
-5665.83
-5551.86
-5570.1
-5519.88
-5535.49
-5647.09
-4460.5
-4388
-4436.49
-4458.38
-4520.69
-4232.5
-4257.08
-4222.63
-4305.53
-4668.32
-4708.51
-4673.49
-4588.66
-4643.94
-4485.21
-4536.75
-4613.3
-3010.99
-2937.84
-2923.65
-2952.01
-2886.68
-2937.63
-3078.26
-3105.36
-3054.66
-3311.32
-3353.1
-3382.09
1349.42
1282.15
1218.34
1204.15
1183.96
1221.53
1242.73
1230.74
1698.22
1777.06
1829.46
2015.07
1901.1
1589.82
1553.88
1623.84
-5643.38
-5472.06
-5453.53
-5515.59
-5491.89
-5655.8
-5796.77
-5788.79
-5598.23
-5770.63
-5776.03
-5718.17
-5763.91
-5558.07
-5781.88
-5796.95
-5841.76
-5718.08
1176.86
1178.24
1175.83
1178.89
1178.56
1177.92
1193.81
1196.4
1188.97
1191.33
1172.81
1171.98
1164.31
1166.94
1177.86
1174.54
1174.02
1173.29
1169.58
1170.49
1173.37
1174.27
-5176.39
-5091.84
-5121.49
-5023.72
-5057.62
-5138.68
-5299.48
-5225.77
-5295.77
-5148.67
-5180.03
-5260.83
1119.47
1120.57
1120.67
1116.52
1119.3
1117.79
1126.28
1123.7
1131.13
1119.69
1119.73
1122.8
1108.84
1110.46
1109.44
1110.58
1110.91
1108.65
1110.79
1110.39
1113.11
1108.34
1108.51
1109.26
1183.22
1178.69
1172.54
1175.86
1179.84
1167.55
1171.69
1168.72
1192.56
1187.4
1148.42
1145.28
1140.41
1143.12
1146.27
1135.48
1130.76
1134.48
1156.95
1159.23
1163.4
1150.98
1155.1
1152.93
1156.93
1152.83
-3674.06
-3702.52
-3617.5
-3588.08
-3622.96
-4013.81
-4045.24
-4004.92
-4159.59
-4095.94
-4064.38
-3813.73
-3849.83
-3816.33
-3959.91
-3915.33
-3867.53
1096.64
1093.35
1091.96
1096.71
1095.13
1099.05
1102.65
1099.19
1104.64
1107.02
1098.67
1089.46
1086.15
1087.08
1090.94
1090.43
1090.08
1095.71
1091.55
1094.15
1104.43
1102.24
1104.89
1106.7
1108.86
1104.35
1105.38
1103.5
1096.15
1097.49
1094.14
1094.36
-2649.13
-2630.66
-2680.15
-2541.05
-2585.99
-2620.38
-2802.47
-2837.65
-2722.6
-2735.91
-2747.41
-1319.7
-1320.05
-1376.08
-1197.74
-1253.69
-1267.45
1052.76
1045.53
1063.77
1060.16
1032.09
1032.43
1028.73
1035.01
1034.37
1040.76
1037.82
1075.94
1074.09
1073.96
1075.77
1074.69
1076.28
1082.27
1076.09
1075.35
1074.4
1075.27
1079.84
-1818.94
980.483
977.514
989.774
606.951
631.136
703.476
560.335
570.344
543.799
1006.18
347.159
291.826
219.957
1009.94
1011.68
1009.68
-465.046
44.2475
-20.3168
161.786
150.791
161.87
-41.1383
-168.771
-154.035
-50.3519
1006.33
1015.55
1009.17
607.865
581.356
562.204
569.99
528.102
503.789
510.578
447.599
420.354
422.035
333.452
308.648
299.065
186.059
171.18
144.783
18.3901
18.5593
-24.5597
-147.158
-133.098
-186.158
-291.157
-269.104
-322.951
-405.165
-381.269
-429.207
-489.557
-468.063
638.169
620.257
589.469
612.171
579.474
538.572
565.052
508.142
459.571
483.656
390.993
344.525
353.196
220.408
192.421
170.759
14.6127
17.7743
-37.4776
-184.312
-154.125
-228.705
-344.751
-301.679
-377.715
-460.095
-416.165
-482.615
-538.101
-499.391
679.063
674.608
632.512
671.754
656.356
596.282
648.045
608.097
528.897
587.98
497.744
412.009
455.407
287.521
233.289
219.656
1.18026
12.676
-70.2971
-260.461
-198.576
-313.536
-441.224
-363.944
-474.684
-551.338
-478.891
-569.994
-610.88
-554.258
725.178
739.721
690.375
744.506
757.483
679.502
760.429
759.08
640.712
752.664
693.426
536.039
652.067
425.922
312.796
315.907
-51.2024
-5.93664
-163.98
-423.958
-289.963
-486.011
-611.783
-475.767
-637.027
-684.194
-580.513
-693.134
-707.619
-632.837
768.175
802.509
756.148
816.076
864.513
784.828
883.825
952.678
805.26
978.83
1052.29
764.662
1059.18
777.886
483.179
647.359
-297.013
-82.1332
-486.338
-786.856
-489.791
-828.046
-875.796
-667.66
-877.103
-861.676
-724.535
-852.997
-823.694
-735.333
798.736
848.187
816.151
868.183
943.086
888.348
974.681
1102.23
999.465
1161.58
1498.09
1171.91
1400.86
1557.33
1171.25
998.094
-117.011
131.289
-963.08
-1015.08
-795.905
-1403.19
-1232
-958.823
-1183.38
-1060.45
-911.178
-1026.3
-940.574
-853.717
809.761
864.931
855.24
886.811
965.345
954.142
996.616
1109.23
1117.05
1177.62
1244.85
1248.04
1561.31
1650.62
1686.82
-2771.42
-2290.44
-1824.84
-1985.01
-1555.2
-1323.28
-1453.83
-1225.22
-1107.63
-1167.38
-1031.02
-966.908
800.114
853.155
864.417
873.516
942.311
962.781
967.693
1048.34
1096.16
1114.42
1147.1
1173.25
1242.45
1244.7
1273.48
-3598.34
-2934.7
-2799.45
-2168.06
-1677.71
-1608.82
-1559.57
-1292.31
-1252.93
-1224.88
-1066.83
-1045.84
772.618
819.859
846.577
837.709
896.214
932.382
917.201
982.36
1031.73
1038.25
1059.76
1079.15
1124.21
1133.05
1147.46
-3149.21
-2702.14
-2849.73
-1946.6
-1568.3
-1669.91
-1471.01
-1241.23
-1290.19
-1181.14
-1036.92
-1065.38
730.746
770.58
808.893
785.738
835.672
882.363
853.979
914.198
965.911
970.559
991.887
1008.03
1060.05
1071.34
1079.47
-2300.97
-2075.49
-2321.8
-1522.85
-1310.2
-1513.57
-1250.41
-1099.18
-1212.52
-1057.08
-951.196
-1019.92
677.332
708.05
756.116
719.935
759.808
818.271
775.004
829.109
895.258
897.533
922.748
940.861
1011.5
1029.77
1039.09
-1437.64
-1429.9
-1607.57
-1062.86
-1002.92
-1234.5
-980.493
-913.052
-1054.88
-891.534
-831.893
-923.481
615.151
634.536
690.577
641.969
666.553
738.1
675.845
709.918
803.029
794.657
816.297
862.686
927.268
959.473
974.56
-510.713
-591.99
-820.832
-490.084
-649.392
-957.595
-678.529
-723.029
-928.104
-728.088
-726.084
-865.006
-721.74
-702.904
-799.69
548.418
555.358
616
557.622
562.874
642.546
563.768
562.201
676.136
644.425
651.503
716.066
740.348
744.687
827.575
251.826
20.0105
-86.077
-204.959
-382.921
-567.273
-424.605
-511.002
-663.01
-529.807
-565.57
-682.84
-572.241
-581.98
-671.386
480.86
476.576
535.335
474.195
462.662
536.898
456.644
428.748
525.921
415.271
353.352
474.697
324.461
191.511
266.104
137.852
-45.9765
-93.8418
-101.3
-242.151
-339.034
-280.071
-368.397
-469.459
-390.627
-440.59
-530.939
-452.608
-478.175
-554.233
417.095
404.309
457.725
398.68
376.202
439.634
366.41
328.472
400.682
312.86
249.667
322.06
225.331
130.874
172.738
96.5507
-23.2167
-37.6461
-61.1028
-165.173
-218.249
-195.604
-273.149
-341.168
-294.555
-346.656
-414.724
-360.399
-392.632
-455.267
359.74
341.778
387.71
334.396
307.102
357.338
296.082
257.006
308.283
241.969
185.671
230.884
166.222
94.7767
120.199
69.8849
-15.5639
-20.508
-43.0749
-121.554
-152.015
-145.558
-209.814
-254.835
-228.53
-276.692
-327.023
-290.218
-324.025
-373.923
309.698
289.298
327.747
281.266
252.973
292.304
242.088
205.356
242.539
191.696
143.295
173.502
127.572
71.2477
87.9891
51.9706
-12.688
-14.5805
-33.6706
-94.648
-113.664
-113.782
-166.609
-197.497
-182.545
-225.087
-262.326
-237.526
-269.883
-309.285
266.705
245.72
277.626
237.702
210.398
241.369
200.237
166.988
194.715
154.857
113.598
134.916
100.642
54.9755
66.6336
39.4617
-11.4333
-12.2836
-28.0241
-76.6757
-89.5111
-92.1761
-135.824
-157.966
-149.296
-186.168
-214.345
-197.247
-226.869
-258.219
229.978
209.534
236.039
201.896
176.513
201.208
167.291
137.69
158.939
127.021
91.8423
107.545
80.9877
43.2381
51.69
30.4458
-10.7202
-11.2264
-24.18
-63.821
-73.0815
-76.5681
-112.93
-129.489
-124.327
-156.059
-177.934
-165.776
-192.267
-217.538
198.594
179.325
201.473
172.246
149.15
169.131
140.91
114.758
131.443
105.417
75.34
87.3015
66.1273
34.4989
40.8159
23.7805
-10.1561
-10.5734
-21.2756
-54.0918
-61.1497
-64.7045
-95.2403
-108.097
-104.912
-132.168
-149.583
-140.626
-164.012
-184.692
171.681
153.906
172.562
147.461
126.73
143.133
119.434
96.4191
109.797
88.2639
62.4701
71.8304
54.5761
27.8293
32.6646
18.7529
-9.59896
-10.0191
-18.9026
-46.3852
-52.0065
-55.3053
-81.1185
-91.4236
-89.3544
-112.765
-126.95
-120.099
-140.586
-157.767
148.478
132.329
148.184
126.533
108.102
121.755
101.675
81.4809
92.4034
74.3725
52.2009
59.6908
45.3932
22.6365
26.4104
14.8982
-9.00344
-9.45443
-16.8553
-40.0568
-44.6925
-47.6053
-69.5337
-78.0156
-76.5656
-96.6787
-108.469
-103.025
-120.883
-135.362
128.351
113.848
127.443
108.687
92.418
103.933
86.7777
69.1141
78.1747
62.9286
43.8491
49.955
37.9565
18.5261
21.5195
11.903
-8.36274
-8.84743
-15.0256
-34.7132
-38.6403
-41.1285
-59.8143
-66.9496
-65.8277
-83.1055
-93.0754
-88.5848
-104.09
-116.451
110.774
97.8772
109.64
93.3204
79.049
88.8795
74.1192
58.7268
66.3511
53.3571
36.9432
42.0025
31.8366
15.2253
17.6334
9.54896
-7.68428
-8.19632
-13.3535
-30.1017
-33.4994
-35.5648
-51.5065
-57.6193
-56.6496
-71.4757
-80.0342
-76.1953
-89.606
-100.284
95.3178
83.9564
94.2208
79.9653
67.5246
76.0108
63.2381
49.8877
56.3862
45.2429
31.1491
35.4017
26.7288
12.5403
14.5023
7.67993
-6.97972
-7.51019
-11.8046
-26.0538
-29.0422
-30.7048
-44.2944
-49.6108
-48.6865
-61.3783
-68.8211
-65.4298
-76.9781
-86.3
81.6282
71.7153
80.7514
68.2497
57.4839
64.8875
53.7819
42.2738
47.8803
38.2768
26.222
29.8445
22.4095
10.3295
11.9475
6.18162
-6.2606
-6.80095
-10.3572
-22.4511
-25.1152
-26.4002
-37.9495
-42.6342
-41.687
-52.5066
-59.0555
-55.9678
-65.8564
-74.0767
69.4098
60.8547
68.8808
57.8756
48.645
55.171
45.4759
35.6379
40.5314
32.2239
21.9783
25.1034
18.7107
8.48721
9.83757
4.96867
-5.53676
-6.0798
-8.99682
-19.2073
-21.6093
-22.5422
-32.3015
-36.4777
-35.4628
-44.6265
-50.4513
-47.5625
-55.9659
-63.2846
58.4153
51.1299
58.3256
48.6013
40.783
46.5957
38.1023
29.7874
34.1085
26.902
18.277
21.0072
15.5035
6.93277
8.07403
3.97628
-4.81593
-5.3561
-7.71257
-16.2569
-18.4444
-19.0479
-27.2193
-30.9823
-29.8681
-37.5542
-42.7889
-40.0198
-47.0862
-53.6649
48.4329
42.336
48.8515
40.226
33.7138
38.9479
31.4834
24.5673
28.4289
22.1651
15.0068
17.4232
12.686
5.60327
6.58115
3.15414
-4.1036
-4.63695
-6.49539
-13.5475
-15.5588
-15.8512
-22.598
-26.0244
-24.7862
-31.141
-35.8942
-33.1814
-39.0352
-45.0071
39.2809
34.3003
40.2622
32.5812
27.2849
32.0521
25.4727
19.8514
23.3457
17.895
12.078
14.246
10.1762
4.44878
5.29966
2.4627
-3.40344
-3.92739
-5.33727
-11.0366
-12.9027
-12.8982
-18.352
-21.5043
-20.1216
-25.2642
-29.6257
-26.9166
-31.6609
-37.1375
30.7997
26.8733
32.3919
25.5217
21.3658
25.7621
19.945
15.5329
18.7385
13.9917
9.4159
11.3904
7.90604
3.42853
4.18224
1.87007
-2.71739
-3.23065
-4.23037
-8.68736
-10.4355
-10.1431
-14.4087
-17.3403
-15.7933
-19.8195
-23.8662
-21.1139
-24.8321
-29.9101
22.8498
19.9255
25.0962
18.9218
15.8434
19.9522
14.7921
11.5197
14.5046
10.3694
6.95616
8.78456
5.81744
2.50866
3.19003
1.35029
-2.04574
-2.54825
-3.16674
-6.46762
-8.12147
-7.54571
-10.7057
-13.4626
-11.7319
-14.7174
-18.515
-15.6775
-18.4358
-23.1986
15.3076
13.3426
18.2497
12.6703
10.6159
14.5128
9.91569
7.72723
10.5543
6.94905
4.63976
6.36609
3.85744
1.66068
2.29058
0.882633
-1.38623
-1.87998
-2.13699
-4.34746
-5.92937
-5.0696
-7.18745
-9.8108
-7.87562
-9.87885
-13.4858
-10.523
-12.3716
-16.8933
8.07348
7.02814
11.7421
6.67111
5.58818
9.34399
5.22183
4.07305
6.80425
3.65415
2.40471
4.07616
1.97083
0.864832
1.45694
0.455257
-0.732596
-1.22266
-1.12948
-2.2989
-3.82962
-2.68133
-3.80446
-6.33074
-4.16987
-5.23474
-8.70197
-5.57692
-6.55539
-10.8971
1.40731
1.18431
5.47868
1.11096
0.874012
4.34781
0.786901
0.493505
3.17012
0.395303
0.457351
1.8379
0.40952
-0.0195797
0.678189
-0.0851135
-0.233826
-0.565691
-0.289235
-0.462126
-1.79224
-0.521061
-0.699274
-2.97209
-0.758753
-0.937798
-4.09413
-0.997587
-1.19004
-5.12655
1309.3
1353.27
1339.25
-3575.03
-3976.69
-4163.98
-2246.81
-2622.76
-2446.97
1152.33
1166.76
1155.95
-3771.68
-4132.87
-4001.91
-4202.75
-4277.01
-3839.73
1082.66
1092.7
1080.1
-2977.55
-3185.73
-2982.98
-3948.74
-3778.44
-3530.11
1042.24
1050.22
1031.47
-2028.78
-2087.82
-1963.8
-2856.3
-2725.09
-2620.41
979.359
993.545
965.248
-877.763
-870.916
-823.436
-874.912
-961.202
-953.122
-1347.11
-1380.9
-990.134
-1840.38
-1717.65
-1682.46
852.735
891.911
844.6
185.919
443.883
581.435
-764.793
-612.592
-664.087
58.436
-13.8114
116.151
-593.759
-442.941
-215.586
-867.718
-537.356
-667.097
2070.93
1710.47
1465.34
3803.4
4209.51
4741.79
1137.77
1591.9
1320.57
1118.79
2632
-1545.8
-1522
-1871.07
-40.4955
-390.868
-877.326
-4496.26
-4667.97
-4769.22
-2553.77
-3035.45
-2867.48
-2741.37
-2413.76
-2970.5
-2045.47
-2271.17
-2450.15
-1797.09
-2048.75
-1869.55
1100.03
1122.63
1094.5
1177.42
1147.46
1112.15
1208.95
1163.77
1194.33
-5228.74
-5358.86
-5340.09
-5453.42
-5451.55
-5309.04
-2899.18
-2930.66
-3590.05
-2397.48
-2681.31
-2664.66
-2578.16
-2654.25
-2367.05
1024.48
1041.63
1020.82
1087.1
1059.56
1035.85
1099
1070.69
1095.96
1113.71
1128
1114.47
1134.43
1130.7
1125.44
1161.24
1156.9
1162.33
-4015.29
-4071.93
-4022.56
-4741.76
-4700.08
-4617.93
-2410.61
-2625.33
-3051.3
-2208.74
-2416.69
-2290.27
-2610.52
-2525.53
-2293.32
958.811
975.645
953.624
1030.78
995.076
973.281
1025.93
1004.77
1037.04
1062.04
1068.73
1054.19
1086.83
1080.45
1079.31
1092.09
1089.53
1093.3
-2758.97
-2809.75
-2729.47
-3340.95
-3213.93
-3154.1
876.394
911.499
875.795
970.434
924.975
890.295
962.693
935.08
979.468
1015.21
1026.23
1003.98
1057.41
1045.53
1039.13
1062.32
1059.42
1068.11
-1563.79
-1610.97
-1620.37
-1713.52
-1771.78
-1532.92
-2034.25
-1958.2
-1932.35
740.005
798.221
760.98
865.934
811.827
750.865
876.878
830.197
884.052
936.46
954.173
918.839
997.687
992.17
991.198
1013.34
1011.09
1016.61
399.776
579.503
615.472
325.301
540.306
378.404
557.292
520.333
365.645
1482.84
1444.18
1544.93
1233.99
1265.26
1286.75
2126.77
2251.69
2321.93
1610.77
1702.79
1693.42
-5283.83
-5439.41
-5451.19
-4854.93
-4934.11
-4767.72
-3566.14
-3895.49
-3420
-4627.17
-4347.16
-4209.35
-4818
-4774.1
-5093.92
1177.37
1169.58
1156.41
1190.72
1174.24
1179.42
1168.44
1172.32
1186.07
1183.66
1181.08
1182.56
1184.31
1184.57
1176.58