/*--------------------------------*- C++ -*----------------------------------*\
| =========                 |                                                 |
| \\      /  F ield         | OpenFOAM: The Open Source CFD Toolbox           |
|  \\    /   O peration     | Version:  v1912                                 |
|   \\  /    A nd           | Website:  www.openfoam.com                      |
|    \\/     M anipulation  |                                                 |
\*---------------------------------------------------------------------------*/
FoamFile
{
    version     2.0;
    format      ascii;
    class       surfaceScalarField;
    location    "500";
    object      phi;
}
// * * * * * * * * * * * * * * * * * * * * * * * * * * * * * * * * * * * * * //

dimensions      [0 3 -1 0 0 0 0];
oriented        oriented;


internalField   nonuniform List<scalar> 
25162
(
0.000432788
0.916217
0.000531593
0.916601
0.000619782
0.916562
0.000298168
0.916596
0.000375925
0.458339
0.000309386
0.458311
0.000375581
-0.000386875
-0.000474107
0.458291
0.000533279
-0.000592033
0.45824
0.000687501
-0.000790516
0.458219
0.000901181
-0.00102794
0.4582
0.00116324
-0.00129793
0.458202
0.00143043
-0.00155857
0.458232
0.00165796
-0.00173333
0.458292
0.00177475
-0.00177662
0.458369
0.0017431
-0.00167839
0.458425
0.00158304
-0.00147496
0.458454
0.00135625
-0.00122336
0.458456
0.00110222
-0.000981394
0.458464
0.000832226
-0.000785544
0.458435
0.000700209
-0.000577665
0.458451
0.000476396
-0.00179893
0.918585
0.000282511
-0.000418697
-0.00112487
0.918676
-2.51716e-05
0.91575
0.913775
0.00119455
0.915023
0.00188599
0.91591
0.00212771
0.91632
0.000592417
0.91714
0.000991443
0.458091
0.000705222
-0.458204
-0.458193
-0.000858312
0.458001
0.00105098
-0.458062
-0.00129015
0.457771
0.000743073
0.00083819
-0.228982
-0.00089572
0.228896
0.000982572
-0.00129743
-0.22893
0.228817
0.00141129
-0.00180544
-0.228887
0.228741
0.00195175
-0.00239762
-0.228882
0.228725
0.00255484
-0.0029705
-0.22893
0.228795
0.00310593
-0.00338244
-0.229045
0.228976
0.00345144
-0.00349532
-0.229193
0.229207
0.00348142
-0.00327813
-0.229312
0.229397
0.00319286
-0.00283182
-0.22938
0.229505
0.00270694
-0.00228969
-0.22939
0.229522
0.00215758
-0.00176727
-0.22937
0.229482
0.00165528
-0.458793
-0.00244794
0.460125
0.00111639
0.000105475
0.460812
-0.00171779
-0.4592
-0.00196075
0.917898
0.000747216
0.00190063
-0.00119031
0.917906
0.000263902
0.914296
0.914039
0.00151716
0.913505
0.00405535
0.913372
0.00683942
0.913536
0.00278645
0.914959
0.00623328
-0.458067
0.457913
0.00293989
-0.457839
-0.00289919
0.458515
0.00222338
-0.457379
-0.00227289
0.457191
0.0011943
0.00126682
-0.228526
-0.00147731
0.228366
0.00163773
-0.228312
-0.00221486
0.228087
0.00244003
-0.228122
-0.00320821
0.227842
0.00348768
-0.228057
-0.00440362
0.227743
0.00471805
-0.22824
-0.00562215
0.227978
0.00588414
-0.228721
-0.00650364
0.228595
0.006629
-0.229342
-0.00674128
0.229404
0.00667874
-0.229862
-0.00626946
0.230066
0.00606546
-0.230123
-0.00532264
0.230403
0.00504256
-0.230148
-0.00420385
0.230427
0.00392467
-0.00286213
-0.230079
0.230695
0.00224607
-0.462616
0.000978864
0.461276
0.00036116
-0.459813
-0.0006466
0.459683
0.000777094
-0.000321627
0.919379
-0.000742684
-0.000417005
0.00134264
0.916241
0.000629868
0.915009
0.914669
0.000525965
0.91298
0.00114039
0.912757
0.00233366
0.912343
0.00312692
0.912064
0.00210243
-0.457179
0.456767
0.0035387
-0.460091
-0.00471701
0.457082
0.0077257
-0.458713
-0.00893606
0.460323
0.00197847
0.00534705
-0.227777
-0.00192603
0.227596
0.00210642
-0.227261
-0.00291911
0.226936
0.00324405
-0.226757
-0.00440189
0.226314
0.00484478
-0.226519
-0.00630235
0.225992
0.0068291
-0.226874
-0.00843009
0.226374
0.00892988
-0.228053
-0.010136
0.227802
0.0103872
-0.229661
-0.0105754
0.22979
0.0104462
-0.230931
-0.0096091
0.231319
0.00922132
-0.231494
-0.00787947
0.231985
0.00738761
-0.2338
-0.00118708
0.237675
-0.0026875
-0.00280657
-0.231368
0.231305
0.00287017
-0.461062
-0.00436305
0.462042
0.00338328
-0.460265
-0.00236509
0.461095
0.00153521
0.00243466
0.919031
-0.00114653
-0.00093969
0.00177594
0.9169
0.000825542
0.915959
0.915494
0.0001568
0.912823
0.000359434
0.912554
0.00070341
0.911999
0.00126667
0.911041
0.000459351
-0.456517
0.455744
0.00203893
-0.455698
-0.00243022
0.455111
0.00301705
-0.454293
-0.00382395
0.453588
0.00240235
0.00212723
-0.228307
-0.00419876
0.22647
0.0060353
-0.226587
-0.00918887
0.228374
0.00740165
-0.224767
-0.00521175
0.224245
0.00573392
-0.223972
-0.00787928
0.223126
0.0087249
-0.22428
-0.0115312
0.223316
0.0124955
-0.226724
-0.014936
0.226211
0.0154491
-0.230404
-0.0156735
0.230898
0.0151801
-0.232962
-0.0121108
0.233882
0.0111905
-0.24129
-0.00115636
0.238027
0.00441929
-0.233192
-0.00649778
0.233718
0.00597249
-0.0043976
-0.232446
0.232893
0.00395073
-0.463455
-0.00515407
0.464786
0.00382309
-0.461857
-0.00290551
0.46264
0.00212306
0.00321875
0.920566
-0.00275185
-0.0020016
0.00178453
0.918334
0.000815139
0.916929
0.916309
-9.55877e-05
0.912918
-9.9875e-05
0.912559
0.000125207
0.911774
0.000282258
0.910603
0.000280881
-0.45488
0.454596
0.000566404
-0.454642
-0.00150352
0.453912
0.00223417
-0.452843
-0.00273686
0.451891
0.00181303
0.00187535
-0.225298
-0.00228425
0.225052
0.00253064
-0.223685
-0.00358306
0.223228
0.00404015
-0.223894
-0.00781032
0.221594
0.0101112
-0.22161
-0.0141453
0.22225
0.0135057
-0.219663
-0.0169346
0.219354
0.0172438
-0.22388
-0.0223236
0.222838
0.0233659
-0.234643
-0.0205287
0.235087
0.0200841
-0.243555
-0.0102932
0.241352
0.0124965
-0.236939
-0.0117557
0.238092
0.0106034
-0.235845
-0.0075927
0.23675
0.00668799
-0.00400219
-0.234673
0.235151
0.00352382
-0.465914
-0.0054617
0.467062
0.00431361
-0.463037
-0.00348295
0.463396
0.0031238
0.00272334
0.922469
-0.00226419
-0.00236246
0.00151128
0.919546
0.000624655
0.917815
0.916934
-0.000475981
0.913394
-0.000826137
0.912909
-0.00103209
0.91198
1.94892e-05
0.91026
-0.000708858
-0.454467
0.454181
0.000306379
-0.452893
-0.000529635
0.452544
0.000878251
-0.451563
-0.00181983
0.451192
0.00104515
0.00114609
-0.224262
-0.00140959
0.224049
0.00162253
-0.22218
-0.00250314
0.221756
0.00292774
-0.218841
-0.0041913
0.218293
0.00473877
-0.215405
-0.00797839
0.213223
0.0101597
-0.213874
-0.022968
0.108981
0.103519
0.0101391
0.0142036
-0.0179429
-0.108767
0.108147
0.0185632
-0.0148955
-0.244118
0.0286145
-0.0151637
0.122344
0.123219
-0.0217509
-0.244008
0.246821
0.0189371
-0.242644
-0.0117783
0.244141
0.0102807
-0.239367
-0.00741209
0.240245
0.00653361
-0.00437947
-0.236589
0.237161
0.00380708
-0.468216
-0.00480813
0.468858
0.00416604
-0.464211
-0.00314623
0.465028
0.00232896
0.00165966
0.923906
-0.00144516
-0.00165134
0.000790126
0.920416
0.000299318
0.918306
0.917233
-0.000869242
0.914264
-0.00168619
0.913726
-0.00230906
0.912602
-0.00116605
0.91082
-0.0017029
-0.45414
0.454145
-0.00117103
-0.452391
0.00121896
0.452294
-0.00112153
-0.449916
0.000963555
0.449635
-0.000295405
-0.00038726
-0.223564
-0.00027604
0.223464
0.000375681
-0.22097
-0.000550557
0.221052
0.000467899
-0.217142
-0.000769756
0.216899
0.00101272
-0.210531
-0.00188623
0.210291
0.00212684
-0.0987941
-0.00166414
0.0990141
0.00144417
-0.0232936
-0.13251
0.134949
0.0208553
-0.0213924
-0.256443
0.25973
0.0181054
-0.248886
-0.0113261
0.250461
0.00975169
-0.243191
-0.00631131
0.244067
0.00543517
-0.00339018
-0.238818
0.239286
0.00292203
-0.469901
-0.00311729
0.470768
0.00225078
-0.465697
-0.00163131
0.46628
0.0010491
-0.000112432
0.924625
-6.14542e-05
-0.000545439
-0.000290162
0.920594
-0.000192173
0.918208
0.917041
-0.00125236
0.915516
-0.00243075
0.914904
-0.00367324
0.913845
-0.00211977
0.911903
-0.00263606
-0.454322
0.454499
-0.00229666
-0.452362
0.0024964
0.452549
-0.00268245
-0.449522
0.00284968
0.449673
-0.00139934
-0.00160151
-0.223649
0.00166025
0.223685
-0.00169624
-0.220951
0.0018462
0.22101
-0.00190471
-0.216844
0.0021619
0.216984
-0.00230116
-0.211057
0.00305079
0.211513
-0.00350713
-0.102538
0.00302889
0.102922
-0.00341335
-0.0105617
-0.147802
0.14859
0.00977358
-0.010062
-0.26754
0.269073
0.00852913
-0.254303
-0.00514806
0.255101
0.00434942
-0.245925
-0.002523
0.246293
0.00215518
-0.00122653
-0.240359
0.2406
0.000986139
-0.471912
-0.000628155
0.472878
-0.000337507
-0.466581
0.000792935
0.466782
-0.000993702
-0.00228528
0.924206
0.00155115
0.0011531
-0.00163634
0.919945
-0.000856344
0.917428
0.916185
-0.0015981
0.917114
-0.00330185
0.916608
-0.00492749
0.915471
-0.00306349
0.913619
-0.0035806
-0.454857
0.455215
-0.00342103
-0.452806
0.00382674
0.453276
-0.00429741
-0.449985
0.00473605
0.45055
-0.00247801
-0.00282373
-0.223977
0.0029465
0.22412
-0.00308917
-0.22142
0.00360766
0.221623
-0.00381102
-0.21766
0.00452161
0.217949
-0.00481096
-0.212879
0.00586547
0.2133
-0.00628649
-0.104294
0.00378084
0.104401
-0.00193558
-0.00195247
0.00553981
-0.147983
0.147257
-0.00481433
0.00514474
-0.269983
0.26919
-0.00435214
-0.255764
0.00293939
0.255494
-0.00266882
-0.246764
0.00211731
0.246635
-0.00198826
0.00165878
-0.240818
0.240749
-0.00158974
-0.472911
0.00312544
0.472519
-0.00273348
-0.466654
0.00268864
0.467066
-0.00310057
-0.00470856
0.922596
0.00342136
0.00289716
-0.0031046
0.918341
-0.00157781
0.915901
0.914607
-0.00203067
0.919145
-0.00404382
0.918621
-0.00618146
0.917608
-0.00397634
0.915883
-0.0044687
-0.455747
0.456277
-0.00450657
-0.45381
0.00515348
0.454396
-0.0057392
-0.451459
0.00642143
0.452601
-0.00369243
-0.00387034
-0.2247
0.00408856
0.224933
-0.00432158
-0.222381
0.0051188
0.222677
-0.00541474
-0.218933
0.00641336
0.219299
-0.00677881
-0.21448
0.00793808
0.214862
-0.00832068
-0.104994
0.00459475
0.105048
-0.00231307
-0.00233537
0.0148654
-0.140198
0.139033
-0.0137002
0.0168495
-0.264466
0.262281
-0.0146642
-0.253323
0.0099827
0.252241
-0.00890131
-0.245558
0.00653698
0.244921
-0.0059001
0.00451311
-0.240054
0.239745
-0.0042042
-0.471816
0.00674691
0.47084
-0.00577084
-0.467359
0.00489969
0.466573
-0.00411373
-0.00696264
0.920002
0.00493933
0.00461755
-0.00453866
0.915917
-0.00223471
0.913597
0.912372
-0.0024262
0.921571
-0.0048608
0.921056
-0.00741352
0.920161
-0.00479551
0.918464
-0.00519866
-0.456963
0.457646
-0.00547925
-0.455178
0.00624039
0.455994
-0.00705676
-0.453712
0.00794036
0.454981
-0.00453026
-0.00467915
-0.225736
0.00505051
0.226038
-0.00535177
-0.223687
0.0063512
0.224064
-0.00672845
-0.22052
0.0079641
0.220973
-0.00841695
-0.216106
0.00984858
0.216582
-0.0103247
-0.105402
0.0057075
0.105466
-0.00286771
-0.00290321
0.018405
-0.130983
0.12981
-0.0172321
0.0226656
-0.255212
0.252821
-0.020274
-0.248407
0.0145731
0.246994
-0.01316
-0.242425
0.00976373
0.241392
-0.00873058
0.00673396
-0.238154
0.237535
-0.00611543
-0.469632
0.009804
0.468197
-0.00836948
-0.465723
0.00711886
0.464664
-0.00606021
-0.00900962
0.918106
0.00570036
0.00520544
-0.00579951
0.912707
-0.00281288
0.910611
0.909559
-0.00645886
0.92803
-0.0130796
0.927676
-0.0197784
0.92686
-0.00571918
0.925565
-0.0211609
-0.458406
0.459274
-0.0065874
-0.456838
0.00749037
0.457858
-0.0085107
-0.456184
0.00950591
0.457054
-0.00514338
-0.00523222
-0.227008
0.00578893
0.227347
-0.00612809
-0.225279
0.00727999
0.225711
-0.00771213
-0.222472
0.00917518
0.223018
-0.00972068
-0.218321
0.0115698
0.219017
-0.00609642
-0.00616973
-0.0531664
0.00355243
0.0531984
-0.00358446
-0.0578716
0.00663888
0.0573877
-0.0129517
0.00679671
0.0170831
-0.122713
0.242138
-0.0306784
0.0168191
-0.122648
-0.246117
0.0233181
0.243703
-0.0209046
-0.242218
0.016088
0.240745
-0.0146153
-0.238595
0.0112379
0.23767
-0.0103129
0.00801059
-0.23553
0.234888
-0.00736842
-0.466445
0.0118816
0.46469
-0.0101266
-0.463561
0.00882884
0.462363
-0.00763024
-0.0106265
0.915026
0.00712133
0.00658475
-0.00683445
0.908915
-0.00336428
0.907141
0.906195
-0.00289347
0.930923
-0.00586639
0.930649
-0.00899793
0.929991
-0.00611762
0.928969
-0.00628426
-0.462064
0.462963
-0.00701649
-0.460679
0.00799762
0.461732
-0.00905041
-0.458896
0.0101939
0.460152
-0.0056883
-0.00576198
-0.22848
0.0063667
0.228853
-0.00673989
-0.227142
0.007989
0.227614
-0.00846085
-0.224939
0.0100913
0.225569
-0.0107216
-0.221925
0.012996
0.222869
-0.00694532
-0.00699491
-0.0546818
0.00886044
0.109757
-0.0546012
-0.00463969
-0.00469491
-0.11145
0.00931765
0.111401
-0.0183539
0.00908451
0.0305675
-0.235868
0.234035
-0.0287345
-0.237698
0.0194613
0.236427
-0.01819
-0.23738
0.0149525
0.236823
-0.0143955
-0.235157
0.0111951
0.234527
-0.0105649
0.00834568
-0.233047
0.232487
-0.00778634
-0.463191
0.0126453
0.461893
-0.0113477
-0.461149
0.0100758
0.459693
-0.00862013
-0.0100049
0.911166
0.00687125
0.00699385
-0.00748995
0.9064
-0.00366302
0.903314
0.902532
-0.00304023
0.933963
-0.00616138
0.933771
-0.00943957
0.933269
-0.00644303
0.932511
-0.00653795
-0.46392
0.464873
-0.00739584
-0.46281
0.00842019
0.463902
-0.00951178
-0.461428
0.0106897
0.462711
-0.0059713
-0.00600211
-0.229994
0.00667628
0.230374
-0.00705678
-0.229044
0.00831539
0.229512
-0.00878334
-0.227496
0.0104128
0.228124
-0.011041
-0.225798
0.0132916
0.22671
-0.0142038
-0.112811
0.0175715
0.223973
-0.0168518
-0.111882
-0.225634
0.0228158
0.226218
-0.023399
-0.230656
0.0228981
0.230021
-0.022263
-0.232683
0.0197041
0.23174
-0.018761
-0.232681
0.0159586
0.231791
-0.0150685
-0.231729
0.0126022
0.230981
-0.0118533
0.0098259
-0.232115
0.229879
-0.00758932
-0.460786
0.0143396
0.458012
-0.0115653
-0.458194
0.0103934
0.45645
-0.00864946
-0.01036
0.907405
0.00712482
0.00699564
-0.0075246
0.903564
-0.00385775
0.899647
0.898674
-0.00311154
0.937075
-0.00629913
0.936958
-0.00963073
0.936601
-0.00658604
0.936082
-0.00661649
-0.465845
0.466812
-0.00755301
-0.464995
0.00857855
0.466078
-0.00966191
-0.463985
0.0108207
0.465234
-0.00603823
-0.00603099
-0.231496
0.00672357
0.231859
-0.00708619
-0.23086
0.00826619
0.231287
-0.00869352
-0.229884
0.0101155
0.230417
-0.0106478
-0.228998
0.0124039
0.229626
-0.0130317
-0.22185
0.0147003
0.221265
-0.014115
-0.227522
0.0173972
0.227841
-0.0177166
-0.228852
0.0177397
0.228612
-0.0175
-0.229606
0.0162556
0.229075
-0.0157248
-0.229565
0.0139634
0.228954
-0.0133522
-0.228996
0.0115448
0.228417
-0.0109656
0.00932982
-0.22821
0.227702
-0.00882199
-0.457603
0.0147856
0.455216
-0.0123981
-0.453854
0.00927618
0.452543
-0.0079655
-0.00956632
0.902163
0.00766233
0.00714614
-0.00511203
0.89911
-0.00391419
0.898449
0.89476
-0.00311362
0.940189
-0.0062943
0.940139
-0.00959847
0.939905
-0.00656558
0.939588
-0.00653869
-0.467766
0.468716
-0.00751578
-0.467142
0.00850837
0.468179
-0.00954533
-0.466445
0.0106413
0.467608
-0.00591918
-0.0058855
-0.232898
0.00655351
0.233226
-0.00688131
-0.232482
0.0079214
0.232848
-0.00828737
-0.231821
0.00944867
0.232228
-0.00985618
-0.231201
0.0111184
0.231638
-0.0115552
-0.219958
0.0122706
0.219659
-0.0119711
-0.228547
0.0140542
0.228717
-0.014225
-0.228124
0.0142841
0.22801
-0.0141701
-0.227845
0.0134857
0.227527
-0.0131679
-0.227442
0.0120395
0.227027
-0.0116247
-0.226907
0.0103324
0.226472
-0.00989807
0.00862337
-0.22634
0.225926
-0.00820995
-0.451822
0.0139613
0.450373
-0.0125126
-0.45122
0.0111255
0.449885
-0.00979066
-0.00880049
0.896005
0.00838449
0.00657453
-0.00474264
0.895052
-0.00356143
0.897268
0.891199
-0.00305734
0.943246
-0.00616998
0.943251
-0.0093807
0.943116
-0.00640904
0.942954
-0.00633776
-0.469626
0.470537
-0.00731914
-0.469182
0.00825514
0.470148
-0.00922098
-0.468718
0.010228
0.469769
-0.00566638
-0.00561293
-0.234147
0.00623345
0.234433
-0.00651938
-0.233847
0.00740217
0.234148
-0.00770331
-0.233293
0.00862113
0.233601
-0.00892907
-0.23274
0.00984878
0.233048
-0.0101569
-0.219093
0.0103885
0.218997
-0.0102924
-0.229098
0.0117027
0.229191
-0.0117955
-0.227748
0.0118237
0.227679
-0.0117545
-0.226764
0.0113273
0.226559
-0.0111219
-0.225988
0.0103631
0.225698
-0.0100734
-0.225342
0.00913625
0.225016
-0.00880996
0.00781944
-0.224828
0.224495
-0.00748658
-0.449031
0.0128979
0.447791
-0.0116581
-0.448641
0.0104446
0.44745
-0.00925288
-0.0117387
0.891758
0.0079041
0.00808136
-0.00770894
0.891022
-0.000981179
0.89054
0.890218
-0.00295429
0.9462
-0.00595099
0.946248
-0.00901911
0.946184
-0.00614935
0.946131
-0.00604632
-0.471388
0.472243
-0.00700402
-0.471071
0.0078698
0.471954
-0.00875194
-0.47076
0.00965896
0.471692
-0.00532874
-0.00526151
-0.235228
0.00582526
0.235472
-0.00606987
-0.234963
0.00680628
0.235208
-0.00705064
-0.234407
0.00777228
0.234642
-0.00800712
-0.233831
0.00869351
0.234051
-0.00891385
-0.218918
0.00891045
0.218947
-0.00894032
-0.229397
0.00992689
0.229447
-0.00997651
-0.227503
0.0099739
0.227453
-0.00992309
-0.226047
0.00962542
0.225904
-0.00948228
-0.224959
0.00894362
0.224749
-0.00873347
-0.224161
0.00803606
0.223912
-0.00778698
0.00701084
-0.223614
0.223346
-0.00674251
-0.446648
0.0117426
0.445597
-0.0106911
-0.446352
0.00964174
0.445303
-0.00859256
-0.0110042
0.88789
0.00733298
0.00753915
-0.00726167
0.88728
-0.00360436
0.886883
0.886613
-0.00281675
0.949017
-0.00566332
0.949095
-0.00855614
0.949077
-0.00581881
0.949089
-0.00569549
-0.473028
0.473819
-0.00660978
-0.472791
0.00739976
0.473586
-0.00819493
-0.472564
0.00900171
0.473379
-0.00494464
-0.00487266
-0.236148
0.00537456
0.236355
-0.00558198
-0.235868
0.0061929
0.236066
-0.00639095
-0.235262
0.00696238
0.235445
-0.00714475
-0.234612
0.00766951
0.23477
-0.00782753
-0.219158
0.00771873
0.21926
-0.0078205
-0.229553
0.00852343
0.229578
-0.00854761
-0.227315
0.00852265
0.227273
-0.00848065
-0.225535
0.00825486
0.225428
-0.0081484
-0.224203
0.00774654
0.224045
-0.00758817
-0.223253
0.00705416
0.223059
-0.00686011
0.00624336
-0.222636
0.222418
-0.00602537
-0.444629
0.0105894
0.443739
-0.00969896
-0.444343
0.00879569
0.443425
-0.0078783
-0.0101773
0.884404
0.00672317
0.00694024
-0.00674599
0.883848
-0.0033577
0.883494
0.883255
-0.00265651
0.951673
-0.00533145
0.95177
-0.00803056
0.951776
-0.00544647
0.951817
-0.00531175
-0.474534
0.475258
-0.00617099
-0.474338
0.00688536
0.475049
-0.00759637
-0.474141
0.00830902
0.474851
-0.00454539
-0.0044741
-0.236927
0.00491602
0.237103
-0.00509159
-0.236602
0.00559922
0.236764
-0.0057607
-0.235931
0.00621918
0.236076
-0.00636381
-0.235171
0.00677332
0.235284
-0.00688593
-0.21963
0.00673938
0.219768
-0.00687827
-0.229624
0.00738435
0.229633
-0.00739289
-0.227155
0.00735292
0.227118
-0.00731591
-0.225147
0.00713369
0.225063
-0.00705027
-0.223626
0.0067374
0.223502
-0.00661383
-0.22254
0.00619348
0.222386
-0.00603898
0.00554078
-0.221839
0.22166
-0.00536167
-0.442919
0.00949299
0.442163
-0.00873678
-0.442589
0.00795919
0.441789
-0.00715891
-0.00931892
0.881283
0.0061118
0.00632794
-0.00620097
0.880731
-0.00309387
0.880387
0.880162
-0.00248327
0.954157
-0.00497524
0.954262
-0.00747306
0.954274
-0.00505368
0.954314
-0.00491629
-0.475905
0.476564
-0.00571245
-0.475719
0.00635465
0.476351
-0.00698741
-0.475514
0.00761477
0.476132
-0.00415024
-0.00408234
-0.237587
0.00446958
0.237736
-0.00461848
-0.237203
0.00504247
0.237336
-0.00517537
-0.236466
0.00554883
0.236583
-0.00566592
-0.235569
0.00599039
0.235648
-0.0060696
-0.220214
0.00592002
0.220368
-0.00607461
-0.229642
0.00644048
0.229641
-0.00643904
-0.227013
0.00638938
0.226979
-0.00635566
-0.224838
0.00620216
0.22477
-0.00613409
-0.223171
0.00588188
0.223071
-0.00578259
-0.221969
0.00544348
0.221843
-0.00531797
0.00490899
-0.221183
0.221034
-0.00476006
-0.441464
0.00847782
0.440819
-0.00783241
-0.44106
0.00716142
0.440362
-0.00646324
-0.00847004
0.878501
0.0055235
0.00572912
-0.00565485
0.877915
-0.0028273
0.87756
0.877334
-0.00230581
0.956463
-0.00461241
0.956568
-0.00691043
0.956572
-0.00466018
0.956588
-0.00452499
-0.477146
0.477742
-0.00525648
-0.476947
0.00583212
0.477509
-0.00639425
-0.476708
0.00694627
0.477246
-0.00377402
-0.00371013
-0.238148
0.00404979
0.238275
-0.00417666
-0.2377
0.0045335
0.23781
-0.00464415
-0.236902
0.00495332
0.236999
-0.00504991
-0.235846
0.00530995
0.235901
-0.0053646
-0.22084
0.00522881
0.220997
-0.00538644
-0.229626
0.00565072
0.229618
-0.00564275
-0.226882
0.00558703
0.22685
-0.00555575
-0.224583
0.0054225
0.224526
-0.00536521
-0.222801
0.00515603
0.222719
-0.00507422
-0.221501
0.00479468
0.221397
-0.00469082
0.00434988
-0.220636
0.22051
-0.00422454
-0.440221
0.00755879
0.439667
-0.0070044
-0.439727
0.00642297
0.439117
-0.00581256
-0.00766075
0.876024
0.0049732
0.00516429
-0.00512884
0.875383
-0.0025689
0.875
0.874765
-0.00213048
0.958593
-0.00425557
0.958693
-0.00636122
0.958678
-0.00427833
0.958655
-0.0041492
-0.478266
0.478804
-0.00481667
-0.478038
0.00533206
0.478537
-0.00583145
-0.477748
0.00631779
0.478218
-0.0034239
-0.00336341
-0.238627
0.00366293
0.238735
-0.00377169
-0.238115
0.00407464
0.238208
-0.00416789
-0.237264
0.00442784
0.237344
-0.00450873
-0.236036
0.00471896
0.236073
-0.00475557
-0.221466
0.00464081
0.221619
-0.00479431
-0.229587
0.0049839
0.229574
-0.00497153
-0.22676
0.00491222
0.22673
-0.00488291
-0.224366
0.00476478
0.224317
-0.00471543
-0.222495
0.00453796
0.222426
-0.00446913
-0.221112
0.00423442
0.221024
-0.00414709
0.00385892
-0.220174
0.220067
-0.00375224
-0.439152
0.00673698
0.438672
-0.0062576
-0.438562
0.00575133
0.438026
-0.00521601
-0.00690785
0.87382
0.00446895
0.00464305
-0.00463549
0.873111
-0.00232532
0.87269
0.87244
-0.00196222
0.960555
-0.00391438
0.960645
-0.00583935
0.960602
-0.00391708
0.960529
-0.00379699
-0.479275
0.47976
-0.00440257
-0.479007
0.0048642
0.479451
-0.00530848
-0.478657
0.00573804
0.479068
-0.00310219
-0.00304726
-0.239038
0.00331023
0.239131
-0.00340405
-0.238466
0.00366354
0.238546
-0.00374309
-0.237568
0.00396465
0.237636
-0.00403318
-0.236161
0.00420428
0.236185
-0.00422767
-0.222069
0.00413609
0.222214
-0.00428159
-0.229532
0.00441562
0.229517
-0.00440025
-0.226645
0.004339
0.226617
-0.00431139
-0.224178
0.0042051
0.224135
-0.00416184
-0.222235
0.00400861
0.222176
-0.00394971
-0.220783
0.00374961
0.220708
-0.00367516
0.00342872
-0.219779
0.219688
-0.00333703
-0.438226
0.00600945
0.437808
-0.00559214
-0.437539
0.00514898
0.437068
-0.00467773
-0.0062211
0.871856
0.00401467
0.00417039
-0.00418258
0.871073
-0.0021008
0.870608
0.870339
-0.00180411
0.962359
-0.00359478
0.962436
-0.00535297
0.962361
-0.00358218
0.96223
-0.00347187
-0.480183
0.480621
-0.00402015
-0.47987
0.0044343
0.480266
-0.00483058
-0.479454
0.00521131
0.479816
-0.00281071
-0.00276275
-0.239393
0.00299265
0.239475
-0.00307414
-0.238767
0.0032985
0.238836
-0.00336716
-0.237826
0.00355826
0.237885
-0.00361691
-0.23624
0.00375695
0.236253
-0.00377074
-0.222636
0.00370181
0.222772
-0.00383753
-0.229468
0.00392989
0.22945
-0.00391245
-0.226537
0.00385037
0.226511
-0.00382427
-0.224013
0.00372756
0.223975
-0.00368911
-0.222012
0.0035549
0.221961
-0.00350379
-0.220501
0.00333094
0.220437
-0.00326672
0.00305373
-0.219439
0.21936
-0.00297421
-0.437418
0.00537065
0.437052
-0.00500494
-0.436638
0.00461486
0.436221
-0.00419818
-0.00560336
0.870102
0.00360945
0.00374773
-0.0037731
0.869242
-0.00189716
0.868732
0.868442
-0.00165879
0.964018
-0.00330177
0.964079
-0.00490889
0.963968
-0.00327712
0.963777
-0.00317791
-0.481003
0.481398
-0.00367283
-0.48064
0.00404543
0.480995
-0.00440017
-0.480157
0.00473913
0.480477
-0.00255105
-0.00250857
-0.239703
0.00271109
0.239774
-0.00278245
-0.239028
0.00297841
0.239088
-0.00303839
-0.238048
0.00320504
0.238099
-0.00325571
-0.236284
0.003371
0.23629
-0.00337787
-0.223164
0.00332977
0.223289
-0.00345521
-0.229396
0.00351618
0.229377
-0.00349729
-0.226434
0.00343508
0.22641
-0.00341031
-0.223865
0.00332149
0.223831
-0.00328692
-0.221817
0.00316789
0.221772
-0.00312298
-0.220257
0.00297186
0.220201
-0.00291584
0.00272986
-0.219143
0.219074
-0.00266029
-0.436709
0.00481409
0.436386
-0.00449139
-0.43584
0.00414598
0.43547
-0.00377573
-0.00505609
0.86853
0.00325341
0.00337436
-0.00340889
0.867595
-0.00171557
0.867039
0.866727
-0.00152756
0.965546
-0.00303771
0.965589
-0.00451002
0.96544
-0.00300365
0.965186
-0.00291593
-0.481743
0.482102
-0.00336216
-0.48133
0.00369869
0.481649
-0.00401771
-0.480779
0.00432109
0.481065
-0.00232235
-0.00228412
-0.239975
0.00246407
0.240038
-0.00252709
-0.239257
0.00270004
0.23931
-0.00275302
-0.238241
0.00289988
0.238285
-0.00294404
-0.236303
0.0030395
0.236305
-0.00304147
-0.22365
0.00301184
0.223766
-0.0031272
-0.229318
0.00316446
0.229298
-0.00314456
-0.226337
0.00308263
0.226314
-0.00305905
-0.223732
0.00297681
0.2237
-0.0029454
-0.221645
0.00283865
0.221605
-0.00279874
-0.220043
0.00266515
0.219994
-0.00261575
0.00245178
-0.218884
0.218822
-0.00239037
-0.436082
0.00433295
0.435795
-0.00404617
-0.43513
0.00373834
0.434799
-0.00340747
-0.00457709
0.867115
0.00294378
0.00304826
-0.00308913
0.866107
-0.00155584
0.865505
0.865171
-0.00141122
0.966957
-0.00280399
0.966982
-0.00415792
0.966794
-0.00276242
0.966477
-0.00268628
-0.482416
0.482742
-0.00308851
-0.481952
0.003394
0.48224
-0.00368255
-0.481335
0.00395581
0.481591
-0.0021224
-0.00208935
-0.240216
0.00224875
0.240272
-0.00230493
-0.23946
0.00245914
0.239508
-0.00250642
-0.238409
0.00263708
0.238448
-0.0026759
-0.236306
0.0027554
0.236304
-0.00275398
-0.224097
0.00274037
0.224203
-0.00284619
-0.229238
0.0028655
0.229217
-0.00284492
-0.226244
0.00278353
0.226222
-0.002761
-0.22361
0.00268432
0.223582
-0.00265553
-0.221492
0.00255884
0.221456
-0.002523
-0.219854
0.00240368
0.21981
-0.00235969
0.00221377
-0.218654
0.218599
-0.00215911
-0.435524
0.00392078
0.435267
-0.00366395
-0.434495
0.00338765
0.434197
-0.00309005
-0.00416341
0.865834
0.00267787
0.00276685
-0.00281231
0.864756
-0.00141734
0.86411
0.863753
-0.0013102
0.968267
-0.00260128
0.968273
-0.00385312
0.968046
-0.00255359
0.967666
-0.00248865
-0.48303
0.483328
-0.00285182
-0.482515
0.00313093
0.482778
-0.00339375
-0.481834
0.00364175
0.482065
-0.00195044
-0.00192277
-0.240431
0.00206402
0.240482
-0.00211459
-0.239642
0.00225359
0.239685
-0.00229626
-0.238558
0.00241367
0.238592
-0.0024481
-0.236296
0.00251479
0.236292
-0.00251111
-0.224507
0.00251114
0.224604
-0.00260819
-0.229155
0.00261396
0.229134
-0.00259293
-0.226156
0.00253218
0.226134
-0.00251058
-0.223499
0.00243857
0.223472
-0.00241194
-0.221354
0.00232349
0.221321
-0.00229096
-0.219685
0.00218326
0.219645
-0.00214368
0.00201251
-0.218448
0.218399
-0.00196342
-0.435024
0.0035721
0.434792
-0.0033401
-0.433922
0.00309006
0.433653
-0.00282034
-0.00381171
0.864665
0.00245285
0.0025276
-0.00257657
0.863521
-0.00129927
0.862833
0.862454
-0.00122442
0.969491
-0.00242926
0.969478
-0.00359488
0.969211
-0.00237592
0.96877
-0.00232263
-0.483593
0.483867
-0.00265034
-0.483029
0.00290725
0.48327
-0.00314855
-0.482286
0.00337553
0.482497
-0.00180469
-0.00178209
-0.240626
0.00190769
0.240672
-0.00195372
-0.239807
0.00208042
0.239846
-0.00211933
-0.23869
0.00222593
0.238721
-0.00225675
-0.236279
0.0023132
0.236274
-0.00230808
-0.224883
0.00231961
0.224972
-0.00240868
-0.22907
0.00240431
0.229049
-0.00238301
-0.226071
0.00232295
0.22605
-0.00230214
-0.223395
0.00223404
0.22337
-0.00220919
-0.221228
0.00212746
0.221198
-0.00209764
-0.219532
0.00199936
0.219496
-0.00196336
0.00184423
-0.218262
0.218218
-0.00179969
-0.43457
0.00328047
0.434359
-0.00306894
-0.433402
0.00284065
0.433155
-0.00259411
-0.00351801
0.86359
0.00226626
0.00232703
-0.00237946
0.862382
-0.00120048
0.861654
0.861254
-0.00115379
0.970645
-0.00228784
0.970612
-0.00338266
0.970306
-0.00222934
0.969803
-0.0021871
-0.484114
0.484369
-0.00248416
-0.483502
0.00272281
0.483726
-0.00294647
-0.4827
0.00315633
0.482895
-0.00168471
-0.00166652
-0.240804
0.0017791
0.240847
-0.0018215
-0.239958
0.00193842
0.239994
-0.00197435
-0.238808
0.00207223
0.238836
-0.00210011
-0.236257
0.00214848
0.236251
-0.00214257
-0.225228
0.00216367
0.22531
-0.00224563
-0.228985
0.00223376
0.228963
-0.0022123
-0.225988
0.00215287
0.225968
-0.00213271
-0.223298
0.0020678
0.223274
-0.00204439
-0.221112
0.00196806
0.221084
-0.00194039
-0.219393
0.00184963
0.21936
-0.00181649
0.00170699
-0.218093
0.218052
-0.00166614
-0.434156
0.0030427
0.433961
-0.00284776
-0.432925
0.00263712
0.432697
-0.00240948
-0.00327922
0.86259
0.00211541
0.00216335
-0.00221912
0.861322
-0.00112001
0.860555
0.860134
-0.00109888
0.971744
-0.00217755
0.971691
-0.0032178
0.971347
-0.00211415
0.970783
-0.00208335
-0.484601
0.484839
-0.00235215
-0.483941
0.00257609
0.484151
-0.00278563
-0.483083
0.00298183
0.483265
-0.00158925
-0.00157455
-0.240969
0.00167674
0.241009
-0.00171631
-0.240098
0.00182562
0.240132
-0.0018592
-0.238916
0.00195018
0.238942
-0.00197572
-0.236233
0.00201784
0.236227
-0.0020116
-0.225547
0.00204063
0.225622
-0.00211629
-0.228899
0.002099
0.228877
-0.00207748
-0.225909
0.00201856
0.225889
-0.00199893
-0.223206
0.00193653
0.223184
-0.00191425
-0.221004
0.00184214
0.220978
-0.00181614
-0.219264
0.00173124
0.219233
-0.00170034
0.00159838
-0.217937
0.217899
-0.00156044
-0.433773
0.00285469
0.433591
-0.00267288
-0.432483
0.00247627
0.43227
-0.00226373
-0.00309423
0.861649
0.00200006
0.00203529
-0.00209455
0.860323
-0.00105765
0.859518
0.859076
-0.00105711
0.972801
-0.00209501
0.972729
-0.00309301
0.972345
-0.0020263
0.971722
-0.00200565
-0.48506
0.485287
-0.00225365
-0.484354
0.00246615
0.484553
-0.00266475
-0.483442
0.00285046
0.483614
-0.00151657
-0.00150598
-0.241124
0.00159862
0.241162
-0.00163603
-0.24023
0.00173955
0.240261
-0.00177134
-0.239015
0.001857
0.239039
-0.00188071
-0.236208
0.00191815
0.236202
-0.00191196
-0.225841
0.00194755
0.225911
-0.00201764
-0.228813
0.00199657
0.228791
-0.00197507
-0.225831
0.00191655
0.225811
-0.0018973
-0.223118
0.0018368
0.223097
-0.00181537
-0.220902
0.00174643
0.220877
-0.00172171
-0.219143
0.00164123
0.219114
-0.00161202
0.0015158
-0.217791
0.217755
-0.00148011
-0.433415
0.00271352
0.433243
-0.00254171
-0.432069
0.0023559
0.431868
-0.00215503
-0.00295494
0.860752
0.0019141
0.0019381
-0.00200149
0.859369
-0.00101034
0.858527
0.858066
-0.0010355
0.973837
-0.00204891
0.973742
-0.00302764
0.973323
-0.00197931
0.972649
-0.00197533
-0.485502
0.485711
-0.00218816
-0.484747
0.00239199
0.484938
-0.00258277
-0.483782
0.00276105
0.483947
-0.00146602
-0.00146015
-0.241271
0.00154383
0.241307
-0.00157966
-0.240355
0.00167893
0.240385
-0.00170942
-0.239108
0.00179118
0.23913
-0.00181355
-0.236184
0.00184779
0.236178
-0.00184197
-0.226114
0.00188304