/*--------------------------------*- C++ -*----------------------------------*\
| =========                 |                                                 |
| \\      /  F ield         | OpenFOAM: The Open Source CFD Toolbox           |
|  \\    /   O peration     | Version:  v1912                                 |
|   \\  /    A nd           | Website:  www.openfoam.com                      |
|    \\/     M anipulation  |                                                 |
\*---------------------------------------------------------------------------*/
FoamFile
{
    version     2.0;
    format      ascii;
    class       volVectorField;
    location    "500";
    object      U;
}
// * * * * * * * * * * * * * * * * * * * * * * * * * * * * * * * * * * * * * //

dimensions      [0 1 -1 0 0 0 0];


internalField   nonuniform List<vector> 
12556
(
(99.9993 0.00194944 -1.51046e-19)
(99.999 0.00673619 4.88562e-24)
(99.9981 0.0146812 -1.60462e-19)
(99.9966 0.0271067 -1.57236e-19)
(100 0.0211899 6.48392e-20)
(99.9984 0.0363813 0)
(99.9975 0.0591508 0)
(99.9967 0.0915493 -1.1238e-19)
(99.9957 0.135082 1.31697e-20)
(99.9949 0.189489 -8.71394e-20)
(99.9948 0.249562 1.05335e-20)
(99.996 0.304046 0)
(99.9984 0.338186 0)
(100.001 0.341216 1.42875e-20)
(100.004 0.313735 -2.38497e-20)
(100.005 0.266128 1.50133e-20)
(100.005 0.211536 0)
(100.004 0.159769 2.53628e-20)
(100.004 0.114956 1.04404e-19)
(100.002 0.0824141 -2.95579e-20)
(100.009 0.0943333 -6.17741e-19)
(100.006 0.0597944 0)
(100.004 0.0322637 -7.91382e-20)
(100.004 0.01034 -5.2423e-19)
(99.9928 0.00510872 6.36152e-19)
(99.9893 0.0178262 1.69468e-19)
(99.9812 0.0394322 1.18297e-18)
(99.9677 0.0735877 -4.98967e-19)
(99.9699 0.102111 7.11243e-20)
(99.9492 0.173995 -7.26798e-22)
(99.9228 0.283885 0)
(99.9116 0.386636 -5.01877e-20)
(99.8809 0.576057 -4.66964e-20)
(99.8541 0.818928 -8.21261e-20)
(99.8436 1.09524 -3.41707e-20)
(99.8643 1.35627 -4.50512e-20)
(99.9207 1.53116 -9.23411e-21)
(99.9962 1.5621 2.76641e-23)
(100.062 1.4453 -3.56683e-21)
(100.099 1.22923 3.40905e-20)
(100.109 0.977494 -6.77267e-20)
(100.097 0.743154 0)
(100.112 0.565276 -4.82109e-19)
(100.081 0.392216 9.34616e-19)
(100.082 0.270035 6.30136e-19)
(100.06 0.170922 1.3245e-18)
(100.045 0.0919523 -1.32951e-18)
(100.039 0.0293968 6.28622e-19)
(99.9807 0.00601351 -6.36634e-19)
(99.9708 0.0218133 -1.36307e-18)
(99.9491 0.0510288 -3.05152e-18)
(99.9132 0.0993365 3.99479e-18)
(99.8963 0.159181 -1.45452e-19)
(99.8344 0.278989 -1.38427e-19)
(99.7505 0.464413 -2.34433e-19)
(99.6985 0.67442 0)
(99.5925 1.03081 1.8576e-19)
(99.4971 1.50299 4.01829e-20)
(99.4607 2.06675 -1.01876e-19)
(99.5484 2.62215 -1.06773e-21)
(99.7823 3.00546 1.39091e-20)
(100.087 3.07519 -2.65906e-22)
(100.34 2.82152 0)
(100.469 2.36332 2.602e-20)
(100.479 1.8427 -6.98401e-20)
(100.421 1.36559 -1.67237e-19)
(100.374 0.970379 -2.91337e-18)
(100.278 0.66246 -6.48064e-19)
(100.229 0.411865 -6.48438e-19)
(100.167 0.258991 1.49815e-18)
(100.127 0.138589 -1.68612e-19)
(100.109 0.0441192 0)
(99.9683 0.00330531 -3.20097e-19)
(99.9494 0.0145903 2.39608e-18)
(99.9093 0.0423604 -6.85558e-19)
(99.8425 0.0944116 0)
(99.7935 0.176024 0)
(99.6714 0.326209 -1.1238e-18)
(99.5009 0.56735 -2.19018e-18)
(99.3582 0.874631 2.08224e-19)
(99.114 1.38483 9.93242e-20)
(98.8689 2.10109 4.71829e-20)
(98.7467 3.00504 -1.32698e-19)
(98.9042 3.99521 3.70727e-20)
(99.4637 4.73956 3.71949e-20)
(100.238 4.85753 0)
(100.841 4.34273 0)
(101.103 3.51341 -1.19386e-19)
(101.098 2.65662 0)
(100.944 1.90853 0)
(100.78 1.29119 1.05096e-18)
(100.575 0.861818 -8.19945e-19)
(100.436 0.500989 -1.65891e-18)
(100.317 0.310195 8.54844e-19)
(100.241 0.164042 -1.7191e-19)
(100.207 0.0519039 0)
(99.9641 -0.00382796 0)
(99.9348 -0.00636783 0)
(99.8739 0.00864059 3.45361e-19)
(99.7713 0.0510818 5.14155e-19)
(99.6789 0.141652 3.75045e-19)
(99.4821 0.297137 0)
(99.2012 0.557248 0)
(98.9249 0.92525 0)
(98.4673 1.55178 1.7519e-18)
(97.9718 2.47119 2.34358e-19)
(97.5708 3.81134 0)
(97.6801 5.55543 2.13772e-19)
(98.8318 7.05835 2.57008e-20)
(100.596 7.22398 -2.08905e-20)
(101.802 6.12851 5.60935e-19)
(102.175 4.63823 1.65711e-18)
(102.025 3.32104 3.23503e-19)
(101.678 2.30326 -4.12238e-21)
(101.312 1.47518 -1.74607e-18)
(100.953 0.955566 1.46427e-19)
(100.679 0.517668 0)
(100.487 0.312393 1.7532e-19)
(100.368 0.162027 -1.31877e-19)
(100.312 0.0507382 -4.10072e-20)
(99.9776 -0.0156649 0)
(99.9377 -0.0419359 0)
(99.8558 -0.0519395 -6.93224e-19)
(99.717 -0.0342122 1.38949e-18)
(99.5745 0.0486745 0)
(99.2988 0.179851 0)
(98.8971 0.415557 4.55579e-19)
(98.456 0.789338 1.76095e-19)
(97.7415 1.40843 2.52604e-19)
(96.8289 2.40475 -1.24665e-18)
(95.762 4.16547 1.51343e-18)
(95.2422 7.20054 -1.43115e-18)
(97.4357 10.7246 2.42786e-20)
(101.644 10.7559 0)
(103.727 8.14064 2.18537e-18)
(103.893 5.58782 0)
(103.308 3.70763 -2.87937e-19)
(102.586 2.42383 5.00571e-19)
(101.932 1.46244 4.47345e-19)
(101.372 0.909355 -3.02472e-19)
(100.925 0.445609 0)
(100.652 0.256937 0)
(100.486 0.128345 -4.44887e-20)
(100.407 0.0393259 -1.25358e-19)
(100.018 -0.031902 1.58116e-19)
(99.9683 -0.0911679 -1.70217e-19)
(99.8681 -0.137689 3.47361e-19)
(99.6973 -0.159186 -1.25483e-18)
(99.5041 -0.102671 1.31054e-21)
(99.1565 -0.0259783 4.63743e-19)
(98.6446 0.137933 -2.35806e-18)
(98.0405 0.446259 -2.4956e-19)
(97.088 0.919472 5.93978e-19)
(95.669 1.72653 4.01093e-19)
(93.4843 3.28732 1.1203e-18)
(90.1589 7.37116 2.76985e-18)
(92.9577 17.4332 3.1904e-19)
(105.543 16.2806 3.44701e-18)
(107.414 9.8469 0)
(106.379 5.88765 8.65883e-19)
(104.905 3.56207 -4.72693e-19)
(103.597 2.16947 -7.75326e-20)
(102.548 1.19439 0)
(101.778 0.69942 1.66495e-19)
(101.138 0.278466 1.14757e-19)
(100.785 0.141345 -1.38348e-19)
(100.573 0.0620738 -1.58125e-19)
(100.471 0.0174386 3.56098e-19)
(100.092 -0.0516699 -1.5803e-19)
(100.036 -0.15132 1.7006e-19)
(99.9218 -0.243349 -2.15709e-19)
(99.7275 -0.315421 -1.42716e-19)
(99.4903 -0.302027 2.69086e-19)
(99.0889 -0.30389 1.56166e-19)
(98.4975 -0.250296 1.22322e-18)
(97.7752 -0.0732341 2.26531e-19)
(96.6769 0.137174 0)
(94.9576 0.458127 1.64495e-19)
(92.1591 0.829511 -9.34312e-19)
(86.7029 0.91804 9.89542e-19)
(117.371 20.7826 9.22943e-19)
(113.113 9.09432 -1.94352e-19)
(109.302 4.79606 1.43766e-19)
(106.523 2.63789 -2.30577e-19)
(104.535 1.45845 7.05776e-20)
(103.049 0.660959 -9.11429e-20)
(102.099 0.325483 3.7627e-19)
(101.274 0.0243625 -1.40576e-19)
(100.855 -0.028417 1.17238e-19)
(100.606 -0.0333227 -2.29086e-20)
(100.485 -0.013773 -3.35721e-19)
(100.207 -0.0736681 -7.61828e-20)
(100.146 -0.218332 -6.11257e-20)
(100.025 -0.361333 -2.09254e-20)
(99.8182 -0.49083 6.2421e-20)
(99.5484 -0.532053 -4.93666e-22)
(99.1184 -0.625399 0)
(98.4896 -0.700087 2.00015e-19)
(97.717 -0.685035 -1.31581e-21)
(96.603 -0.754771 4.15769e-21)
(94.927 -0.900352 -2.09122e-19)
(92.6378 -1.3818 -9.26473e-20)
(90.358 -2.91207 -3.29179e-20)
(130.415 9.35396 0)
(117.765 4.10462 6.55553e-19)
(111.523 1.99879 7.20698e-19)
(107.679 0.904143 3.39633e-20)
(105.162 0.325192 -2.10382e-19)
(103.325 -0.0915742 -9.61847e-20)
(102.26 -0.182778 2.13223e-19)
(101.299 -0.293646 4.84754e-20)
(100.837 -0.237701 0)
(100.565 -0.149918 1.81103e-19)
(100.431 -0.051775 1.67713e-19)
(100.366 -0.0963623 1.50012e-19)
(100.304 -0.287498 2.3495e-21)
(100.182 -0.482949 0)
(99.9739 -0.671907 8.23471e-21)
(99.6853 -0.773441 -3.68311e-20)
(99.2524 -0.96006 3.81412e-20)
(98.6265 -1.16137 0)
(97.8609 -1.3013 -4.0196e-21)
(96.8159 -1.59387 1.57326e-19)
(95.3004 -2.00763 1.83289e-19)
(93.4523 -2.64412 0)
(91.8902 -3.45588 -1.99812e-20)
(130.023 -5.15543 -9.41748e-19)
(118.347 -2.5733 0)
(111.979 -1.65663 1.85975e-19)
(107.932 -1.26634 -6.33817e-20)
(105.275 -1.04317 -4.05822e-19)
(103.296 -0.953503 8.2498e-19)
(102.211 -0.762467 0)
(101.189 -0.640298 -4.7594e-20)
(100.717 -0.464732 -2.00812e-19)
(100.438 -0.276241 2.24628e-20)
(100.299 -0.0929327 0)
(100.568 -0.118251 -7.38053e-20)
(100.508 -0.354185 7.94086e-20)
(100.391 -0.599755 7.74834e-20)
(100.193 -0.845717 -7.11563e-20)
(99.8995 -1.00732 -3.62625e-20)
(99.4859 -1.28014 0)
(98.8944 -1.59507 -7.43493e-20)
(98.1721 -1.86863 5.69261e-20)
(97.2232 -2.32738 -2.81044e-19)
(95.8352 -2.89964 -1.62311e-19)
(94.1327 -3.56617 -4.14016e-19)
(92.6389 -4.13222 6.22775e-20)
(123.085 -13.9124 1.0612e-18)
(115.543 -7.87439 0)
(110.66 -4.92013 -1.36896e-18)
(107.218 -3.31742 0)
(104.825 -2.37285 -3.95526e-19)
(102.946 -1.7875 0)
(101.943 -1.33268 -5.08918e-19)
(100.941 -0.976456 -5.97462e-19)
(100.49 -0.685455 4.55471e-20)
(100.222 -0.399629 -1.45763e-19)
(100.087 -0.133231 2.00211e-20)
(100.81 -0.137963 2.71213e-19)
(100.755 -0.414007 0)
(100.65 -0.704049 -7.72507e-20)
(100.47 -1.00005 0)
(100.183 -1.21777 0)
(99.8065 -1.564 -1.04999e-19)
(99.2727 -1.97343 -2.57715e-20)
(98.6164 -2.35847 9.05931e-22)
(97.7741 -2.95127 7.13678e-20)
(96.4863 -3.66944 1.5861e-19)
(94.7961 -4.46519 -3.43032e-19)
(93.1818 -5.08551 2.92263e-22)
(115.018 -17.5524 -1.42054e-18)
(111.248 -10.7803 3.10109e-19)
(108.264 -7.06545 -1.0975e-18)
(105.805 -4.83718 -5.18689e-20)
(103.926 -3.43663 -4.55852e-20)
(102.329 -2.47918 4.30973e-20)
(101.486 -1.8245 -6.20323e-19)
(100.571 -1.26854 3.53713e-19)
(100.167 -0.878581 0)
(99.9243 -0.508793 1.68188e-19)
(99.8005 -0.16904 0)
(101.088 -0.154953 -2.69857e-19)
(101.04 -0.465694 4.5246e-18)
(100.948 -0.79324 -9.06864e-18)
(100.793 -1.1317 -2.41432e-20)
(100.526 -1.39257 -3.1757e-20)
(100.199 -1.79522 0)
(99.7407 -2.27486 2.65283e-19)
(99.1661 -2.75035 -1.66356e-21)
(98.4524 -3.45295 -3.78472e-21)
(97.3034 -4.33282 -7.26539e-20)
(95.6939 -5.41173 1.86749e-19)
(93.9969 -6.34438 0)
(104.235 -26.7812 -3.86013e-19)
(107.228 -16.7165 0)
(106.914 -11.4306 2.86383e-20)
(105.574 -7.9637 0)
(104.086 -5.67167 9.09212e-20)
(102.774 -4.11902 1.21784e-18)
(101.542 -2.96127 -1.29604e-18)
(100.896 -2.19209 0)
(100.109 -1.49292 0)
(99.7671 -1.02938 5.26496e-19)
(99.5585 -0.595587 9.74895e-20)
(99.4504 -0.197697 -2.96723e-19)
(101.393 -0.167711 0)
(101.353 -0.504436 0)
(101.278 -0.859212 0)
(101.151 -1.229 0)
(100.906 -1.53129 0)
(100.631 -1.97486 0)
(100.253 -2.5055 0)
(99.7786 -3.0421 0)
(99.2176 -3.81713 0)
(98.289 -4.82884 0)
(97.034 -6.24518 0)
(95.5806 -8.42362 0)
(97.2033 -17.1087 0)
(102.472 -13.7711 0)
(103.497 -10.5072 1.07849e-18)
(103.174 -7.86977 0)
(102.399 -5.88946 0)
(101.566 -4.42067 -9.8567e-19)
(100.687 -3.22276 -1.76113e-18)
(100.234 -2.42125 -6.49466e-19)
(99.5902 -1.64112 -8.42488e-19)
(99.3148 -1.13137 8.48223e-19)
(99.1432 -0.655863 0)
(99.0532 -0.217789 7.97714e-19)
(101.719 -0.176101 0)
(101.688 -0.529896 0)
(101.63 -0.901432 0)
(101.533 -1.28944 0)
(101.318 -1.61551 0)
(101.103 -2.0777 0)
(100.811 -2.62514 0)
(100.443 -3.18709 0)
(100.05 -3.96684 0)
(99.4102 -4.97639 0)
(98.7335 -6.37615 0)
(97.9076 -8.35127 0)
(98.5969 -10.8263 -5.51566e-29)
(100.49 -10.5063 0)
(101.314 -8.93375 0)
(101.331 -7.2013 0)
(100.949 -5.6746 0)
(100.442 -4.41893 -1.96726e-19)
(99.8533 -3.29672 0)
(99.5559 -2.51962 0)
(99.0475 -1.71491 -1.57229e-18)
(98.8346 -1.18473 7.92026e-19)
(98.6983 -0.689381 3.32836e-20)
(98.6262 -0.229108 -5.51116e-19)
(102.056 -0.18016 0)
(102.034 -0.542174 0)
(101.993 -0.920409 0)
(101.924 -1.31526 0)
(101.74 -1.65226 0)
(101.58 -2.11406 0)
(101.367 -2.65307 0)
(101.095 -3.20529 0)
(100.834 -3.93636 0)
(100.434 -4.81804 0)
(100.068 -5.9035 0)
(96.6733 -6.75071 0)
(99.3576 -8.2409 4.51395e-33)
(99.8024 -8.19756 0)
(100.068 -7.4315 0)
(100.034 -6.34379 0)
(99.793 -5.22578 0)
(99.4694 -4.21342 0)
(99.0898 -3.232 -5.62916e-19)
(98.9015 -2.51219 8.63633e-19)
(98.5077 -1.72401 4.90982e-19)
(98.348 -1.19602 8.54903e-19)
(98.2421 -0.699162 -9.74724e-19)
(98.186 -0.232395 0)
(102.398 -0.180271 0)
(102.384 -0.542483 0)
(102.358 -0.918524 0)
(102.313 -1.31017 0)
(102.158 -1.64722 0)
(102.044 -2.09322 0)
(101.896 -2.60336 0)
(101.699 -3.11954 0)
(101.529 -3.76386 0)
(101.251 -4.48318 0)
(100.986 -5.26382 0)
(95.911 -5.56193 0)
(99.7697 -6.62904 9.64415e-38)
(99.5164 -6.61858 0)
(99.3502 -6.19555 0)
(99.153 -5.49832 0)
(98.9141 -4.69897 0)
(98.6745 -3.90965 0)
(98.4119 -3.06909 0)
(98.2952 -2.42611 0)
(97.9903 -1.6824 1.7013e-18)
(97.8719 -1.17334 -1.62495e-18)
(97.79 -0.688927 -1.10359e-19)
(97.7468 -0.229144 1.03798e-19)
(102.736 -0.177017 0)
(102.728 -0.532619 0)
(102.715 -0.899134 0)
(102.69 -1.27938 0)
(102.561 -1.60737 0)
(102.482 -2.02711 0)
(102.38 -2.49607 0)
(102.235 -2.96168 0)
(102.111 -3.50843 0)
(101.871 -4.07674 0)
(101.628 -4.64567 0)
(95.5797 -4.70056 0)
(99.992 -5.49781 0)
(99.3636 -5.48281 0)
(98.9051 -5.21794 0)
(98.5475 -4.74885 0)
(98.256 -4.16913 0)
(98.0328 -3.55565 0)
(97.8259 -2.84893 0)
(97.748 -2.28607 0)
(97.5064 -1.60292 0)
(97.4174 -1.12357 0)
(97.3536 -0.66364 0)
(97.32 -0.221281 0)
(103.065 -0.171067 0)
(103.063 -0.51464 0)
(103.059 -0.866055 0)
(103.048 -1.22887 0)
(102.939 -1.54126 0)
(102.885 -1.9288 0)
(102.812 -2.35131 0)
(102.698 -2.76223 0)
(102.585 -3.21817 0)
(102.341 -3.66493 0)
(102.084 -4.08931 0)
(95.5324 -4.04372 0)
(100.112 -4.64771 0)
(99.2613 -4.62464 0)
(98.6067 -4.43985 0)
(98.117 -4.10676 0)
(97.7582 -3.67538 0)
(97.5177 -3.19463 0)
(97.3274 -2.60427 0)
(97.2641 -2.11728 0)
(97.0629 -1.50014 0)
(96.992 -1.05645 0)
(96.9402 -0.627283 0)
(96.9139 -0.209241 0)
(103.381 -0.163122 0)
(103.383 -0.490679 0)
(103.385 -0.823152 0)
(103.384 -1.16459 0)
(103.29 -1.45725 0)
(103.251 -1.81028 0)
(103.193 -2.18614 0)
(103.091 -2.54455 0)
(102.969 -2.92279 0)
(102.702 -3.27665 0)
(102.411 -3.60069 0)
(95.6543 -3.52032 0)
(100.175 -3.98092 0)
(99.1813 -3.95138 0)
(98.3919 -3.81115 0)
(97.799 -3.56254 0)
(97.3746 -3.23215 0)
(97.1021 -2.85002 0)
(96.9052 -2.35628 0)
(96.8405 -1.9369 0)
(96.6617 -1.38524 0)
(96.6001 -0.979734 0)
(96.555 -0.584468 0)
(96.5331 -0.194879 0)
(103.68 -0.15385 0)
(103.684 -0.462755 0)
(103.69 -0.773976 0)
(103.694 -1.09186 0)
(103.612 -1.36267 0)
(103.579 -1.68141 0)
(103.525 -2.01338 0)
(103.424 -2.32435 0)
(103.282 -2.63866 0)
(102.985 -2.92266 0)
(102.644 -3.1749 0)
(95.8687 -3.09005 0)
(100.202 -3.44246 -5.22112e-34)
(99.1127 -3.40844 0)
(98.2278 -3.2953 0)
(97.5551 -3.10167 0)
(97.0725 -2.84154 0)
(96.7634 -2.53276 0)
(96.5473 -2.11765 0)
(96.471 -1.75655 0)
(96.3018 -1.26651 0)
(96.2428 -0.899226 0)
(96.2004 -0.538644 0)
(96.1808 -0.179496 0)
(103.961 -0.143837 0)
(103.967 -0.432627 0)
(103.974 -0.721555 0)
(103.979 -1.01509 0)
(103.904 -1.26344 0)
(103.872 -1.54967 0)
(103.815 -1.84192 0)
(103.706 -2.11138 0)
(103.537 -2.374 0)
(103.212 -2.60543 0)
(102.81 -2.80473 0)
(96.1275 -2.72886 0)
(100.207 -2.99874 0)
(99.0512 -2.96183 0)
(98.0966 -2.86654 0)
(97.362 -2.71037 0)
(96.8296 -2.50043 0)
(96.4838 -2.24682 0)
(96.2428 -1.89534 0)
(96.1491 -1.58364 0)
(95.9806 -1.14975 0)
(95.9195 -0.819094 0)
(95.8768 -0.492376 0)
(95.8578 -0.163982 0)
(104.222 -0.133566 0)
(104.228 -0.40174 0)
(104.235 -0.668317 0)
(104.239 -0.937755 0)
(104.168 -1.16409 0)
(104.132 -1.42038 0)
(104.066 -1.67752 0)
(103.946 -1.91128 0)
(103.749 -2.13235 0)
(103.398 -2.32395 0)
(102.926 -2.48319 0)
(96.4016 -2.42149 0)
(100.199 -2.62789 -6.62175e-34)
(98.9945 -2.58929 0)
(97.9877 -2.50661 0)
(97.2048 -2.37706 0)
(96.6304 -2.20397 0)
(96.2502 -1.9925 0)
(95.982 -1.69263 0)
(95.8682 -1.42248 0)
(95.6947 -1.03873 0)
(95.6284 -0.742171 0)
(95.5833 -0.447468 0)
(95.5637 -0.148946 0)
(104.464 -0.123414 0)
(104.47 -0.37122 0)
(104.475 -0.616113 0)
(104.475 -0.862443 0)
(104.405 -1.06784 0)
(104.363 -1.29712 0)
(104.285 -1.52364 0)
(104.151 -1.72696 0)
(103.926 -1.91464 0)
(103.552 -2.07569 0)
(103.004 -2.20399 0)
(96.674 -2.15765 0)
(100.181 -2.31492 0)
(98.9417 -2.27547 0)
(97.895 -2.20221 0)
(97.0739 -2.09232 0)
(96.4642 -1.94699 0)
(96.0528 -1.76827 0)
(95.7572 -1.51051 0)
(95.6224 -1.27526 0)
(95.4403 -0.935749 0)
(95.367 -0.670245 0)
(95.3182 -0.405109 0)
(95.2971 -0.134785 0)
(104.687 -0.113664 0)
(104.692 -0.341904 0)
(104.695 -0.566287 0)
(104.69 -0.790972 0)
(104.62 -0.976929 0)
(104.568 -1.18215 0)
(104.477 -1.3822 0)
(104.327 -1.55967 0)
(104.076 -1.72046 0)
(103.682 -1.85769 0)
(103.056 -1.96177 0)
(96.9353 -1.93013 0)
(100.156 -2.04916 2.16516e-34)
(98.8921 -2.00945 0)
(97.8145 -1.94355 0)
(96.9629 -1.84865 0)
(96.3236 -1.72474 0)
(95.884 -1.57187 0)
(95.5623 -1.34871 0)
(95.4065 -1.14279 0)
(95.2138 -0.841974 0)
(95.1326 -0.604337 0)
(95.0792 -0.366022 0)
(95.0563 -0.121737 0)
(104.892 -0.104516 0)
(104.896 -0.314388 0)
(104.895 -0.519767 0)
(104.884 -0.72456 0)
(104.812 -0.892747 0)
(104.751 -1.07678 0)
(104.645 -1.25407 0)
(104.479 -1.4096 0)
(104.205 -1.54868 0)
(103.793 -1.66704 0)
(103.088 -1.752 0)
(97.181 -1.73354 0)
(100.128 -1.82274 0)
(98.8452 -1.78313 0)
(97.7433 -1.72317 0)
(96.8672 -1.64003 0)
(96.2029 -1.53295 0)
(95.7384 -1.40079 0)
(95.3919 -1.20627 0)
(95.2161 -1.02502 0)
(95.0119 -0.75787 0)
(94.9223 -0.544926 0)
(94.864 -0.330591 0)
(94.8388 -0.109926 0)
(105.081 -0.0961051 0)
(105.083 -0.289073 0)
(105.079 -0.477154 0)
(105.061 -0.663958 0)
(104.986 -0.816135 0)
(104.914 -0.981651 0)
(104.794 -1.13947 0)
(104.612 -1.27642 0)
(104.317 -1.39791 0)
(103.888 -1.5011 0)
(103.106 -1.57085 0)
(97.4089 -1.56382 0)
(100.096 -1.62968 0)
(98.8009 -1.59041 0)
(97.6797 -1.53535 0)
(96.7836 -1.46161 0)
(96.0983 -1.36798 0)
(95.6115 -1.25258 0)
(95.2422 -1.08192 0)
(95.0474 -0.921434 0)
(94.8312 -0.68342 0)
(94.7333 -0.492128 0)
(94.6699 -0.298964 0)
(94.6423 -0.0993994 0)
(105.254 -0.0885136 0)
(105.254 -0.266204 0)
(105.246 -0.438802 0)
(105.222 -0.609579 0)
(105.144 -0.747492 0)
(105.061 -0.896962 0)
(104.926 -1.03819 0)
(104.729 -1.15942 0)
(104.416 -1.26663 0)
(103.97 -1.35751 0)
(103.113 -1.41512 0)
(97.619 -1.41775 0)
(100.062 -1.46535 0)
(98.7587 -1.42654 0)
(97.6222 -1.37558 0)
(96.7097 -1.30946 0)
(96.0065 -1.2267 0)
(95.5 -1.12498 0)
(95.1095 -0.97426 0)
(94.897 -0.831243 0)
(94.669 -0.618325 0)
(94.5629 -0.445827 0)
(94.4946 -0.271129 0)
(94.4645 -0.0901487 0)
(105.414 -0.0817891 0)
(105.412 -0.245924 0)
(105.4 -0.404893 0)
(105.369 -0.561606 0)
(105.287 -0.686948 0)
(105.193 -0.822637 0)
(105.043 -0.949826 0)
(104.832 -1.0578 0)
(104.503 -1.15339 0)
(104.042 -1.23422 0)
(103.113 -1.2821 0)
(97.8119 -1.29278 0)
(100.027 -1.32609 0)
(98.7185 -1.28781 0)
(97.5698 -1.24029 0)
(96.6438 -1.1804 0)
(95.9252 -1.10648 0)
(95.4011 -1.01595 0)
(94.9912 -0.881926 0)
(94.7622 -0.753568 0)
(94.5226 -0.56214 0)
(94.4087 -0.405782 0)
(94.3355 -0.246986 0)
(94.3029 -0.0821375 0)
(105.562 -0.075951 0)
(105.558 -0.228292 0)
(105.541 -0.375488 0)
(105.503 -0.520055 0)
(105.418 -0.634455 0)
(105.313 -0.758435 0)
(105.149 -0.873833 0)
(104.925 -0.970663 0)
(104.581 -1.05683 0)
(104.106 -1.12944 0)
(103.109 -1.16955 0)
(97.9888 -1.18684 0)
(99.9902 -1.209 0)
(98.68 -1.17123 0)
(97.5215 -1.12662 0)
(96.5842 -1.07182 0)
(95.8524 -1.00509 0)
(95.3126 -0.923729 0)
(94.8848 -0.803655 0)
(94.6404 -0.687526 0)
(94.3895 -0.514356 0)
(94.2682 -0.371685 0)
(94.1902 -0.22638 0)
(94.1552 -0.0753115 0)
(105.7 -0.0710097 0)
(105.694 -0.213335 0)
(105.673 -0.350597 0)
(105.628 -0.484914 0)
(105.538 -0.589871 0)
(105.423 -0.704043 0)
(105.246 -0.809654 0)
(105.009 -0.897181 0)
(104.652 -0.975735 0)
(104.163 -1.04165 0)
(103.101 -1.07558 0)
(98.1512 -1.09822 0)
(99.9533 -1.11173 -3.08256e-35)
(98.643 -1.07445 0)
(97.4766 -1.03224 0)
(96.5299 -0.981602 0)
(95.7866 -0.920697 0)
(95.2327 -0.846789 0)
(94.7883 -0.738325 0)
(94.5295 -0.632298 0)
(94.2677 -0.47451 0)
(94.1393 -0.343234 0)
(94.0569 -0.209153 0)
(94.0195 -0.0696174 0)
(105.83 -0.0669439 0)
(105.821 -0.20101 0)
(105.796 -0.330136 0)
(105.744 -0.455946 0)
(105.649 -0.553021 0)
(105.524 -0.65913 0)
(105.334 -0.75675 0)
(105.086 -0.836578 0)
(104.718 -0.909061 0)
(104.214 -0.969566 0)
(103.091 -0.99863 0)
(98.3003 -1.02558 0)
(99.9159 -1.03241 0)
(98.6073 -0.995559 0)
(97.4345 -0.955326 0)
(96.4798 -0.908026 0)
(95.7264 -0.851778 0)
(95.1597 -0.783859 0)
(94.6998 -0.684969 0)
(94.4276 -0.587156 0)
(94.1547 -0.442034 0)
(94.0196 -0.320094 0)
(93.9328 -0.195111 0)
(93.8931 -0.0649829 0)
(105.951 -0.0637969 0)
(105.94 -0.191398 0)
(105.911 -0.314198 0)
(105.853 -0.433579 0)
(105.754 -0.523747 0)
(105.618 -0.623388 0)
(105.416 -0.714634 0)
(105.157 -0.788165 0)
(104.778 -0.855903 0)
(104.261 -0.912114 0)
(103.081 -0.937422 0)
(98.4378 -0.967796 0)
(99.8784 -0.96954 0)
(98.5726 -0.933048 0)
(97.3947 -0.89438 0)
(96.433 -0.849701 0)
(95.6706 -0.797097 0)
(95.0921 -0.733886 0)
(94.6178 -0.642781 0)
(94.3329 -0.551511 0)
(94.0503 -0.416991 0)
(93.9088 -0.302132 0)
(93.818 -0.184199 0)
(93.7761 -0.0614058 0)
(106.073 -0.0613955 0)
(106.06 -0.184144 0)
(106.026 -0.302288 0)
(105.961 -0.416112 0)
(105.852 -0.501961 0)
(105.707 -0.596559 0)
(105.493 -0.682899 0)
(105.225 -0.751365 0)
(104.835 -0.815507 0)
(104.304 -0.868414 0)
(103.07 -0.890933 0)
(98.5648 -0.924035 0)
(99.8409 -0.921976 0)
(98.5387 -0.885738 0)
(97.3566 -0.848241 0)
(96.3888 -0.805532 0)
(95.6182 -0.75567 0)
(95.0289 -0.696035 0)
(94.5408 -0.611114 0)
(94.244 -0.524834 0)
(93.947 -0.397662 0)
(93.7987 -0.288737 0)
(93.7036 -0.175982 0)
(93.6593 -0.0586843 0)
(106.168 -0.0602021 0)
(106.154 -0.180178 0)
(106.116 -0.295707 0)
(106.047 -0.408946 0)
(105.947 -0.48758 0)
(105.792 -0.578405 0)
(105.567 -0.661284 0)
(105.288 -0.725709 0)
(104.889 -0.787227 0)
(104.344 -0.83773 0)
(103.059 -0.858358 0)
(98.6828 -0.893684 0)
(99.8034 -0.888855 0)
(98.5053 -0.85272 0)
(97.3198 -0.816004 0)
(96.3465 -0.774663 0)
(95.5683 -0.726733 0)
(94.9688 -0.669675 0)
(94.4677 -0.589467 0)
(94.1592 -0.506916 0)
(93.8644 -0.388761 0)
(93.712 -0.281002 0)
(93.6137 -0.171299 0)
(93.5677 -0.0572568 0)
(106.334 -0.058885 0)
(106.316 -0.176602 0)
(106.273 -0.290106 0)
(106.192 -0.397898 0)
(106.033 -0.479573 0)
(105.869 -0.568806 0)
(105.634 -0.65023 0)
(105.35 -0.710828 0)
(104.942 -0.77046 0)
(104.382 -0.819421 0)
(103.05 -0.839119 0)
(98.7928 -0.876507 0)
(99.766 -0.86961 0)
(98.4723 -0.833315 0)
(97.2838 -0.796986 0)
(96.3054 -0.756447 0)
(95.5202 -0.709703 0)
(94.911 -0.654402 0)
(94.4002 -0.577625 0)
(94.0821 -0.496635 0)
(93.7271 -0.376593 0)
(93.5646 -0.274388 0)
(93.4609 -0.167013 0)
(93.4118 -0.0556864 0)
(89.9799 -2.79659 -9.58609e-22)
(131.965 12.4051 2.16715e-20)
(117.902 23.2847 -2.82921e-18)
(91.7767 -3.37786 -1.50933e-20)
(132.543 -4.14141 -1.87229e-19)
(132.829 10.1672 -6.39124e-19)
(92.5643 -4.04178 -6.16861e-20)
(125.129 -14.243 -5.90393e-19)
(131.854 -5.82163 1.13009e-18)
(93.1071 -4.94313 1.28443e-19)
(116.478 -18.4141 3.52699e-18)
(124.052 -15.0317 -5.46947e-19)
(93.9377 -6.2462 -6.50156e-20)
(104.177 -27.5235 1.8317e-19)
(104.936 -27.0938 0)
(108.385 -18.419 -1.73485e-18)
(115.412 -18.6309 -7.43043e-19)
(95.3655 -8.14204 0)
(95.9457 -18.1731 0)
(103.821 -27.4252 0)
(97.3641 -18.413 1.68716e-19)
(102.739 -15.718 -6.50818e-19)
(107.478 -18.2492 -2.0843e-19)
(86.6348 1.98817 -2.85964e-18)
(91.6961 16.1086 -3.05548e-19)
(115.256 23.3861 3.35979e-20)
(103.788 17.4192 -8.12694e-19)
(136.471 30.2791 1.9416e-19)
(117.156 39.2893 5.0485e-18)
(129.586 11.3102 0)
(118.973 6.73268 2.76765e-19)
(114.26 10.7949 -2.20958e-19)
(93.2602 -2.37929 0)
(91.9482 -3.25273 1.99943e-20)
(90.5697 -2.56932 -6.32655e-20)
(143.737 1.68373 5.42666e-20)
(144.149 13.9393 0)
(130.587 -3.60417 3.77107e-19)
(120.827 -1.15989 -1.08659e-18)
(119.962 4.85247 -2.32058e-19)
(93.9722 -3.34591 -2.53864e-20)
(92.742 -3.95806 -9.61562e-20)
(92.0651 -3.33715 -1.94844e-20)
(92.2087 -3.70558 8.09271e-20)
(91.4934 -4.0847 2.67143e-20)
(91.081 -3.7917 -3.18142e-20)
(133.737 -15.3692 6.92847e-19)
(139.34 -9.05465 0)
(124.073 -13.1431 -1.68278e-18)
(118.131 -7.78402 -2.34604e-18)
(120.485 -3.04731 0)
(94.6193 -4.23452 3.48179e-19)
(93.3241 -4.86324 -1.59029e-19)
(92.8198 -4.05334 0)
(92.8398 -4.43715 4.22042e-20)
(91.8263 -4.62015 0)
(91.8235 -4.32519 5.73773e-20)
(122.788 -21.8524 -8.8232e-21)
(127.54 -19.7243 0)
(95.4329 -5.17467 -2.24534e-20)
(94.0976 -6.10863 -1.13546e-19)
(93.4032 -5.0017 0)
(93.514 -5.56501 4.7524e-20)
(91.8121 -5.85251 5.9087e-20)
(91.8441 -5.24279 -5.57548e-20)
(108.997 -28.2704 0)
(112.343 -23.4045 0)
(116.855 -23.2846 3.57261e-19)
(96.6499 -6.08622 0)
(95.5171 -7.84744 0)
(94.2215 -6.28915 0)
(94.4879 -7.07173 0)
(90.6573 -7.31822 -1.14832e-18)
(91.5895 -6.58484 5.16225e-19)
(98.6415 -8.49302 0)
(97.5648 -11.2129 1.02339e-27)
(95.9468 -17.4506 -1.68754e-22)
(86.662 -5.7656 -5.59549e-20)
(89.9896 -4.69495 3.28054e-20)
(79.1348 -0.264775 4.59045e-18)
(85.8232 -5.72786 2.71916e-19)
(144.018 14.8617 2.61087e-18)
(137.305 29.4029 -1.54514e-19)
(127.58 18.6301 -1.53045e-18)
(136.166 27.6816 9.1245e-19)
(143.066 14.6828 -8.69483e-19)
(91.0397 -3.74121 0)
(90.8349 -3.64179 -3.66169e-20)
(91.3716 -3.19017 0)
(90.729 -3.67559 0)
(90.9003 -3.78185 0)
(90.1654 -4.49923 -4.76129e-20)
(90.7022 -3.71406 0)
(139.667 -8.51114 2.67186e-20)
(143.583 0.949331 5.44867e-20)
(133.253 2.00144 1.84647e-19)
(142.929 1.15032 -2.61984e-20)
(139.254 -8.17705 0)
(143.228 13.7797 -1.08249e-19)
(143.072 1.86104 2.06075e-19)
(133.278 3.00938 1.20509e-20)
(91.8001 -4.29138 0)
(91.5475 -4.11007 -4.02959e-20)
(92.3065 -3.78842 -2.04172e-20)
(91.3933 -4.14776 7.8068e-20)
(91.6343 -4.31486 0)
(90.9189 -3.81246 5.54336e-21)
(91.367 -4.13439 1.49351e-19)
(128.224 -19.3307 0)
(133.345 -15.7164 -1.68623e-19)
(128.257 -11.3045 -4.41754e-21)
(132.864 -15.2259 6.16103e-19)
(127.959 -18.6272 0)
(138.938 -8.71887 0)
(133.611 -14.5964 -3.73902e-19)
(129.245 -10.1175 0)
(91.8363 -5.20262 -3.87608e-23)
(91.8231 -4.65107 -1.26375e-19)
(92.9035 -4.55306 -1.4716e-19)
(91.6498 -4.64434 1.12545e-19)
(91.567 -5.20811 0)
(91.6434 -4.33313 2.66239e-20)
(91.6584 -4.61411 2.16644e-19)
(117.506 -23.1926 3.67095e-19)
(122.116 -22.0761 -9.59101e-19)
(91.6058 -6.5357 2.53764e-19)
(91.8076 -5.9028 -3.01282e-20)
(93.5611 -5.64764 6.34121e-20)
(107.142 -28.3088 0)
(91.3274 -5.89023 -2.28388e-19)
(90.6766 -6.49603 -3.45836e-19)
(91.5715 -5.24763 -6.12914e-20)
(91.3487 -5.84419 0)
(106.908 -28.2041 1.78996e-19)
(107.623 -22.8168 7.81474e-19)
(111.698 -23.4158 0)
(108.925 -28.2846 1.65742e-19)
(78.2202 -7.63705 2.67019e-19)
(90.6075 -7.38907 -4.58582e-21)
(94.5761 -7.1978 4.01312e-22)
(98.2572 -23.4196 2.60242e-20)
(88.9548 -7.22723 0)
(52.6125 -8.09851 1.18422e-19)
(90.6398 -6.53829 7.15124e-20)
(89.0083 -7.16246 1.41741e-18)
(98.8142 -24.0824 0)
(92.438 -0.943033 -7.48498e-20)
(90.2453 -2.40436 6.88009e-20)
(87.8009 1.08154 8.47721e-19)
(87.9651 -1.54811 -4.02994e-19)
(86.0245 -4.88466 -3.15604e-19)
(80.6779 0.153796 2.03975e-18)
(135.634 51.3734 3.50899e-17)
(111.518 57.9153 4.15078e-19)
(91.1867 -3.13607 -9.59904e-20)
(90.794 -3.67354 1.81214e-20)
(90.1316 -4.31477 -2.97519e-21)
(122.144 -23.1632 -4.97113e-18)
(116.011 -17.3161 -1.54563e-18)
(113.351 -11.5542 0)
(117.044 -9.00231 5.03379e-19)
(106.719 -27.2674 3.10058e-18)
(114.597 -26.2619 -7.75944e-19)
(116.858 -25.9124 2.0461e-19)
(99.6865 -23.528 2.27122e-19)
(103.367 -20.4885 -9.40117e-20)
(106.464 -22.3599 -1.84571e-18)
(89.9217 -4.45202 -1.29104e-20)
(86.7481 -4.99756 5.20772e-20)
(88.5145 -2.03702 6.15697e-21)
(89.4313 -6.74363 9.23957e-20)
(68.2628 -2.10705 9.57125e-18)
(78.5744 -11.4096 -1.60587e-18)
(117.368 36.1721 -9.33435e-19)
(134.549 29.4288 -2.09558e-19)
(125.494 20.3294 1.3104e-18)
(117.197 -25.8211 0)
(119.448 -25.3784 0)
(119.722 -17.3737 0)
(121.937 -21.3791 4.56294e-19)
(117.419 -22.5133 -7.19371e-19)
(127.283 -19.0133 0)
(122.597 -21.1491 -2.454e-19)
(120.809 -16.8952 -9.87078e-19)
(106.301 -28.3175 1.24321e-19)
(90.5676 -26.8483 0)
(101.366 -26.2995 0)
(83.8454 22.8431 4.42327e-20)
(82.7889 10.2579 -1.06921e-18)
(78.8257 1.39031 7.40315e-18)
(113.941 38.7106 3.96784e-21)
(100.561 29.0625 9.59476e-19)
(85.4698 25.4288 -4.17114e-20)
(137.82 48.9158 -1.57475e-16)
(129.767 36.6183 -5.17735e-19)
(136.414 48.6348 2.26162e-17)
(112.531 54.2309 -4.88189e-19)
(133.932 50.2437 -3.45111e-18)
(126.895 37.9023 -1.00592e-18)
(144.235 7.07347 -2.38684e-19)
(144.281 7.88428 0)
(136.446 -12.8236 -1.89359e-19)
(136.827 -12.388 7.70959e-19)
(121.846 -24.5389 2.90275e-19)
(122.541 -23.2814 -4.99462e-19)
(124.813 -21.0681 0)
(124.194 -23.1918 2.34905e-18)
(122.439 -24.2224 1.39486e-19)
(125.314 -21.741 6.35406e-18)
(124.286 -23.0626 1.19288e-18)
(125.491 -20.7666 -4.20233e-19)
(91.8694 -5.53801 1.79514e-19)
(92.8021 -5.49093 1.38946e-19)
(92.9088 -5.74466 0)
(111.845 -26.2206 6.48362e-19)
(113.913 -26.285 9.28607e-19)
(107.518 -27.435 -1.02505e-17)
(91.4621 -6.95986 -1.43021e-19)
(93.4489 -6.99066 1.01334e-19)
(93.5775 -7.37571 -8.86057e-20)
(93.2866 -6.56366 5.0002e-20)
(93.4089 -6.87631 -1.0081e-19)
(91.4944 -6.89439 -4.26687e-19)
(87.3604 -9.67096 -4.17181e-18)
(89.2279 -7.07235 5.69917e-18)
(88.5843 -5.45375 1.97282e-20)
(89.3217 -6.98899 -2.39983e-18)
(87.2357 -9.14677 7.13254e-18)
(89.9223 -5.06519 -1.23038e-18)
(89.5054 -6.69826 -1.29646e-18)
(89.0516 -5.27896 0)
(81.6944 -4.02527 0)
(78.891 -9.94952 1.288e-20)
(70.4102 -1.6676 -4.45342e-18)
(86.6895 -9.41692 -1.29063e-19)
(80.1612 -10.2465 1.41562e-18)
(82.7955 -4.78128 2.74762e-19)
(80.0399 -11.6381 -2.75112e-19)
(86.8881 -9.99273 3.56867e-19)
(141.962 21.4506 1.8472e-18)
(141.54 22.4565 -6.34407e-19)
(90.8198 -3.63635 2.08515e-20)
(89.6906 -3.62519 -4.23993e-22)
(90.8265 -3.64382 0)
(90.5051 -4.03864 -3.91917e-20)
(89.9632 -4.04796 2.86187e-18)
(89.9107 -4.91556 -1.27582e-18)
(89.734 -3.632 -2.37361e-20)
(89.9338 -3.94541 -5.64226e-21)
(90.5734 -3.92839 2.63303e-20)
(141.677 -4.35335 -7.21761e-19)
(141.925 -3.71835 1.1986e-18)
(141.435 -3.48336 0)
(137.504 -1.9033 2.10529e-19)
(138.196 1.58077 -4.36025e-21)
(135.981 -6.06065 6.9934e-19)
(137.184 -3.00165 0)
(141.198 -4.12009 0)
(143.592 7.90864 -1.13155e-19)
(138.285 8.01041 1.10174e-19)
(137.511 12.1469 -2.18225e-19)
(138.327 2.81137 -9.41742e-20)
(138.389 6.6752 -8.14841e-20)
(143.566 7.10255 4.40555e-19)
(91.5414 -4.21247 1.5093e-19)
(91.5575 -4.22476 9.17734e-20)
(91.1143 -4.00265 1.15971e-20)
(91.147 -4.02766 1.16664e-20)
(130.414 -17.7869 7.53268e-20)
(125.579 -21.4637 0)
(130.768 -17.5132 7.71818e-20)
(91.6306 -4.89971 -1.18724e-19)
(91.6265 -4.933 -2.94921e-20)
(91.6802 -4.44399 2.58807e-20)
(91.6811 -4.46408 -5.22475e-20)
(122.122 -24.3305 -2.68951e-19)
(119.926 -24.9591 0)
(120.125 -22.6498 -8.6306e-19)