/*--------------------------------*- C++ -*----------------------------------*\
| =========                 |                                                 |
| \\      /  F ield         | OpenFOAM: The Open Source CFD Toolbox           |
|  \\    /   O peration     | Version:  v1912                                 |
|   \\  /    A nd           | Website:  www.openfoam.com                      |
|    \\/     M anipulation  |                                                 |
\*---------------------------------------------------------------------------*/
FoamFile
{
    version     2.0;
    format      ascii;
    class       volScalarField;
    location    "2.06";
    object      omega;
}
// * * * * * * * * * * * * * * * * * * * * * * * * * * * * * * * * * * * * * //

dimensions      [0 0 -1 0 0 0 0];


internalField   nonuniform List<scalar> 
12556
(
31.93061301
31.93144519
31.93235264
31.93320617
31.96661509
31.96712703
31.96750642
31.96823334
31.96971888
31.9724682
31.97687548
31.98238859
31.98736163
31.98935584
31.98716693
31.98244659
31.9772463
31.9725076
31.97023308
31.96819956
31.93480394
31.93352363
31.93233004
31.93128454
31.79358336
31.79603483
31.79868364
31.80109193
31.83520459
31.83699705
31.83908268
31.85812014
31.86505702
31.87794143
31.89863136
31.92509549
31.94846769
31.95882245
31.95143066
31.93008077
31.90496936
31.88404398
31.85430932
31.84408004
31.80638235
31.80261516
31.7992518
31.79621178
31.65812172
31.66253427
31.66715924
31.67101858
31.70560511
31.70902031
31.71384752
31.73720259
31.75430207
31.78534172
31.83585332
31.89910738
31.94399313
31.96406151
31.94701465
31.90093313
31.8457108
31.79847252
31.74835772
31.72624558
31.6823078
31.67511801
31.66927983
31.66426714
31.52434928
31.53017407
31.53633138
31.54160315
31.57724999
31.58323169
31.59338098
31.62589634
31.6621932
31.73300407
31.84447682
31.98283861
32.07772627
32.09561754
32.03372365
31.93993698
31.83650128
31.744562
31.66197543
31.6199213
31.56345429
31.55146605
31.54247178
31.53522032
31.39250661
31.40016144
31.40808785
31.41491655
31.45151715
31.46106842
31.47913671
31.52660724
31.60451842
31.75633102
32.0211941
32.36086527
32.63840393
32.60125467
32.37414466
32.13386171
31.92188765
31.74438207
31.60579402
31.52954055
31.4519239
31.43183711
31.41848487
31.40868281
31.26217429
31.27119679
31.28063664
31.28931647
31.32870517
31.34426637
31.37632579
31.44816322
31.59194908
31.9180651
32.59439428
33.8008233
34.8077602
34.38188786
33.36723706
32.65457724
32.1814829
31.82928332
31.58539226
31.45841658
31.3487069
31.31519427
31.29597427
31.28302011
31.13418841
31.14488329
31.15632984
31.16736079
31.20909474
31.23290834
31.28499235
31.39337142
31.63780597
32.29477646
34.01169712
39.44281745
45.7224475
42.7638113
36.05041375
33.79300039
32.70983815
32.04070116
31.60508887
31.40835163
31.25315674
31.20198826
31.17465611
31.15793293
31.00801822
31.0202084
31.03356687
31.04753245
31.09394797
31.12843506
31.20614827
31.35505845
31.7393096
32.84989009
36.33867817
53.64922671
70.11422571
42.28198538
35.83764465
33.58034858
32.40110998
31.67891426
31.37594894
31.16560299
31.09182903
31.05428001
31.03307459
30.88522544
30.89940598
30.91556835
30.9333933
30.98446963
31.03190592
31.13903111
31.33135836
31.87608072
33.43126984
38.28026067
64.11004851
130.905107
51.54419409
38.67707177
34.73197767
32.87981886
31.79638588
31.3593695
31.08559848
30.98645818
30.93639203
30.91010994
30.76551623
30.78140903
30.8001731
30.8224566
30.88132193
30.94315912
31.0811534
31.31955039
32.01830647
33.91544641
39.47308482
71.12510818
163.7131561
59.72264689
41.64787718
36.00297959
33.40588535
31.93672646
31.35527948
31.01306339
30.88666261
30.82310558
30.79112694
30.65092523
30.66907601
30.69133902
30.71976424
30.78348662
30.86174886
31.03042758
31.31875987
32.16306354
34.33378019
40.4744893
80.62462321
164.2412591
64.5988457
44.15441002
37.17088171
33.91062395
32.07310136
31.35733589
30.9471593
30.79495639
30.71718634
30.67912693
30.5400011
30.55997103
30.58529564
30.61988173
30.690965
30.78669527
30.98500337
31.32714881
32.30635435
34.72640364
41.60267501
91.79018966
152.2871489
66.63466221
45.88915659
38.06464057
34.30709064
32.18330444
31.35976454
30.88739206
30.71034013
30.61960016
30.57527824
30.43508849
30.45750368
30.48702233
30.52853248
30.60307207
30.71673957
30.94307284
31.34122876
32.44678643
35.11682361
43.07547551
102.1826657
686.1698419
131.3213352
66.96094238
46.84922686
38.6632148
34.56496872
32.25267748
31.35366435
30.83131432
30.63350094
30.53023404
30.47999815
30.33320332
30.35782731
30.39133902
30.43897592
30.52303558
30.65974601
30.92110204
31.37479999
32.6284396
35.64041418
45.42817726
151.9568871
429.2594162
122.5319308
66.5505884
47.34276564
38.91287238
34.66978233
32.28122428
31.33477964
30.77373027
30.56060737
30.44685187
30.39131869
30.23619424
30.26308488
30.30038644
30.35344426
30.44369146
30.59756666
30.88382707
31.37922005
32.70074667
35.91417539
47.90580065
484.8531929
307.1008828
114.7024954
65.6537594
47.29059252
38.91172928
34.65436214
32.26552828
31.30132594
30.71511742
30.4904219
30.3671119
30.30685308
30.14007059
30.1691143
30.21013347
30.26910413
30.36650901
30.53540431
30.84594421
31.37587962
32.73142224
36.04996611
49.93147117
676.7460175
273.9590015
111.1847814
65.16043723
47.06030218
38.70432283
34.54771924
32.21367348
31.25201842
30.64959194
30.41696863
30.28718235
30.223151
30.04733086
30.07856984
30.12294005
30.18671601
30.28997196
30.47187836
30.80574064
31.373922
32.76373673
36.16564558
50.98062499
590.6664329
266.3915091
110.1477243
64.6555611
46.62670822
38.3997645
34.40177773
32.13483848
31.18901697
30.57908525
30.34185684
30.20620205
30.1388734
29.95290695
29.98612747
30.03378436
30.10293998
30.21299707
30.40604412
30.76146311
31.37215983
32.82619279
36.39426887
52.64504509
522.8398016
257.8531335
108.6603368
63.58143319
45.94507835
38.04781852
34.22921791
32.03381018
31.10891038
30.49794431
30.25830999
30.12000198
30.05016466
29.8608544
29.89596744
29.94650658
30.01973756
30.13469096
30.33741728
30.71285423
31.36384322
32.91516538
36.82936599
56.40177135
530.7013063
238.8542414
105.0128489
61.89908981
45.18648033
37.7043628
34.04262307
31.91892267
31.01688029
30.40998525
30.17017801
30.03016656
29.95894588
29.76502409
29.80165755
29.85502381
29.93323815
30.05458244
30.26593091
30.66030808
31.3499082
33.00309101
37.39584701
63.05497941
554.6220766
216.4598823
100.4330394
60.37165484
44.51670686
37.37857028
33.85158188
31.79499939
30.91531268
30.31306259
30.07357323
29.93276735
29.86086432
29.67173282
29.709641
29.76527542
29.8468706
29.97222732
30.19169072
30.60442086
31.33200133
33.09361742
38.05406024
70.5638153
539.207892
198.8135647
96.51027008
59.15606573
43.93420101
37.0736075
33.66159488
31.66521914
30.80627995
30.2113223
29.97364083
29.83281482
29.76067514
29.57305298
29.61180457
29.66966509
29.755849
29.88753739
30.1148718
30.545873
31.31165174
33.19142264
38.87792338
77.6099141
503.7449378
184.6768418
93.11071683
58.13481093
43.44049646
36.79164475
33.47582288
31.53200613
30.69155468
30.10191417
29.8654888
29.72503329
29.65317552
29.47833438
29.5176633
29.57706455
29.66571648
29.80040368
30.03571925
30.4853467
31.29046086
33.30318592
39.99853336
84.07784433
465.5400602
172.9859463
90.12138676
57.23276082
43.02579855
36.53502993
33.29646298
31.39731631
30.5726663
29.99068672
29.75684316
29.61722413
29.54586762
29.37660088
29.41617746
29.47725148
29.57012461
29.71121932
29.9546237
30.42365434
31.27048179
33.44220552
41.41725025
90.02394764
431.2143634
163.0849803
87.46294294
56.41418778
42.66941382
36.3038476
33.12509118
31.26271193
30.45100485
29.87292951
29.64024349
29.50145332
29.43089245
29.28140727
29.32104642
29.38307044
29.47749618
29.62021092
29.87215004
30.36183433
31.25445527
33.62851728
42.97447625
95.43957249
399.7288725
154.5430309
85.07439333
55.66099207
42.35232936
36.09511147
32.96233648
31.1292886
30.3276541
29.75671318
29.52680514
29.38917428
29.31945302
29.17684431
29.2163685
29.27974227
29.3783752
29.52811245
29.788932
30.30098122
31.24542558
33.87933643
44.54480533
100.3373205
370.4871183
147.0665796
82.90780863
54.96171188
42.06203571
35.90442544
32.80783266
30.99764443
30.20352546
29.63387372
29.40444162
29.267684
29.19894179
29.08267696
29.12198881
29.18596205
29.2854106
29.43512129
29.70560216
30.24213716
31.24676074
34.19800077
46.07845503
104.7482771
343.2990368
140.4477696
80.92571423
54.3077247
41.79103197
35.72769032
32.66067115
30.86803511
30.07918199
29.51636755
29.28977523
29.15420853
29.08637654
28.97530709
29.01435228
29.07957237
29.18361992
29.34206471
29.62270897
30.18624322
31.26176532
34.57463079
47.56063116
108.676562
318.1149034
134.5325882
79.09810745
53.6918074
41.53454909
35.56162447
32.51977364
30.74048475
29.95515454
29.39013535
29.16305647
29.02821909
28.96135132
28.88394721
28.92268956
28.98836666
29.09264489
29.24882653
29.5407238
30.13421307
31.29323231
34.9942553
48.98608124
112.1220792
294.9551457
129.2031197
77.40086958
53.10784199
41.28927044
35.40374488
32.38414298
30.61493291
29.83160542
29.27438915
29.05030049
28.91654599
28.85050147
28.77320942
28.81166969
28.87861963
28.98815553
29.15636197
29.46007254
30.0869727
31.34286151
35.44319084
50.35318279
115.1090416
273.4970357
124.3658265
75.81442384
52.55067556
41.0527152
35.25216362
32.25290727
30.49128135
29.70893186
29.14476446
28.91912482
28.78592356
28.72074712
28.68681976
28.72499843
28.79241858
28.90179245
29.06414897
29.38115786
30.04546549
31.41137154
35.91107315
51.66288926
117.6558609
253.7211873
119.9455772
74.32298432
52.0161036
40.82298637
35.10543885
32.12533575
30.36943986
29.5870385
29.03399442
28.81155729
28.6792427
28.61474641
28.57133559
28.60928717
28.67804708
28.79331346
28.97350065
29.30438471
30.01070526
31.49824449
36.39032935
52.9153698
119.7788129
235.7636176
115.8802372
72.91368836
51.50062359
40.59855827
34.96243478
32.00081127
30.24933516
29.46640881
28.89903244
28.67418477
28.54232564
28.47859854
28.49271761
28.53047188
28.59983895
28.71507215
28.88335492
29.23016179
29.98330036
31.60224788
36.87556132
54.11002857
121.5517687
219.6500887
112.1199108
71.57579551
51.00118169
40.37812239
34.82220391
31.87876819
30.13096276
29.34673498
28.79782094
28.57600219
28.44474501
28.38154329
28.37002961
28.40763805
28.47842456
28.59945306
28.79588537
29.1590403
29.96381252
31.72187359
37.36329198
55.25013133
123.0807597
205.3379972
108.6268923
70.30081878
50.51527859
40.16060485
34.68398376
31.75877672
30.01454993
29.2290253
28.65258734
28.42863947
28.29786523
28.2353588
28.30267621
28.34023811
28.41183615
28.53457184
28.70958242
29.09183761
29.95264134
31.85549881
37.85108037
56.33827269
124.3791529
192.701108
105.3746212
69.08292844
50.04101606
39.94511574
34.54713216
31.6404197
29.90089527
29.11331941
28.5686774
28.34563459
28.21511997
28.15296006
28.14684088
28.18441941
28.25813135
28.38802216
28.62889285
29.0299756
29.95108184
32.00064726
38.3333283
57.36690071
125.4516597
181.6148357
102.3570577
67.92700986
49.58063067
39.73213426
34.41165649
31.52365056
29.79221571
29.00311135
28.38158481
28.15663674
28.02656909
27.96513309
63.46698443
153.5226146
78.75077804
70.05937956
196.2758142
159.3638919
79.42692136
194.406008
197.8463211
90.43648152
176.160421
192.2032888
101.0750547
836.8310247
716.6984121
158.7749017
173.527987
130.8652907
529.0754175
820.5295975
447.8909764
154.6873214
157.0770905
51.41583602
45.26396556
71.98043989
42.57288359
439.9965494
157.214602
124.0119749
55.98427688
45.87244548
39.22163399
60.03369458
56.0770617
1475.793911
1039.387309
161.8336191
68.08755792
59.3730104
40.25283781
66.69857401
60.72184431
74.66766801
216.1568158
191.6016901
853.4869379
1162.9064
165.3009665
74.83159834
70.31181667
41.37263169
74.7049909
67.62603473
84.43897504
321.8646585
253.0819995
491.9910453
645.9826473
42.76705514
85.19413314
75.73410841
94.00133013
505.5968826
399.5377375
1870.484137
321.7193245
374.2555087
45.02612801
106.8406037
86.79283977
110.9734767
1128.22655
734.1379484
157.5679578
404.5817588
521.1484607
151.8098927
182.3589757
96.43560434
146.3634056
1010.652652
463.1227769
120.7376793
375.583727
712.8218831
188.5699259
168.4630168
66.96741155
222.2588353
238.776932
188.2095755
218.9197484
1175.59002
1478.024003
180.299862
1038.978245
910.4584519
737.1434738
1035.690252
177.8450139
249.5836625
220.1939914
75.87962471
284.6038475
330.9484927
241.0422944
281.1973963
674.2362869
835.5480204
198.310894
642.5040563
510.6386922
901.4917921
664.6349476
198.9948323
394.9974369
325.4056721
85.78907206
400.9918782
506.918825
334.0068445
396.7360088
385.2742735
474.5672384
722.7604957
515.6724025
94.39184947
2761.968863
706.6949951
1086.410485
512.3783051
689.6768799
3194.968164
295.6953984
316.2478503
1646.861376
8515.837215
1138.945766
112.4439037
604.9616294
1781.21669
7564.405125
1095.845525
1748.941464
621.3023302
37.894503
55.51066222
47.93341698
59.31806449
120.4507626
84.35023434
2535.499472
440.8837896
66.38977926
166.0374177
144.7179573
5209.706562
154.1968275
76.9934622
75.72038261
5492.799491
707.4521304
784.8864679
545.1387953
262.1657348
285.5896121
141.5230383
123.5412829
60.59967188
1317.149006
210.9706161
499.1085911
132.6623642
333.4965071
111.6533231
801.8454025
1018.895559
183.0328095
393.0561565
334.7757116
494.3704562
403.860302
185.6330338
1153.026039
4219.984968
725.3988592
69.6154061
58.0009311
88.53725236
137.8505984
68.78182697
72.27031816
3448.022353
310.2940111
2454.592129
334.9258359
1810.249121
280.0211092
1200.113502
1184.110681
979.3216821
1000.868462
1920.240012
4364.379383
550.0743521
2298.575126
1270.843066
4889.398479
2726.560774
572.5554919
438.0508252
165.2454986
173.3310337
595.42059
674.8380482
4887.523518
796.1770688
220.1667828
234.5678881
203.0749775
214.7835273
792.7559771
1144.054258
1317.361472
163.9836317
817.631032
644.2147157
1294.094289
819.8239337
167.625568
121.2957247
354.9589682
171.7567788
562.6078367
384.1063688
129.4430688
525.3380604
819.7478651
710.8168306
674.0481981
224.6350493
1466.829042
225.2101643
202.0413878
1394.902547
1316.703731
1458.261847
1404.610503
206.1260917
1242.182863
1254.207869
962.8870954
336.0587034
327.1563887
338.3579687
337.4167048
956.2694904
876.5256884
298.4133087
273.7748734
322.9098365
305.6437427
893.3292238
305.740573
308.7402917
258.1254053
260.6032409
713.9652299
5068.18248
726.8636522
433.1698993
440.2846086
364.4798593
368.7890228
1201.632608
885.9871802
430.7859827
1078.201007
1780.751332
571.5419004
188.6296308
199.0906291
176.2423163
185.3924163
562.2904669
1262.976484
755.6528513
769.1808529
552.0488267
557.0076439
5722.539223
976.6581315
511.7495911
571.6433004
240.8391873
253.4691434
1415.059982
2859.258381
1442.905078
2449.068569
1136.469864
6354.784996
2727.937472
5433.157107
1132.620415
691.9270961
3826.133764
1844.276826
3145.295809
1802.985993
2460.427362
47.27139134
116.6158594
110.0841542
170.4899993
4189.578275
7770.59554
320.5969838
141.6108722
151.5158931
1022.160552
2844.939006
4061.693208
450.0244436
492.9054219
918.3862021
240.8630244
254.6062175
530.9366917
136.1674842
99.51809469
193.6018428
354.1760244
123.0455598
143.3382323
1387.036701
3348.924129
3510.659054
1112.375435
908.7522684
2504.612907
1844.605163
4219.67342
4160.566582
1111.947948
294.128629
133.0680391
138.146935
126.8148232
131.4515398
288.1985991
155.8146689
162.8562861
433.1200389
1037.821079
407.7797954
428.1281205
6380.125222
3186.35432
484.3554056
876.6028365
3013.044955
3335.843203
498.7371727
221.0863087
186.4578146
263.8210801
232.9224915
521.2715759
1206.67679
4164.013319
4226.838738
1408.577664
236.1916612
121.0794211
125.3508556
692.023853
677.1635873
321.0909506
1746.086099
1608.424971
789.1040243
582.3009159
305.5438988
316.6805502
809.7705061
332.4609676
337.6246921
320.5707597
329.6689337
795.5500255
356.0095394
147.4282055
153.6513893
139.9126431
145.4665229
351.3953261
413.7903294
1019.963054
1008.908952
1635.380396
1585.607336
484.7619611
345.758617
731.5518516
694.535663
1004.098003
995.9708818
384.5829328
417.5013783
854.438966
692.6865725
5886.246272
1872.66359
731.6193687
914.4506273
528.8230847
1670.7912
1643.18293
1680.42869
602.5970597
4760.714503
8791.986385
323.3683847
375.0946409
435.8253
454.4508906
1150.245104
1678.803794
1041.205786
561.0824541
1802.821913
7954.369866
1538.513571
1357.918686
16018.11818
1107.940142
1662.574117
1539.492298
1877.913559
1384.873938
5157.130666
5227.569521
1231.590063
1604.777119
5704.275167
1382.42017
1316.901983
327.831569
1197.455771
490.5964134
1197.801417
355.8630268
3986.708866
2716.559294
902.4003197
4729.410671
5533.691392
4438.345139
3076.745501
978.1283098
4600.136094
5734.032134
3041.44156
4364.605507
6061.927651
1791.903966
2674.09926
1242.808072
1585.834788
5458.413962
3507.318595
1029.423717
638.1384747
1665.977339
1132.095704
576.2871652
366.8614112
1024.312391
3688.692278
4658.113876
1319.321119
1129.647507
3552.836046
3696.426651
2742.879989
2600.697283
929.848043
4535.541735
4451.241254
3249.812859
4412.464654
4414.207387
1083.211663
4309.023727
2821.953466
2867.626758
3229.810583
1731.414808
820.3099708
884.8394877
3651.089465
1029.629485
1163.052779
911.2087597
990.9254513
3420.270122
3499.504089
962.8706707
1135.089668
378.8624003
400.7437625
942.2958387
762.8440858
357.6773045
373.3710295
1257.936662
1273.553492
800.4196866
280.5866571
303.593222
253.7994145
273.9279828
792.1687731
875.5339473
346.6325887
380.536338
311.9905125
337.6333945
881.3402737
496.3680953
229.2914195
247.9987626
728.0020108
762.1595125
2160.288185
2256.658307
830.6674752
3197.324037
3219.014922
4083.039525
2207.257377
1846.939633
3105.75015
2182.905831
569.7207955
1558.396789
2063.796929
1514.575054
495.2689032
561.1118619
468.6223786
483.9512875
1475.007707
614.0037045
626.5310657
582.9609723
609.5164958
1367.118806
412.3299228
426.8118511
389.2420492
407.2617339
1355.733528
1435.794527
450.0552102
463.4858416
431.5530663
445.4577142
1430.975616
4055.17307
4121.964445
1216.171012
1353.291666
4268.471703
4034.212068
953.8004592
960.1560823
925.2287516
951.7506643
975.1523106
989.552164
962.4340823
972.1003019
646.2672417
658.3317504
630.4643663
642.1296491
702.377535
880.2873769
664.0949173
678.37661
1514.493147
1767.476149
1210.600082
1410.225269
5305.98872
2783.117978
3038.33657
1886.53827
2672.850574
1035.208316
1026.526799
418.4210477
1662.402969
1667.827431
1626.668486
1651.955092
1716.066748
473.2980932
1547.777249
1091.411677
962.8840424
753.196386
350.0901745
1041.825073
1522.37892
990.574964
1052.151344
1587.432137
1613.564651
1543.337431
1576.430419
380.6305983
993.3958183
982.2190731
5608.718863
1278.243655
5461.948334
4685.647924
5440.054281
1367.978508
6091.28822
1660.857416
5819.501379
4992.340823
739.0205432
825.6193147
1707.349624
1676.332292
533.9659149
585.7845475
1776.768879
1710.502154
5661.358483
1194.485196
467.5678487
514.6247936
5873.423056
6674.695653
1884.345021
7255.233803
5199.507696
1932.281598
1109.922451
6321.976484
3586.976558
7025.734854
4043.623319
1601.887605
64.96940711
43.02515546
36.97938209
5596.69443
5572.371135
143.9544449
76.68342768
77.05818679
5834.914516
937.8297157
2732.759858
1843.309346
326.3855789
273.4436083
167.0274696
302.9723172
218.0080497
459.4140373
1663.342581
297.8586426
325.9486352
54.11862093
63.51195805
121.2238486
384.6207637
738.8082914
1081.924746
204.83363
110.7753116
114.4813326
106.0999344
109.5756461
201.3759311
827.8193448
919.5787064
2999.654115
661.6862526
582.8319051
349.8529401
338.877429
353.0058672
757.3045709
1175.148754
1497.659715
537.5260089
115.7548094
119.7179517
232.1865877
293.8178751
639.4693197
612.1934664
589.6318009
522.1637651
271.4199569
640.3527835
319.752772
334.2322012
4421.438895
4121.259006
2442.898499
1694.126514
1671.235014
1062.579388
3698.571883
5648.286268
5030.815332
1246.709846
732.0252743
807.2239038
1784.26724
1101.658353
1729.953174
1716.389933
1749.020357
2708.443172
5032.682993
3448.846962
3877.989366
5421.754976
1477.539126
1193.129068
716.2592991
1343.596991
174.1030544
138.7113523
240.758533
872.4499589
2303.866495
1632.373965
5869.164021
6200.081357
6317.699558
5232.519834
6028.64914
94.15752775
117.9784478
285.0023903
2817.931208
1851.210127
1432.076154
3606.665288
2863.031275
2104.611289
3876.854603
3533.569959
5539.012218
5244.061217
3769.053027
745.4853127
801.6379581
1594.271685
5048.031555
2649.117244
2972.518816
4232.689497
2502.288652
2927.874809
1192.01676
1587.672768
1301.717587
810.7315025
549.8269073
558.0865338
1255.827031
770.0055978
812.1273778
563.1973815
574.6797809
834.7996206
202.1352955
223.8566484
468.6430213
596.5250258
1072.791234
770.5113975
1249.921456
1299.854812
823.229199
1823.446112
1319.350789
1372.655984
905.9053489
908.421451
1471.714079
1481.785973
1495.981448
1405.523897
1427.933404
1383.786324
854.9576881
859.5420829
830.0968385
836.4235048
1331.584674
1451.401471
894.3591855
898.657194
864.4585429
869.4286418
1413.68398
656.397549
644.0659429
296.8188508
318.0663412
673.0791246
660.3763207
490.220167
477.5670331
250.5972455
1535.105125
1537.603657
1501.603969
1506.741607
1900.000337
1545.582443
1546.706076
268.5984557
510.6186083
495.3161388
4959.903282
4903.595478
3102.908001
3299.055745
5034.132343
4947.883519
5147.849128
774.0706433
1551.489175
1298.261307
302.9156299
315.2164703
611.5415303
543.7298647
289.5541703
299.4626125
1090.283678
1090.090126
752.2592177
771.8271797
1098.634801
1102.974606
5668.94714
1493.327432
974.8996058
961.9111284
12506.39341
2347.263319
1743.512353
4646.547432
3790.299355
1802.244883
1779.826656
1121.021253
6125.781934
6675.335931
6377.495919
4996.034111
1192.833234
1849.3871
1791.071811
2763.625943
995.7413692
1159.190717
5496.719361
5404.197466
4168.693526
3860.754305
2202.997458
1238.290029
1372.456189
1386.206825
3307.247311
5512.802564
4683.719073
5570.324134
5326.904945
3770.339976
193.1540209
270.5830437
868.5111128
3564.113079
3480.713397
3654.424403
3634.249282
3430.951708
2224.108317
2202.707881
2245.792483
2227.479145
3438.262131
4255.828255
2402.985845
2420.696954
2307.901111
2375.144295
4328.583156
3150.997859
2015.767564
1818.360793
2186.484451
2126.510832
3235.182599
4146.190859
2460.304167
2476.581467
2438.970872
2448.059324
4189.220606
3749.6059
3678.917381
3848.988827
3668.102644
1018.010744
705.4010494
709.1967072
1620.281294
1029.074929
1033.320373
1001.363106
1022.398382
1608.524628
5565.736272
5792.868505
5046.436342
5643.669722
1690.230692
1704.40965
1660.662094
1676.032097
2148.169671
1007.288153
1624.997098
1561.368005
1660.226894
1039.781446
1043.610653
1035.227336
1037.99921
1653.383904
1596.634571
1639.148759
1119.644594
1534.421185
2119.513322
6005.52573
5591.605596
4206.6364
5842.786745
855.9740746
1210.122485
12892.25012
1151.710718
790.8855441
794.5947777
1805.828453
7581.331786
7836.413755
9224.146512
5900.398004
5479.350697
1746.146968
1734.318034
1102.721664
1711.569075
2345.054878
3285.018752
2311.893259
3105.154943
2320.957845
920.0153665
3201.740694
2342.220493
5211.657962
5413.653987
5651.9292
4217.530201
4840.613668
1342.682499
1673.632627
1033.202746
530.3829016
718.2711569
1114.171108
1221.390899
747.7227555
1088.300236
1422.748943
5374.468028
5646.373216
5284.53204
5219.48941
5993.604114
5943.230769
5790.990428
3496.040274
5109.716485
4639.816415
5749.875972
5948.029516
3922.4789
4249.637677
4696.362293
5983.155628
4860.13605
3434.79203
3777.788228
2648.626933
1914.828729
2686.616475
1418.759575
2053.428945
2730.79427
3001.328316
2779.767086
3838.141701
2411.371485
2282.346676
3284.437023
2379.844122
3597.671793
3600.88086
2267.723554
2249.583189
2295.521009
2266.511618
3623.923152
2696.820322
1624.644182
1651.483267
4483.20848
4476.12448
3804.051896
4912.276498
4731.678988
4554.433659
4494.51446
4707.82106
3551.033474
1935.194533
2156.353162
1694.023254
1776.864601
3026.926745
5276.232517
4451.421435
2408.031669
5624.514885
5381.553251
5361.336121
3426.96082
5265.65304
5097.524564
2008.17232
2261.045537
4294.156391
1232.273913
1294.267874
623.414015
697.6890077
1208.701214
833.9760181
579.3118021
603.3420391
1187.621762
1150.2537
684.666615
1174.968701
1514.823945
766.9833272
1243.393538
1225.98067
2161.282153
1490.539871
1466.482843
1637.627389
1584.988963
2283.847628
3384.658548
3166.30795
2067.91396
3026.462651
3171.398923
2850.882363
2998.922298
2031.793719
3038.39296
2975.290572
3825.212472
2842.252838
967.7383687
960.0621694
1437.329376
1482.255978
920.4250695
917.2599156
1462.070219
1474.151202
1440.585374
1452.829908
847.5855284
851.6014616
1378.725849
1343.903288
840.2439661
843.8182707
883.8478168
888.3280211
1442.196238
1423.66785
874.6930318
879.3317419
4094.9101
2514.825218
2528.279777
2485.293112
2497.956188
4081.726145
4062.600788
2773.668573
3209.351374
2557.204473
2618.774927
4049.776111
956.059493
1527.208195
1516.867319
1541.723242
1534.933778
957.9809937
942.9759793
1482.035139
1464.305742
1507.184029
1495.65086
948.8320172
980.3995848
1586.908683
1576.889192
1601.649813
1591.906079
982.9904767
965.1672222
1554.972841
1549.016484
1570.904225
1561.751173
967.9509993
1524.143593
1528.121806
650.149709
940.6076724
937.8629952
947.2954779
945.0479016
654.7437826
1513.513351
1518.117012
1590.613403
1507.380215
723.3935811
1003.668336
1013.249506
1429.157816
1375.943541
801.1672737
666.597167
954.4978609
953.3363296
962.1350783
965.7814341
676.6865632
1557.661723
1550.529304
4914.384023
4776.700119
5114.066403
3522.865861
4153.1679
2868.043643
4730.699027
4793.122657
4718.358144
4729.246502
2931.066635
2100.94382
4013.85936
3392.708727
4642.268452
4779.572309
2424.194441
1039.395199
729.537778
731.370152
715.7596749
718.3730605
1027.194051
1662.833679
1676.798677
1632.450575
1649.215138
1620.923025
2056.806767
1483.338202
863.4177394
951.3985268
757.6825489
780.2763623
1080.470153
1428.267694
1974.557544
1562.703523
1486.262557
1002.506615
1615.551508
1602.273935
1651.758037
1607.953794
998.6780901
1594.971039
1606.731788
1555.779762
1567.561072
5248.455348
3379.705202
3621.639739
2516.29949
3027.469756
5338.535776
5368.769971
5197.549454
3947.580748
4543.802761
5719.546996
5622.10044
4173.334919
4432.943499
3281.928111
3750.032546
5801.153089
1736.3488
1737.403772
1719.342439
1722.700327
1144.846741
1156.72112
801.3607321
1798.920836
1701.251964
1755.35325
1745.991989
1692.511396
1053.068746
1060.999086
1045.64658
1051.20317
1688.717154
1729.456305
1074.604717
1131.6572
1062.657697
1077.469889
1732.65507
5451.096982
823.2486184
828.8735902
1198.226815
5707.042981
8632.520602
8989.713123
8434.552734
8459.914662
6328.521531
1833.355737
6286.062032
4466.315485
4855.103479
1118.57217
1770.748205
1754.327947
6287.304353
6916.068994
6661.891673
5426.776834
5918.76544
7325.407258
6960.737986
4435.117367
6593.433081
5663.019593
2191.70533
1762.195884
1181.624751
31.76673877
31.7764029
31.86263555
31.78055666
31.79868611
31.8735929
31.80587657
31.83556414
31.89206084
31.84667553
31.88501888
31.91754845
31.89767645
31.93175135
31.94293966
31.93819026
31.95515783
31.95765595
31.9565612
31.94881411
31.95552169
31.94298527
31.91309683
31.93693824
31.90263744
31.86764096
31.91177818
31.85710553
31.82560698
31.88917049
31.65269085
31.67339671
31.74911016
31.68280925
31.72334356
31.77631634
31.74117227
31.80828806
31.82232855
31.83347573
31.91870137
31.88466983
31.94197753
32.00214374
31.93573441
32.02049057
32.04162141
31.9631371
32.03673558
32.01508767
31.95399961
31.99961969
31.94303071
31.91397083
31.92189505
31.85477343
31.8585835
31.83272884
31.77151906
31.80815279
31.550423
31.59408885
31.65068163
31.61527744
31.7032283
31.712169
31.74086128
31.89199401
31.81424183
31.95226351
32.14799131
31.94789369
32.19440048
32.36993402
32.06424012
32.39185901
32.42632114
32.09548351
32.38032967
32.30478135
32.05119294
32.25707957
32.12053508
31.96479033
32.07271182
31.93069917
31.86235608
31.88710468
31.77099741
31.76375687
31.46539199
31.54924624
31.57909398
31.5898243
31.7715819
31.70959097
31.85951349
32.23447256
31.94441051
32.39378939
33.02529906
32.25687197
33.17281699
33.72299957
32.60022799
33.81964977
33.84117756
32.58916163
33.58980868
33.19636853
32.4247148
33.02873448
32.62409526
32.19371461
32.50308869
32.18451506
31.97217306
32.09359881
31.86833484
31.78354349
31.40511347
31.54641299
31.54425415
31.62163128
31.99137296
31.80981274
32.17992
33.08560988
32.38235074
33.55017393
36.00153485
33.37138287
36.98385618
43.02813487
34.62164749
43.19870381
40.66832231
34.46015264
38.5772105
35.82240207
33.5649689
35.1365254
33.79374776
32.80688319
33.47325316
32.73912733
32.28401207
32.54798223
32.09971616
31.90934528
31.3641637
31.58900371
31.55230974
31.71472915
32.35861656
32.0673654
32.71043583
34.59808396
33.4048921
35.73784403
46.33125606
37.10999257
43.10978534
49.72781996
41.39860016
62.03169943
60.02126706
45.8284088
48.57337169
42.85541954
40.20095959
40.32855538
36.10426348
34.19724927
35.31469029
33.69570468
32.92859474
33.32360349
32.50522521
32.18069014
31.33610665
31.65938149
31.60084887
31.84087786
32.77622616
32.45451517
33.29429532
36.14588685
35.01881153
36.92200787
39.09951471
38.29815658
55.78947453
63.38704276
60.34304758
93.1634092
66.59771783
55.79606169
49.15692798
39.63460671
36.8159956
38.06788837
35.08762464
33.99945513
34.44395703
33.07569101
32.6301334
31.32133676
31.74788034
31.68091588
31.98201214
33.1618344
32.87778884
33.80212304
37.20471589
36.44927675
38.6307586
41.41773959
40.96036913
64.91208646
77.00942144
75.75248273
148.0148718
92.11274676
82.94898217
57.92941021
43.49638
40.49849051
41.12037756
36.65661958
35.42844703
35.70915146
33.73548315
33.23187558
31.31806908
31.84403698
31.77177348
32.1254161
33.50345558
33.25112357
34.23254429
38.00823382
37.41179572
39.74456163
42.90004937
42.53087249
72.2497445
95.71293673
92.88480047
166.6589368
106.0403396
102.3707166
63.61826901
46.66456922
44.25068224
43.71797608
38.12689936
36.99233989
36.90921527
34.37798723
33.89397531
31.32364049
31.9440326
31.87040798
32.26872915
33.8222505
33.5855556
34.6296047
38.79243382
38.18742782
40.78610311
44.47519043
43.97300097
81.85494742
112.0490631
108.5941171
160.5882279
108.4556001
108.5331018