/*--------------------------------*- C++ -*----------------------------------*\
| =========                 |                                                 |
| \\      /  F ield         | OpenFOAM: The Open Source CFD Toolbox           |
|  \\    /   O peration     | Version:  v1912                                 |
|   \\  /    A nd           | Website:  www.openfoam.com                      |
|    \\/     M anipulation  |                                                 |
\*---------------------------------------------------------------------------*/
FoamFile
{
    version     2.0;
    format      ascii;
    class       volScalarField;
    location    "2.06";
    object      p;
}
// * * * * * * * * * * * * * * * * * * * * * * * * * * * * * * * * * * * * * //

dimensions      [0 2 -2 0 0 0 0];


internalField   nonuniform List<scalar> 
12556
(
787.9126106
787.4627304
786.1634798
783.0964119
778.0992707
767.0129145
747.9151245
716.2553868
667.3385325
594.9924079
493.6613501
361.0314304
201.3294963
25.95096852
-149.2009408
-308.5000031
-442.4134219
-548.0662544
-627.1967231
-683.4620529
-731.1812886
-753.0796808
-765.8321219
-771.7975085
788.1997855
788.0422739
787.3314419
785.3685637
780.4907967
771.3488669
754.7993332
729.3863528
686.1453284
620.1395392
524.4837917
394.4925412
232.3408881
50.35703848
-134.6713963
-302.9297238
-442.5221621
-551.1339109
-639.5354344
-692.6486648
-739.6179529
-758.9892091
-770.318955
-775.5773828
788.8181808
789.3179799
789.9923073
790.2580052
787.6584892
782.7314557
772.2805704
751.3803722
716.781939
659.6194869
566.0455115
422.8417806
240.6911708
37.29891779
-160.847
-339.1788738
-483.0390739
-587.5434362
-673.759608
-718.6956338
-759.1015806
-773.1454591
-781.2633841
-784.9146234
789.2452345
790.6744133
793.3745918
796.8003179
797.6017717
798.9131321
797.5564377
786.1618508
766.502795
721.1812218
627.9475008
468.1590847
234.1351037
-22.21377303
-247.7352535
-423.8251622
-559.9964168
-655.7669012
-727.8519179
-758.4927058
-787.6656704
-793.9940005
-797.2879619
-798.5969373
788.5635212
791.0504564
796.0496046
803.3783094
807.8225445
817.5143658
827.4854626
830.4843315
831.3609893
810.7279818
736.7687152
552.5419897
227.7591247
-146.9889233
-423.2377363
-592.3388309
-692.819671
-754.6506415
-800.1854838
-810.2889941
-821.0117883
-818.052398
-815.4258226
-813.8982066
785.7254338
789.2630298
796.4733565
807.6108901
817.2975497
835.147292
857.9658981
877.4860677
909.6381321
941.4681382
937.4815705
784.3045871
260.723655
-397.4436077
-738.0365727
-854.5327092
-883.6312271
-886.5737485
-886.4046175
-868.170869
-855.5097767
-841.9734716
-832.619117
-828.0192356
779.7279617
784.1774353
793.3027953
807.7784237
822.4559457
848.015063
882.3926307
919.8642725
988.8136748
1093.921394
1244.08785
1382.018758
534.7750767
-1036.059943
-1251.279093
-1199.570897
-1116.210709
-1037.381867
-976.8244712
-924.6345482
-886.7215605
-861.6843877
-845.7374934
-838.2176928
769.7119824
774.8181574
785.3158943
802.1510848
821.3655566
852.51071
895.2614378
947.7828728
1045.99603
1207.484582
1480.851669
2012.70957
-2726.659391
-1952.69718
-1568.118941
-1339.873545
-1178.280891
-1053.140976
-970.2510333
-907.0468597
-872.7129905
-851.6174358
-841.6887257
755.031926
760.4522871
771.5902811
789.519261
812.1135577
846.0562657
892.6557579
953.6376427
1063.189023
1230.300075
1461.255469
1722.207562
-4126.15906
-2454.254111
-1818.963166
-1488.61167
-1270.086074
-1096.896567
-993.6495523
-911.417607
-871.4069076
-847.3862998
-835.9891213
735.3409318
740.6971198
751.6724914
769.3007769
793.8899064
827.6102466
873.3909807
935.7749331
1039.839871
1183.674985
1343.298162
1474.388436
-3824.013134
-2444.836548
-1838.762284
-1504.562336
-1283.759117
-1095.784053
-987.872612
-896.661809
-855.8713166
-831.4201621
-819.7492938
710.6404633
715.579354
725.640854
741.5870363
766.9174673
797.6526252
838.757134
897.1227153
987.5296865
1102.781865
1218.614046
1313.969831
-2874.185831
-2066.020117
-1656.189127
-1405.32844
-1220.821616
-1048.46847
-952.0991418
-862.746119
-825.883684
-803.5028596
-792.7371018
681.2558294
685.4762238
694.0734144
707.0058985
732.4211016
757.6795025
791.3157127
841.8225114
914.4132698
1002.764527
1093.009064
1191.428075
-1883.969242
-1547.882757
-1358.182555
-1218.131628
-1097.465293
-964.602201
-890.9538431
-812.5008494
-783.1781483
-764.8013875
-755.8666447
647.8149286
651.1079208
657.9403325
667.6575489
690.2933444
709.6130785
733.9773916
774.553794
826.7043724
886.8888224
949.5583124
1046.598655
-765.4860615
-974.9538176
-1045.295378
-1033.804658
-998.2492925
-944.6886591
-859.9557256
-812.8397317
-750.9720817
-730.9639868
-717.5506904
-710.9833717
611.0960205
613.3718318
618.2575571
624.9165804
643.8339448
656.7505355
671.4241275
700.479384
730.7764289
758.6977537
777.7468017
828.9647891
245.0902187
-410.2284413
-650.7459057
-749.8755171
-789.2550107
-787.9861559
-749.7188242
-726.574936
-684.4361539
-672.8893497
-664.5033139
-660.4579284
571.9980788
573.1780732
575.809337
579.1431862
594.429433
600.2219566
605.4851849
620.8655324
628.9497479
624.7873691
593.9650328
502.4659034
207.5399809
-171.5767213
-403.5729368
-537.0799131
-613.9356558
-647.8705603
-643.4847724
-640.857966
-616.1426687
-612.019441
-608.4144166
-606.7370888
531.4436312
531.5917584
532.019496
532.1825808
543.8650426
543.380086
540.4381847
543.3384751
533.6803245
507.7223747
449.8022812
331.5418614
156.4055987
-76.76227009
-260.9432125
-392.424699
-479.9583713
-531.1373803
-548.5251033
-560.2064501
-549.2695079
-551.2008525
-551.7109423
-552.0207174
490.3508377
489.6170457
488.1481327
485.5899815
493.8453401
488.1459881
478.6731889
472.3763192
449.7946262
411.729693
348.001596
249.7418887
122.3815235
-36.63635712
-179.0930612
-294.4601185
-380.2009862
-437.2991148
-466.3152387
-486.8656636
-486.2289302
-492.6871608
-496.3447014
-498.1148286
449.5566212
448.1100527
445.109413
440.3831845
445.5951527
435.9324196
421.6625886
409.4493448
379.7266914
336.8339526
275.9095606
194.5306762
97.67245638
-20.63203676
-132.6320648
-229.4246572
-305.7153897
-361.7979054
-396.3579908
-421.8173772
-428.3087951
-437.7836615
-443.6425363
-446.403097
409.7388591
407.7466133
403.572486
397.2335671
399.9913873
387.57797
370.2406835
354.3999476
322.0226501
278.5412186
222.7709266
156.4200957
76.16155941
-15.85137958
-105.1621819
-184.6197611
-250.4904998
-302.360522
-338.0998488
-365.2039209
-375.9709044
-387.1815701
-394.3809675
-397.8021621
371.4168213
369.0433997
364.0464684
356.6192545
357.5178553
343.4304796
324.3937636
306.8401549
274.1717648
232.6380128
182.4983406
125.3099615
59.02031623
-14.83085614
-86.60339217
-152.0449357
-208.4238577
-254.8566363
-289.5424522
-316.2774339
-329.2535495
-341.1946738
-349.0456196
-352.7832166
334.9645294
332.3623249
326.8673667
318.809555
318.4027467
303.509807
283.8009892
265.901126
234.3590909
195.8694381
151.311708
102.0360212
46.57531587
-14.04487083
-72.87676287
-127.3526928
-175.5186795
-216.4816398
-248.730799
-274.0602311
-287.8370003
-299.7820316
-307.7697492
-311.5825223
300.6247747
297.9224668
292.2082778
283.9011851
282.6393412
267.6143994
248.0799322
230.6226741
201.0108024
165.994959
126.6462487
84.12387921
37.17614729
-13.2609336
-62.19522881
-107.9505872
-149.1363949
-184.9754887
-214.2220739
-237.5868118
-251.2280011
-262.7004931
-270.4744264
-274.1924225
268.5211746
265.8203584
260.1096428
251.8611737
250.081916
235.4309137
216.6579884
200.1162302
172.8447215
141.391056
106.7658725
69.92618594
29.95967468
-12.42703665
-53.54880233
-92.24523335
-127.5148434
-158.7185136
-184.8266087
-205.977355
-218.8981799
-229.6105159
-236.947155
-240.4601705
238.6786227
236.056415
230.5157571
222.5565545
220.5324777
206.6008035
189.0068735
173.6041254
148.8441818
120.856205
90.46898833
58.49449553
24.33779849
-11.53264787
-46.33190119
-79.21724432
-109.4544915
-136.5302773
-159.5787936
-178.4687461
-190.3356684
-200.1320002
-206.8989824
-210.1412672
211.0483979
208.5614131
203.3099772
195.8019366
193.7420479
180.7534747
164.5673412
150.4549369
128.2182145
103.4960877
76.90115186
49.16033112
19.90131789
-10.58847186
-40.16534795
-68.19326402
-94.12434347
-117.5499132
-137.7206496
-154.4158834
-165.0608478
-173.8750356
-180.0050044
-182.9426474
185.5297521
183.2176671
178.337231
171.3877142
169.447686
157.5370302
142.8493132
130.1224439
110.3405718
88.64384032
65.45793238
41.4334953
16.35561072
-9.613409514
-34.80028957
-58.71103137
-80.93051833
-101.1339614
-118.6493479
-133.275148
-142.6361564
-150.4605478
-155.9311508
-158.5523422
161.9833585
159.8722145
155.415813
149.0910925
147.3889541
136.6250179
123.4663036
112.1491229
94.71246338
75.79836649
55.6875745
34.96530659
13.48499008
-8.627209972
-30.06719129
-50.44398749
-69.4393663
-86.79502424
-101.885799
-114.5928425
-122.6679709
-129.5303615
-134.3480964
-136.6553142
140.2428791
138.3481951
134.3470827
128.6835048
127.3059844
117.7134066
106.0726934
96.14706608
80.92865649
64.57028015
47.2443454
29.47809238
11.12996996
-7.64650811
-25.84425073
-43.15149919
-59.32264032
-74.15243097
-87.03815603
-97.982308
-104.804449
-110.7519202
-114.9401819
-116.9443037
120.1260315
118.4557623
114.9253781
109.9377999
108.9514525
100.5259609
90.38938134
81.78773904
68.66037245
54.65325017
39.86101607
24.75718037
9.170291574
-6.684135398
-22.04066688
-36.65132426
-50.32646751
-62.90434782
-73.78466748
-83.11529358
-88.73242967
-93.82088542
-97.4116873
-99.1278686
101.4427899
99.99952796
96.94431164
92.63293847
92.0887468
84.80683466
76.14961964
68.80188389
57.63757841
45.79967291
33.32542845
20.63133011
7.513176331
-5.749067077
-18.58506654
-30.79947677
-42.24660208
-52.80191114
-61.85618397
-69.70859312
-74.17286472
-78.45975568
-81.48830203
-82.93341029
83.9928454
82.77682844
80.1950607
76.54787671
76.5026419
70.32283121
63.09297397
56.96121925
47.63555632
37.80603688
27.46618069
16.96706601
6.086313685
-4.847141872
-15.41951517
-25.47956963
-34.91577381
-43.62553079
-51.02601434
-57.51558085
-60.87060993
-64.41254781
-66.9132948
-68.10343517
67.60210248
66.60958121
64.49612258
61.498522
61.97357364
56.85932767
50.94071429
46.0738647
38.46118695
30.50062376
22.14087408
13.65848265
4.8321236
-3.981828019
-12.49551399
-20.59571242
-28.19954611
-35.21854448
-41.07578085
-46.31433983
-48.61396537
-51.45905567
-53.46401071
-54.41555498
51.99246514
51.2290493
49.58580559
47.21226642
48.34995154
44.21966206
39.53547279
35.92767762
29.9380592
23.73195401
17.22207031
10.61872794
3.703297687
-3.154439242
-9.770060625
-16.06405482
-21.98143019
-27.47347896
-31.81276314
-35.90499356
-37.13736102
-39.34186354
-40.87468356
-41.59473989
37.28457738
36.72527052
35.54109829
33.83747128
35.19193546
32.21671307
28.74378486
26.35402597
21.91146474
17.36642451
12.60853124
7.768073611
2.660079213
-2.364600899
-7.20406651
-11.80820748
-16.14667982
-20.19068994
-23.1196517
-26.08427134
-26.4886282
-28.04323807
-29.1286262
-29.64406244
22.17053943
21.90550166
21.20252793
20.17636397
22.61952509
20.69471819
18.38738192
17.20222107
14.24472124
11.27932047
8.193122934
5.034733747
1.668756436
-1.610087472
-4.76087075
-7.757908707
-10.59168952
-13.25669714
-14.83566532
-16.77552521
-15.78774029
-16.72019924
-17.35985374
-17.60913867
11.32385133
11.05202617
10.67303932
10.06550839
10.33400833
9.344256392
8.241819967
8.337916717
6.822940088
5.342549382
3.862887048
2.349035973
0.70715285
-0.8848673726
-2.404619771
-3.848940917
-5.222036109
-6.536305538
-6.734264463
-7.616625663
-7.715693343
-8.168274474
-8.464771319
-8.68118309
1766.690708
-4416.548918
-2888.546248
1498.507147
-4165.235824
-4473.390469
1330.836193
-3125.11997
-4058.147073
1207.052942
-2050.081407
-2985.96868
1057.869274
-819.2138543
-858.8425538
-1087.58659
-1922.255714
856.9917881
333.2793621
-772.2111273
196.0910142
-420.9076765
-979.8770265
1981.303491
752.6460794
-2536.383319
-848.2090437
-5838.060475
-3687.232696
-4064.832602
-2621.764632
-2099.346998
1374.604221
1485.228829
1691.912435
-5915.436189
-6240.228131
-3914.227977
-2740.677231
-2715.684566
1249.495002
1320.631597
1461.817772
1407.172238
1436.780287
1523.777224
-4342.294781
-5162.076618
-3000.667713
-2348.977186
-2677.3005
1125.276418
1193.323803
1303.477767
1267.142535
1303.194175
1350.820033
-2864.449098
-3489.282292
988.2162119
1051.150909
1177.361189
1133.819001
1192.762829
1248.193276
-1608.17378
-1565.210559
-2117.351998
821.940469
852.9692782
1030.354652
967.3295689
1031.595992
1112.624582
569.5909008
317.8489586
345.2385216
2199.135209
1815.272774
2729.534605
2278.71969
-6250.346744
-5896.804488
-4015.904582
-5639.474215
-6088.27363
1535.223874
1618.136358
1579.6839
1620.361175
1538.469732
1782.138526
1634.376967
-5211.376748
-5881.920186
-4352.732334
-5752.313525
-5122.171572
-6081.012586
-5783.958924
-4384.751722
1358.869968
1425.2215
1386.533078
1431.345091
1360.221433
1532.483672
1437.740318
-3581.959651
-4283.920523
-3540.239945
-4180.99593
-3511.60357
-5073.785846
-4286.345914
-3676.238977
1252.10503
1300.527656
1252.254329
1303.701031
1256.194069
1355.95037
1306.116975
-2198.231824
-2778.514662
1117.798763
1188.837438
1124.368435
-1564.621926
1194.019493
1122.693002
1252.170975
1197.993648
-1605.273121
-1003.721504
-1488.447182
-1559.031613
1035.381056
1026.263992
953.8754593
-42.13336684
1032.198476
927.9842098
1117.556761
1036.73107
-117.7838425
1482.66447
1729.697785
1902.524569
1959.013496
2239.134958
2585.427459
-7284.940449
-4568.447656
1610.732574
1632.705884
1785.330716
-3420.632382
-2003.859684
-1759.885228
-2210.329205
-2005.781605
-1950.625269
-2240.611141
-172.7484652
-487.5578931
-863.5129058
1818.145549
2170.870677
1913.750547
1893.344352
3606.042605
3031.008093
-3511.868229
-5497.173803
-3794.120383
-2288.134074
-2601.129842
-2443.527008
-2735.887689
-2172.922764
-3422.442425
-2819.066422
-2577.442143
-1165.242524
-305.7490845
-460.1667878
1204.898383
1979.548803
2701.059893
-3220.931635
-940.6512988
914.039215
-7401.330996
-5241.894669
-7150.98778
-4363.115341
-6987.595755
-4915.105554
-6073.825276
-6098.10845
-4730.482652
-4786.060376
-3025.692833
-3351.477835
-3126.511922
-3330.630138
-2998.721876
-3744.171951
-3380.356169
-3215.868508
1218.645454
1190.552277
1165.918707
-1595.972606
-1862.242928
-1928.758822
1071.479368
1037.137318
1001.537191
1080.064871
1048.2333
1076.279819
2206.104703
1925.996131
1997.591766
1937.911115
2231.043633
1758.632635
1907.507321
1943.710011
2616.669188
2976.045606
3450.733832
2292.899697
2876.20858
2536.165531
2911.454738
2279.201161
-6200.410991
-6184.319774
1580.835159
1625.575605
1575.161842
1704.240434
1674.510365
1748.469746
1628.519026
1667.199913
1684.013468
-5527.099361
-5568.650084
-5471.095971
-4886.831667
-5041.498353
-4625.09922
-4826.760189
-5430.076823
-5969.950752
-5196.72733
-5204.419257
-5083.407609
-5177.94891
-5946.987547
1394.766873
1389.649512
1489.113776
1482.128349
-3870.859539
-3783.804642
-3922.004331
1282.372886
1278.911083
1329.369675
1326.097616
-2948.879133
-2625.780299
-2525.983749
-2645.429224
-2970.544962
1148.264468
1119.745064
1090.125601
1157.20554
1129.491278
1154.242917
-1214.457325
1158.22054
1151.766431
1225.66634
1222.610793
-1936.498184
-1215.577673
-1245.308578
-1508.006452
988.353509
947.4692121
936.5574846
955.5479002
479.7946976
182.0248194
1082.101338
-294.3085008
138.3569469
-209.3644486
1077.9953
-369.0881965
-242.5624824
105.3736333
-5686.529503
-2151.818927
-2303.169981
637.4460917
596.7476337
818.7887774
709.3379274
728.8632683
971.6421454
220.3837054
-122.186331
-308.1787546
4544.482855
-2337.164207
-2502.125935
-908.4742682
-1158.837472
-1167.784963
-137.6979927
-382.6972644
-100.8707988
1909.429021
2706.578327
3574.770621
-3965.207641
-1073.023036
1102.310459
-5993.671458
-6749.436328
-6647.074662
-6190.374016
-4507.030769
-4698.135791
-4502.02425
-5425.376178
-5259.026848
-5007.114285
1323.964606
1306.302474
1285.294337
1337.068458
1313.665084
1327.550662
1221.459884
1198.393117
1221.976841
1048.456757
1033.473666
1014.726733
872.340758
638.5467576
376.3562329
-6243.821618
-6751.226203
-6789.449968
-6007.014343
-5006.490257
-4714.566996
-5188.143109
-5071.220014
-6017.448894
-5353.285576
-5631.251847
-5481.924528
-5759.864167
1384.53332
1371.617028
1345.326173
1366.013206
1376.65765
1372.041259
-4440.73155
-4262.822446
-4125.411609
-3882.434991
-3640.520119
-3892.859887
-4714.857078
-4314.397274
-4551.089268
-3977.861894
-4231.696887
-4661.558177
1275.551542
1250.748861
1228.977118
1278.482412
1257.83505
1278.973019
1295.872665
1309.040551
1313.264625
1268.197423
1284.765595
1267.358346
1344.176053
1348.796593
1361.965543
1314.293567
1319.430851
1313.812664
-2443.431264
-2581.533948
-2281.737902
-1410.006948
-1414.247357
1181.045971
1127.795184
1239.74307
1247.229794
1264.742542
1227.071174
1208.5901
-1739.350793
817.6146797
934.7152754
898.0302481
1008.026336
984.7154535
1002.364043
148.5812448
387.1050588
151.1227038
1011.080956
444.3849426
697.0623137
515.9953724
599.2849754
1097.685669
1054.645221
-6629.057219
-5499.90139
-6274.788842
-3557.088907
-3618.814079
-1968.71524
-2105.6397
-2118.487522
1828.813016
1808.337851
3480.633534
3941.845693
4245.746086
3756.9271
3385.953424
-2674.105437
-2508.055229
-2464.025268
-2511.421042
-2692.124619
-1175.935632
-1002.737513
-1015.112378
-1006.0539
-1178.309088
-788.6398793
-958.0900452
-553.7505321
-578.3292341
-739.8223442
-369.6813019
-525.6246344
-454.826478
-7438.192324
-6489.720194
-6037.113839
-6827.301548
-6598.750302
-5852.987481
-5148.79829
-6182.921838
-6446.343814
-6354.562394
-6012.20611
-6169.47031
-6605.741264
-6485.125305
-4944.400408
-4761.061456
-4563.556478
-4817.809629
-5011.143249
-4560.733873
-4759.258717
-5069.234226
-4952.79195
-5204.566696
-5005.039592
-3164.194327
-3224.164286
-3193.324976
-3111.038061
-3248.147631
-3593.572285
-3487.556581
-3634.240493
-3294.049045
-3439.134169
-3539.570874
-1802.912838
-1780.017673
-1919.709653
1056.060641
1039.535345
1050.997587
1088.701911
1076.895237
1061.855572
2062.867604
2024.894171
2039.875598
2074.023494
1971.072465
2248.429425
2113.26115
2080.563285
1815.828087
1843.87487
1788.380876
1941.315335
1865.446613
1837.273065
2509.382881
2473.523999
2302.766305
2601.155091
2505.626682
-6797.304361
-6755.191744
-6236.57906
-6913.078336
-6997.080203
-6880.494761
-6945.657822
-6894.960837
-7031.984051
-6949.98816
-6096.493021
-6727.702864
-6810.551757
1600.228003
1601.491172
1587.795631
1625.169527
1607.369981
1607.765947
1569.105915
1557.010458
1584.657419
1572.862596
1701.106775
1720.839915
1690.26449
1773.080378
1732.587154
1710.716004
1646.401806
1651.076461
1631.06878
1681.398184
1658.310561
1653.829476
-5811.627427
-5678.542813
-5398.478453
-5709.908956
-6004.326045
-5848.222034
1413.972017
1399.742423
1437.007457
1417.961433
1377.73708
1368.215111
1394.189611
1380.726936
1524.138225
1501.725238
1551.971746
1531.540145
1464.02655
1442.551208
1494.221818
1471.735033
-3878.409212
-4037.101118
-3684.380488
-3830.785793
-3925.808328
-4311.726661
-4494.071166
-4088.802635
-4256.538945
1291.961791
1305.649765
1292.794287
1310.976715
1294.337618
1316.076683
1314.8981
1291.272659
1269.899389
1285.231627
1288.437126
1335.772833
1344.572347
1340.029021
1347.422833
1338.238437
1364.072956
1350.877465
1320.191633
1316.267549
1331.989758
1322.323498
1316.65069
1321.778779
1331.700177
-2700.491432
-2786.60082
-2851.3517
-2688.582871
-2900.93061
-2830.365242
-1188.784578
-1368.099453
-1396.464342
-1188.767252
1176.611404
1134.648665
1234.574431
1242.80418
1235.823965
1212.54551
1231.514548
1233.366645
-1820.814459
990.1444984
975.8114377
952.10091
635.9148275
543.0583301
1001.128279
264.8267975
420.5140637
315.1321632
1090.762768
-447.2122592
-14.18606668
209.2180339
-59.25844456
1050.239288
-2437.137993
-1873.245743
-1244.241589
-2289.667518
-2342.450914
-1107.383852
-1170.675791
-1607.092394
-2351.284276
-967.0587698
-955.9217734
-794.0624044
-2094.358252
-1589.489485
-1548.372575
2299.824916
3404.149541
4347.274551
-4464.870114
-1205.968498
1372.144662
-1614.405925
-1240.181741
-3122.925151
-5568.609464
-6294.410566
-6543.974307
1474.030343
1455.096849
1421.679522
1501.684599
1466.629312
1486.773906
-1593.666478
-1732.823029
-1743.514319
-2193.875726
-1931.930043
-1876.659805
1097.730689
1082.60667
1094.741527
-6609.892213
-6707.720926
-6068.571531
1410.997848
1380.974719
1393.955209
1414.926754
1417.896579
1436.020552
1441.888986
1462.295059
1455.984795
1127.056995
1116.555118
1103.058873
-1577.593951
-1531.792768
-1520.909295
1127.320202
1133.459048
1126.915649
-1673.733121
-1685.386617
-1590.605003
-1412.867706
-1404.454103
-1546.238613
1026.733549
1112.501652
1118.834537
1122.618824
1038.83589
-7187.632544
-3456.887549
-1987.036885
-2054.13833
-2060.422418
-2285.271351
-2142.185547
-2107.684641
1865.480124
-4579.692986
-4058.69519
-4864.124324
-2420.134887
-2474.514178
-2328.346631
-789.6724937
-804.5109849
-628.4151276
-633.9324489
-732.5994697
-1986.873522
-1439.289281
-3861.26895
-7307.144571
-6930.245991
-6778.558921
-7321.428342
-7304.027902
-3071.884552
-3103.299955
-3054.834763
-3368.098775
-3360.135687
-3332.908661
-2926.745377
-3062.754409
-3139.39885
-3707.480085
-3656.187367
-3706.25801
-1921.42908
-1899.00106
-1931.334908
2148.978928
2211.148732
1958.391165
1969.758419
1983.20375
1951.216629
1770.245154
1785.712619
1770.595295
1921.394009
1894.223109
1880.343644
2732.380378
2539.736539
2595.385701
2799.915335
2800.202749
2946.705054
2269.166895
2330.404198
2346.283632
1589.703696
1588.887714
1591.482945
1624.935733
1619.854951
1620.953301
1572.106478
1569.788262
1590.095541
1585.401169
1684.197383
1689.281247
1680.224237
1757.086962
1743.761187
1736.345191
1631.837169
1634.032441
1629.264877
1672.363796
1666.275658
1663.080132
1398.590426
1413.088811
1409.256829
1376.538974
1380.221074
1393.520431
1498.600707
1520.083177
1508.149104
1515.372944
1507.31482
1566.250137
1559.157623
1449.351699
1499.336337
1491.434492
1462.92226
1469.597168
1491.35788
-4047.278258
-4110.172523
-3755.917844
-3813.814418
-3839.298938
-4170.46811
-4191.550671
-4071.116485
-4207.980151
-4046.443188
1136.435376
1121.758386
1131.884787
1171.085871
1156.438534
1141.97368
1161.913542
1169.891284
1164.952239
1145.814763
1149.061297
1154.890113
-1935.090213
943.1380684
950.4834207
939.4113383
698.7800693
952.8511867
357.0170953
488.2648554
610.4902329
1087.857714
1088.544629
1084.752818
-358.2221241
-201.9947879
-179.2769322
-194.6067732
1071.889608
1078.310843
1084.526862
-93.54138737
-172.209816
-317.7446845
-2187.340943
-2230.20042
-2327.897063
-2281.449051
-2259.778914
4567.707172
4883.318909
4380.144125
-2391.217673
-2416.322668
-2338.644326
-2520.458029
-2466.933954
-2454.643966
-2438.954578
-1643.174771
-4293.309855
-6245.888285
-6250.724903
-6179.411873
-6218.008407
-6713.642702
-6553.241964
-6582.110298
-6495.534437
-6525.284959
-6681.569626
-5373.6743
-5292.084109
-5344.862007
-5178.912984
-5238.182518
-5319.671768
-6799.807881
-6615.167096
-6594.820324
-6608.528031
-6621.699792
-6813.997682
-5579.190042
-5494.789256
-5543.166368
-5397.223865
-5446.308974
-5532.271723
-6113.093964
-6145.959282
-6014.031718
-6066.618131
1311.017075
1306.501694
1304.087515
1272.09103
1268.826673
1264.535991
1277.541044
1273.76569
1278.082862
-1535.102939
-1586.943045
-1404.719925
-1482.541731
1193.786902
1192.389885
1200.881216
1195.945797
1129.861779
1127.696511
1134.265333
1125.595942
1253.024152
1250.591291
1245.545472
1260.55498
1255.908488
1259.536709
1210.288295
1207.890502
1220.064779
1204.826007
1211.557282
-1746.452224
-1738.350842
-1727.795022
-1591.868809
942.5710401
986.4319626
1115.738301
1011.954484
1004.346691
994.8047914
1020.314043
387.6007493
371.8756325
1090.984178
969.554686
739.0477263
1098.986245
1110.797124
1105.920527
1046.507134
-6948.449672
-7261.637653
-6942.327114
-6283.617841
-5982.988231
-5167.194103
-6747.628135
-6428.536404
-3501.29741
-3644.932038
-2115.459706
-2103.600113
-2112.317865
1845.854795
1783.287417
4095.512277
3933.166138
3798.885417
3246.164847
3103.136603
3626.035685
3416.183075
3540.42514
-2587.659746
-2524.242534
-2637.914189
-1022.193836
-1018.686348
-1007.455965
-1121.740172
-826.9090262
-806.8439077
-793.1849468
-948.1400927
-890.5161442
-888.8435128
-559.5453409
-614.7969994
-611.9565743
-434.9146382
-440.7957316
-487.9756664
-7162.159823
-7051.41044
-7376.339671
-6754.714901
-7044.278968
-7101.011709
-7294.902516
-7268.684762
-6406.04625
-6296.832757
-6326.446148
-6260.764241
-6272.487134
-6371.279868
-6561.532588
-6426.299722
-6462.269092
-6358.733332
-6391.550197
-6522.472743
-4885.814572
-4812.000041
-4870.050827
-4880.024991
-4949.071276
-4614.678899
-4642.580356
-4606.092743
-4699.999002
-5132.921316
-5175.969896
-5134.704341
-5050.847399
-5115.86346
-4929.660575
-4990.80273
-5071.176245
-3201.895575
-3121.109201
-3109.300318
-3134.608161
-3069.178721
-3123.823997
-3285.713028
-3312.211488
-3252.597595
-3554.886164
-3599.759683
-3626.962979
2103.8502
1990.251422
1825.990749
1803.820427
1788.421676
1857.653315
1870.075751
1847.838598
2583.888734
2679.438739
2700.774502
2966.64155
2839.903103
2420.639669
2404.300211
2491.768417
-6778.628396
-6585.038294
-6589.079237
-6581.226501
-6581.439084
-6764.873707
-6943.777933
-6965.166017
-6949.45084
-7196.894918
-7155.446723
-7187.450652
-7213.56299
-6936.531619
-7031.513892
-7150.679583
-7160.873183
-6975.566163
1601.140936
1596.266497
1595.172512
1614.91221
1613.944999
1607.583511
1576.156422
1574.047817
1581.282735
1578.47255
1707.748459
1698.37749
1692.967725
1722.858711
1730.498399
1718.314124
1647.596777
1640.321819
1638.0782
1659.230536
1660.729063
1654.587706
-5771.623496
-5679.871263
-5720.23479
-5589.159232
-5635.014598
-5723.640301
-5949.657125
-5865.50823
-5947.098024
-5759.161567
-5804.517005
-5894.063191
1409.81911
1411.103969
1414.308276
1400.897843
1406.652129
1405.061026
1429.761814
1427.802016
1437.124246
1416.759449
1420.60268
1422.992335
1374.910229
1376.599675
1378.575607
1370.77379
1374.080837
1371.79442
1388.978221
1388.740309
1394.537864
1380.645705
1383.946354
1384.42966
1531.732879
1523.598809
1516.736687
1520.377074
1528.076836
1504.747026
1512.555357
1509.247853
1549.236774
1539.907228
1468.346284
1461.381582
1456.418551
1458.872968
1466.165053
1443.335812
1444.681149
1447.657726
1486.73337
1489.293209
1496.997854
1474.050502
1481.656272
1479.251404
1483.741968
1476.128448
-3963.661587
-3998.439764
-3901.527148
-3869.348887
-3902.066038
-4365.32398
-4397.570097
-4349.740914
-4533.273607
-4457.870891
-4425.232933
-4136.216093
-4170.769957
-4135.832667
-4299.06868
-4247.950391
-4196.745448
1295.932767
1292.761849
1288.832469
1300.907078
1296.96158
1300.84841
1304.525805
1298.482159
1316.15114
1315.965618
1289.688648
1281.173015
1276.719448
1277.240893
1277.962153
1285.021359
1281.868142
1286.467984
1336.248595
1340.010172
1349.969759
1340.5241
1359.575622
1361.427455
1366.348789
1353.179937
1357.099133
1355.253841
1318.307718
1316.960596
1327.261675
1324.482173
-2798.057636
-2780.31895
-2838.830956
-2678.421429
-2727.091884
-2761.211529
-2967.908058
-3010.783579
-2883.454015
-2894.48817
-2905.893715
-1333.169233
-1336.551006
-1391.038438
-1202.828209
-1264.837163
-1273.443196
1174.600528
1164.733014
1189.942782
1184.06975
1139.113443
1143.343011
1139.897132
1145.854866
1141.8017
1156.976174
1151.179037
1236.675708
1234.88505
1232.361471
1241.33124
1237.848883
1239.400097
1233.00561
1226.914314
1223.900422
1230.320404
1228.670064
1233.168462
-1878.482175
983.1749281
970.5026811
976.5030285
593.2120766
610.7753874
673.4047515
549.8645218
557.4608313
539.5193391
990.054079
361.1135572
308.5771235
241.3709051
1086.953965
1088.381945
1090.602087
-425.1391274
77.49810886
18.34344033
191.3428944
178.6769824
191.7209605
-0.5733537338
-134.3116499
-115.1869294
-13.1816246
1061.206071
1072.945037
1066.266693
744.5094888
718.4408897
699.4510697
707.1451078
664.9186028
639.9203542
647.0921137
581.2976513
552.3661067
553.7317225
454.654286
430.9455552
415.2494244
284.6304145
275.3361619
237.9831373
94.60775973
95.20898046
44.48418896
-102.2671142
-90.64763071
-150.2920276
-285.3465126
-263.788278
-327.2589379
-437.4021188
-410.437351
-469.719771
-551.8487367
-526.2186317
776.4162703
760.0593176
727.2709116
752.4939476
719.4673186
676.7062606
703.7960386
638.4253256
593.8909139
609.5248578
499.03566
463.5617126
453.2864939
294.4868814
287.7951907
236.5114952
56.91549558
88.41798484
-2.163724138
-168.204125
-112.5919978
-218.802725
-355.0999428
-296.925123
-395.7296809
-504.6474523
-450.8330317
-536.2904656
-614.8805508
-564.5535018
818.8173475
816.3869345
772.9832869
813.7031236
795.6189596
736.1072474
784.8485154
730.6160526
656.9551658
702.8541464
579.2421634
515.7721689
523.3423398
312.0148415
296.8486162
227.6890539
-27.92627744
40.74771436
-107.9343385
-313.3746122
-195.9802472
-369.2261091
-503.8000849
-384.0837763
-540.4860582
-630.3102123
-528.9616853
-654.1710368
-711.9767899
-636.0587138
865.8607877
883.4664772
832.4336786
889.3041587
903.5504478
819.2253313
905.0013692
891.1543727
762.9903501
876.1479116
769.5569619
612.5808507
703.7314517
383.7673484
323.1391866
243.9228041
-191.0496186
-58.90158607
-315.1836463
-583.138489
-366.0806968
-642.6816117
-758.9433906
-556.9842153
-781.1430198
-822.5973525
-672.50867
-831.0233254
-847.4323447
-742.0792942
910.2057167
952.9412802
901.0584707
970.2014933
1032.228265
934.5637135
1056.44738
1136.540918
945.6153365
1162.979904
1206.498229
848.9396044
1182.829991
673.277146
429.2576932
495.4002177
-603.4685176
-256.6948356
-801.8117894
-1075.162106
-679.490165
-1102.417177
-1113.359842
-838.0125554
-1106.405819
-1070.551479
-880.0755285
-1056.514608
-1013.618485
-886.952352
942.729473
1007.680193
968.5277779
1035.22548
1141.395067
1063.698353
1186.665656
1365.661978
1202.621385
1445.026711
1875.576497
1363.659701
1649.672088
1737.856272
1259.28088
695.0177229
-633.2144486
-177.9212719
-1439.357043
-1429.583377
-1155.825528
-1774.300221
-1541.499716
-1218.092291
-1480.560713
-1330.126996
-1137.329866
-1287.953235
-1178.042191
-1056.248862
954.4934983
1030.428661
1016.700296
1062.42369
1183.210495
1159.208129
1232.889942