/*--------------------------------*- C++ -*----------------------------------*\
| =========                 |                                                 |
| \\      /  F ield         | OpenFOAM: The Open Source CFD Toolbox           |
|  \\    /   O peration     | Version:  v1912                                 |
|   \\  /    A nd           | Website:  www.openfoam.com                      |
|    \\/     M anipulation  |                                                 |
\*---------------------------------------------------------------------------*/
FoamFile
{
    version     2.0;
    format      ascii;
    class       volScalarField;
    location    "1.5";
    object      omega;
}
// * * * * * * * * * * * * * * * * * * * * * * * * * * * * * * * * * * * * * //

dimensions      [0 0 -1 0 0 0 0];


internalField   nonuniform List<scalar> 
12556
(
31.93121744
31.93213421
31.93308264
31.9339187
31.96671096
31.96759959
31.96851266
31.97042801
31.9740746
31.97984238
31.98732085
31.99435037
31.99697387
31.99516572
31.98897197
31.98165906
31.97568342
31.97117603
31.96924479
31.96771979
31.93388973
31.93269205
31.93164242
31.9306828
31.7954516
31.79806247
31.80061647
31.80278646
31.83654093
31.83982841
31.84516146
31.86883242
31.88577415
31.91297949
31.94855924
31.98396822
32.00021061
31.99052564
31.96136828
31.92728755
31.89751992
31.8770686
31.8489639
31.84110508
31.80385679
31.8001552
31.79691872
31.79408622
31.66165792
31.66627145
31.67074778
31.67449558
31.70894909
31.71629205
31.72916075
31.76427238
31.8051416
31.8663835
31.94497126
32.01878925
32.05469192
32.03508799
31.97169022
31.89611973
31.8299015
31.7825391
31.73638277
31.71920666
31.67676012
31.67037851
31.66474416
31.66001148
31.52940553
31.53545239
31.54132307
31.54684512
31.58435556
31.59880205
31.62682689
31.68441379
31.76627432
31.89144169
32.04906919
32.2029423
32.27733747
32.23951433
32.09753472
31.93974173
31.80504872
31.71335646
31.63815676
31.60565496
31.55402784
31.54353054
31.53494863
31.52810065
31.39935379
31.40710885
31.41514151
31.42399357
31.46497648
31.49054983
31.54374058
31.63738271
31.79464388
32.04526031
32.39155576
32.80541307
33.03335516
32.95316058
32.54756459
32.16258518
31.86016236
31.68388642
31.56169768
31.50281782
31.43563769
31.41945042
31.40741257
31.39819577
31.27042676
31.27960076
31.28955398
31.30250741
31.35209447
31.39541556
31.48711132
31.63430817
31.91705296
32.41013845
33.2839361
34.83007043
36.00040659
35.49959983
33.88530406
32.78177696
32.07025049
31.70994698
31.50843336
31.41308194
31.32304658
31.29776632
31.28107347
31.26910377
31.14392626
31.15514218
31.16852351
31.1880762
31.2471492
31.31472731
31.45496668
31.68925208
32.16626019
33.10134119
35.37556297
42.97015639
50.93987025
46.96705758
37.58536736
34.13890686
32.52007485
31.82059507
31.48049326
31.33791891
31.2158884
31.17874135
31.15614727
31.14109701
31.0193975
31.03241706
31.0494484
31.07778201
31.15067504
31.24918608
31.4550578
31.8025684
32.53382203
34.11389561
38.93116808
63.71714216
82.74244187
46.03919183
36.57740316
33.26122786
32.02275202
31.48478576
31.27496423
31.11512328
31.0629091
31.03296183
31.01428925
30.89982861
30.91560148
30.93835735
30.97859986
31.063538
31.1988249
31.47803994
31.96453359
32.96779739
35.16129571
42.01838155
79.53503376
163.7372235
58.20106955
39.88595086
34.2422273
32.29565781
31.50970457
31.22226906
31.02090424
30.9514608
30.91284033
30.8903225
30.78460084
30.8030088
30.83142504
30.8842283
30.98730241
31.16180319
31.52582695
32.15295473
33.39607363
36.01329281
43.79049133
85.86994759
204.725644
68.63447987
43.13313805
35.22900527
32.58226181
31.55096196
31.17818587
30.93398091
30.84590206
30.79770148
30.77062325
30.67789275
30.69990116
30.735969
30.80448821
30.92134607
31.13657157
31.58897642
32.34789386
33.77767047
36.65915397
45.00254832
95.34232857
203.3862344
74.38363757
45.35309107
35.99390583
32.83622163
31.59281068
31.14063995
30.85401558
30.7475083
30.68924732
30.65752565
30.57751658
30.60241301
30.64487977
30.72786972
30.86399679
31.12054708
31.65889388
32.5327585
34.10336854
37.17194601
46.12027813
106.4874717
186.7580985
75.89350428
46.32641361
36.43241179
33.01640129
31.6229637
31.10586145
30.78134618
30.65631693
30.58834084
30.55147504
30.48641869
30.51517222
30.56653905
30.6657644
30.81264191
31.10986851
31.72234788
32.69996862
34.364966
37.58903053
47.44766567
115.4542287
892.8723164
159.0226894
74.51761677
46.29987568
36.51135983
33.10448116
31.63277856
31.06949223
30.71236469
30.5719096
30.49412391
30.45274049
30.40009722
30.43218142
30.49129774
30.60368854
30.77442361
31.11656091
31.82752309
32.88223141
34.63813397
38.07478124
49.43014026
159.6483472
543.8608084
147.7514645
72.00273512
45.39763077
36.34602986
33.12384239
31.62381271
31.02844977
30.64396994
30.49163046
30.40488932
30.3588366
30.32011504
30.35547831
30.42143727
30.54505869
30.73029327
31.10763795
31.8905655
33.07941153
35.03208483
38.75850905
51.32728452
387.7532997
385.9803828
135.655328
67.43109386
44.08155585
36.02276073
33.08985165
31.58927693
30.97942247
30.57580197
30.4135036
30.31895303
30.26932561
30.24056714
30.27891852
30.35086981
30.48509666
30.68468223
31.09219022
31.93567758
33.32517652
35.72768173
40.28924708
57.33190304
737.1322049
313.8500244
117.6223146
61.34462667
42.3950026
35.64840121
33.00196043
31.53237203
30.92057561
30.50315096
30.33320471
30.23237712
30.17915969
30.16364809
30.20490221
30.28160958
30.42371595
30.63469502
31.06631281
31.96003404
33.54599261
36.79611953
43.98607848
87.25409515
991.8231996
214.3705383
94.81869645
54.8079409
40.73493133
35.34370791
32.88868071
31.45700207
30.85236698
30.42658989
30.25139792
30.14547604
30.08954835
30.08252865
30.12630582
30.20700794
30.35635929
30.57833806
31.02849619
31.96077041
33.65866632
37.90656123
52.40369582
265.832773
636.9583968
152.4891762
76.56616215
49.98540185
39.68614399
35.10166718
32.75976524
31.36672357
30.77199877
30.34151052
30.1626617
30.0538614
29.99575542
30.00163028
30.04779707
30.13156324
30.28537437
30.51447891
30.97817281
31.94538091
33.73922135
38.54805599
65.58606546
537.9390052
295.5712854
120.143141
67.38339661
47.89477404
39.16763151
34.86517077
32.61945751
31.26571467
30.68211629
30.25062431
30.07007994
29.9592916
29.90000268
29.91346464
29.9614982
30.0479464
30.2063316
30.44290838
30.91618072
31.90900111
33.78827135
39.20126531
77.27665544
532.4553081
236.1434332
109.7859274
64.80500829
46.88060168
38.73265419
34.64132865
32.4734832
31.15667482
30.58381054
30.15176708
29.97009149
29.85817575
29.79833841
29.82546357
29.87507838
29.96349203
30.12388853
30.36378411
30.84387838
31.85706894
33.80946662
39.89029023
87.08600583
502.0438519
210.201298
103.7935417
63.06007015
46.1307353
38.37161796
34.43138959
32.3256094
31.04171767
30.47836605
30.04849052
29.86725901
29.75504865
29.69512698
29.72865161
29.77921724
29.86938406
30.03274423
30.27783118
30.76291574
31.79259291
33.81061117
40.67808997
93.39882932
467.329602
194.4201844
99.65495888
61.87412437
45.59813258
38.06940402
34.23525689
32.17835529
30.92249931
30.36718674
29.93818089
29.75707638
29.64498125
29.58543193
29.63405781
29.68525407
29.77642344
29.94005066
30.18570755
30.67485476
31.71874878
33.80273343
41.63160215
97.06446909
434.3015134
183.8699162
96.66998021
61.02007344
45.21392359
37.81664689
34.05350285
32.03366192
30.80053077
30.25162574
29.82616013
29.64661785
29.53516312
29.47619085
29.52958517
29.58088231
29.67301222
29.83866199
30.08853726
30.58118248
31.63875463
33.80001768
42.64004027
98.93242783
404.7550706
176.0979459
94.34743378
60.35491101
44.92377897
37.60674542
33.88686081
31.89305262
30.67721904
30.13299141
29.70809054
29.52890051
29.41806304
29.35988178
29.43084442
29.48204097
29.5743892
29.73898554
29.98717042
30.48342521
31.5559437
33.8166021
43.55861006
99.59585366
378.6132407
169.8309002
92.44492829
59.81151858
44.69476231
37.4322815
33.73520692
31.7575361
30.55371691
30.0123639
29.59149021
29.41432716
29.30446876
29.24710933
29.32038709
29.37114005
29.46393033
29.63027446
29.88293977
30.38297351
31.47329012
33.86063618
44.31831228
99.38312897
355.2079774
164.5258755
90.83953758
59.35628509
44.50869239
37.28587501
33.59739166
31.62751984
30.43084775
29.89071176
29.46870079
29.29141824
29.18220433
29.1257349
29.22044894
29.27069749
29.36322084
29.5275948
29.77643803
30.28096259
31.39318313
33.9288478
44.91381077
98.58270756
334.176658
159.8831232
89.45631625
58.96822763
44.35490721
37.16149037
33.4718057
31.5029878
30.30918384
29.76868786
29.35106807
29.17601364
29.06779163
29.01214603
29.10518531
29.15472799
29.24742214
29.41380038
29.66886343
30.17825013
31.31730665
34.01114244
45.35954298
97.33091585
315.1969968
155.7299243
88.2423932
58.63173283
44.22617224
37.05458992
33.3568281
31.38368654
30.18908286
29.64693022
29.22520608
29.04915022
28.94139011
28.88656951
29.00693358
29.05581641
29.1480063
29.31173634
29.56025152
30.0755112
31.24662265
34.09770919
45.68112336
95.78568073
297.9075905
151.9543846
87.15726093
58.33457593
44.11712636
36.96185291
33.25107564
31.26930797
30.07078353
29.52570325
29.10957341
28.93594448
28.82904973
28.77494555
28.88701852
28.9351042
29.02731307
29.19355368
29.45180425
29.97329854
31.18116283
34.1802435
45.89802402
94.05791106
282.0959504
148.4675967
86.16996254
58.06750119
44.02376757
36.88082113
33.15339895
31.15953227
29.95443485
29.40549338
28.98070032
28.80499341
28.69834292
28.6449507
28.79337896
28.84079739
28.9324543
29.09561783
29.3429977
29.87208493
31.12030936
34.25239493
46.02201571
92.19421227
267.5801162
145.2192042
85.26084111
57.82417001
43.94308865
36.80958941
33.06283194
31.05405636
29.84014346
29.28627906
28.87032119
28.69725309
28.59125725
28.53843886
28.66775741
28.71436793
28.80590723
28.97194842
29.23537022
29.7722873
31.06333664
34.31169105
46.07122021
90.27061887
254.1878082
142.1762533
84.41538612
57.5996808
43.87252287
36.7465514
32.9785395
30.95258914
29.72799567
29.16860657
28.73658033
28.56047291
28.45456297
28.40233591
28.58210069
28.62812004
28.71922297
28.88240266
29.127726
29.67426784
31.00952198
34.35803518
46.0642533
88.35376375
241.7742165
139.2994935
83.61895787
57.38933373
43.80970469
36.69029195
32.89977328
30.85484671
29.61812278
29.05222212
28.63610217
28.4624388
28.35687672
28.30505934
28.44833621
28.49355481
28.58437431
28.74978426
29.02253465
29.57848659
30.95811224
34.3916008
46.01230327
86.47040734
230.2380787
136.5604755
82.85948502
57.1890754
43.75258063
36.63957064
32.82586566
30.76059899
29.51083462
28.93817771
28.49261918
28.31599212
28.21045127
28.15911399
28.3746759
28.41945774
28.51006109
28.6747584
28.91806333
29.48563216
30.9085042
34.41206762
45.91981475
84.61876634
219.4983188
133.9440851
82.12981484
56.99585545
43.69937074
36.59324894
32.75617669
30.66956212
29.40694385
28.8265353
28.40989633
28.23358511
28.12801488
28.07689324
28.20424081
28.24810866
28.33838132
28.50506301
28.81936646
29.39720698
30.86089044
34.41915358
45.79080988
82.80779855
209.4822342
131.4482558
81.42974723
56.80858841
43.64873989
36.55041534
32.69030266
30.58166664
29.30862293
28.72082882
28.22588808
28.04633112
27.94048424
27.88975728
78.70801475
195.2505103
94.27218814
85.02440886
248.8703312
202.8266367
93.9950977
242.9430854
250.7042657
105.2096546
216.8820402
239.6629814
114.4187423
1108.342915
932.6563206
193.7054102
213.3217412
140.5516935
669.6691952
1082.583897
568.4154401
187.9234608
191.4677429
60.21629577
50.15969726
85.95428298
46.4166618
644.8096991
210.604879
154.4899912
64.39636446
51.11556799
43.44322619
72.5253161
68.34102411
2235.552042
1584.550128
202.3698642
79.91046417
68.81974159
44.75590506
78.14068118
73.10820572
88.84227184
251.8717275
229.8745261
1204.34021
1703.979319
204.9599948
88.27107296
82.73323816
45.91553586
86.38915124
79.04840508
99.3480942
349.0629685
284.66193
647.6566801
878.7190712
47.20627081
96.80824009
87.40392096
108.1252769
514.7137202
419.0126551
2721.5729
411.4193639
479.9622963
49.09303837
116.7394546
98.35012915
123.3780015
1071.38542
720.3724207
153.3023719
501.9700159
659.4420517
201.5868176
233.2785647
122.3465421
195.0489551
1542.957601
682.1602484
152.2204022
541.1124871
1065.895978
227.1973417
209.1505467
82.44190311
271.9951916
282.6405321
239.0362365
269.2454071
1726.403899
2235.875311
228.7679113
1531.449934
1304.197278
1101.677921
1527.897115
225.8357619
281.6530862
255.5166009
90.01183421
323.7020951
364.4997434
284.6371366
320.5752748
921.8086845
1176.220167
249.2648247
874.7096745
677.4070732
1288.485028
910.0180303
250.77121
414.9710587
352.2213471
100.6926091
426.5446154
522.1703989
367.1719201
422.811584
494.8815679
621.9086667
710.2484772
523.7618659
108.3926732
3656.42436
702.2225708
1045.060744
526.9723336
686.9682513
4059.133479
376.0825762
404.3501376
2411.101458
8555.473268
1079.444553
124.6550947
773.1690106
1668.376347
7822.606101
1053.135665
1642.807974
795.7728318
41.40598056
67.55484059
56.14913056
72.61402542
158.719976
105.9562735
4029.311523
711.0920742
81.93294602
206.8766647
184.9734673
6559.316643
189.3456019
90.50207076
89.36245522
6226.03882
935.6449191
1044.272187
698.6968426
331.9075336
362.8809542
182.2187246
162.6465527
74.59482268
1479.367983
301.8839314
674.9369015
174.0902005
476.8919824
140.1333038
1066.594114
1381.196404
226.423094
511.4574858
434.3663074
653.5984782
526.1108632
230.0846465
1627.237465
4863.2997
950.549871
84.97935253
67.49071183
110.2181766
181.9420923
81.34540385
87.26571586
5739.678301
447.249151
3991.943355
519.0593845
2904.207098
401.5743223
1816.071918
1791.96411
1408.382575
1443.335035
2719.697989
5591.883271
734.2867241
3312.292598
1758.536756
6326.881175
3821.371851
768.1237578
453.1973671
183.823039
191.1506191
783.3516983
890.8918175
5680.425632
773.059388
233.2140444
245.8254268
218.019136
228.4436759
770.2883064
1352.849267
1481.435862
215.9616127
962.5806886
800.077865
1415.294176
962.3929334
219.94282
160.1101069
498.0722149
237.2991813
714.5486612
531.6093647
171.9036298
704.8556643
1007.119984
1080.754214
1022.236127
271.2641121
1514.263024
271.5577734
253.9862732
1479.581574
1433.146636
1510.440407
1484.773187
257.9845789
1846.853036
1868.233861
1398.050383
457.4624261
446.4483099
458.7674252
459.2431124
1386.200069
1296.484925
406.6684127
371.9718322
440.5618122
416.9452639
1319.514646
342.3828405
345.0279848
299.7790474
301.9815828
983.719136
6552.036213
1003.285984
454.9334772
461.3939143
394.5195598
398.3249336
1657.056305
1193.539806
558.3295543
1468.812888
2509.982803
573.0311905
205.0142276
214.4487816
193.8088623
202.0913137
564.8416194
1814.396385
744.5344519
756.3716729
561.6580139
565.9909482
6357.372206
1323.369378
668.3706942
750.9145099
251.2200076
261.1280382
1312.857161
2646.174384
2337.361929
3355.783555
1085.273733
6921.639369
3588.730445
6017.192359
1081.371983
900.1648174
4488.605749
2796.026803
4751.013639
2567.322666
3406.247494
50.4940358
118.7826727
119.1081101
171.4099246
4249.35319
7971.053797
404.5267912
171.5605967
183.9153107
1385.024494
3832.392455
5039.258221
580.0673943
641.8930094
1236.865073
302.9410722
321.8425863
679.268463
176.6647823
129.7520987
269.3895834
557.4992006
160.6022054
190.2943665
2105.813699
5315.809085
5455.220436
1689.196162
1294.02733
3760.978968
2690.73163
6350.902675
6202.967715
1619.855631
323.7109818
154.7982892
159.3545198
149.2129306
153.3528924
318.0510963
175.2912716
181.6658232
448.8254102
991.6275402
411.5522169
429.1093045
6639.251988
3502.592577
613.154369
1338.807294
4900.281077
5316.585255
732.3831034
297.0286686
247.824134
357.7484267
313.8767759
767.8144256
1781.475199
6302.470979
6364.157227
2117.524314
269.7408285
144.0993598
147.9102815
715.3056352
703.4084832
355.8533254
2532.438623
2309.62687
1101.46852
783.8296772
405.0754907
422.5134103
1136.75395
447.8652753
456.9803311
428.6273163
443.2789168
1112.94025
379.5732212
167.7142801
173.3378936
160.940427
165.9426514
375.3988493
437.7878085
1007.755762
999.1666688
1566.501399
1522.775518
502.3136343
377.6553914
749.9702805
717.2682533
995.4750062
989.7784028
412.1575832
539.4382741
1147.00575
924.0242003
6434.147349
2739.880381
724.0527173
888.7878179
541.3398321
1597.137725
1573.413984
1600.767292
607.065153
5507.228941
8635.878092
325.7666835
364.9147815
435.5756025
451.0932661
1085.079071
2590.264015
1604.839766
711.8209449
1682.72979
8413.354744
2389.488357
2206.032296
15839.30101
1062.100396
1565.736903
2444.944613
3007.510775
2221.148762
6527.835686
6632.746857
1691.81189
2267.405271
6410.212343
1521.412998
1458.159269
461.8237452
1747.812783
716.5571998
1713.961995
504.9315596
5027.553019
3715.907219
1211.458862
5714.974909
6516.759048
5078.723542
3854.709777
1342.373967
5217.184808
6302.462684
3819.021723
4988.363373
6665.715905
2694.604653
3483.927477
1964.672431
2442.370626
5993.99936
6009.60934
1637.55905
989.1888043
2717.245505
1809.41502
887.0091996
547.584361
1638.97386
5660.3637
7293.897531
2001.35956
1713.465519
5517.233584
5665.685756
4160.20436
3881.332715
1327.181857
6438.760199
6338.163336
4786.670554
6255.975205
6299.645676
1573.621041
6320.920218
4275.08159
3931.636451
4383.626637
2447.427581
1116.529992
1211.087623
4941.222002
1426.142353
1623.944804
1249.318812
1366.83452
4672.711134
4386.452728
1289.346675
1545.927598
386.0396993
405.5536281
905.3141143
744.7587574
367.3315508
381.2026002
1452.525705
1462.124049
956.7558237
367.3922694
387.6718486
342.0224338
361.4054448
950.7298591
1005.360027
431.1892605
465.7033918
394.7096196
421.0942821
1012.895496
650.9438369
314.919323
336.1734307
930.10483
961.3778994
3518.467175
3650.2597
1268.736303
5140.613432
5299.046653
6666.207313
3651.223553
3033.208975
5179.5131
3601.953749
853.6971982
2511.244405
3368.858716
1546.580154
562.4356796
625.5061142
539.2330147
552.0098517
1514.844722
671.9721289
680.9397059
645.9477643
668.7342038
1465.387771
493.6540266
505.494701
473.8732401
489.4652107
1458.567216
1499.331194
524.2817276
535.0642823
509.3446187
520.600318
1498.180159
6158.25183
6252.503759
1799.129979
2028.692081
6453.23769
6128.894831
970.1793243
973.3976254
947.3579641
969.1910715
983.3489901
994.1585648
974.7086711
981.1836327
695.0474522
703.9255131
683.7245342
692.050747
741.4293958
906.4086556
708.339874
719.6425462
2151.10447
2542.602964
1696.056955
1994.901382
6824.939329
4079.878513
4488.540432
2729.370542
3927.63387
1019.672643
1013.045128
441.8598296
1597.991552
1602.02808
1568.383001
1589.44632
1644.732266
491.7918688
1488.346667
1070.540934
962.7313869
769.8193585
381.5681155
1039.293374
1479.92696
994.6384824
1048.961439
1535.994547
1557.564825
1498.569553
1526.913192
408.7004525
988.1230699
979.9016145
6585.221832
1762.064521
6541.442219
5714.77137
6519.327538
1895.854178
6641.642854
2452.764771
6373.783978
5590.472651
730.3273848
807.2209084
1628.361817
1602.076503
545.8486768
591.7893019
1689.058852
1630.741054
6318.611146
1122.929259
462.143934
502.1974868
6380.364917
7197.094762
1751.336985
7809.257619
5820.263485
2861.026598
1063.480487
6928.805607
4319.281673
7610.118589
4713.931212
1511.074624
76.26841165
47.22124308
39.00234477
6420.402246
6394.54334
175.3859728
89.12477744
90.42016272
6632.798486
1266.409457
3553.312959
2729.990345
423.2926627
351.5937291
204.6097807
452.8298766
297.2368288
728.9637503
2653.502935
432.0278809
496.0631558
61.31085192
74.00674322
156.8239846
560.6179059
1154.56089
1723.43878
241.6577385
134.5300802
138.2037297
129.4176513
133.2940113
238.5668014
1092.817778
1226.851128
3919.970618
881.1549704
772.2257665
448.2726733
350.6249685
363.1799302
740.0174627
1879.305526
2414.124098
801.2464388
139.3615556
142.8828204
266.2070575
331.8925673
674.0985871
650.368188
629.5528144
566.3381126
311.6684684
635.4820834
333.4111047
346.447269
5140.841735
4865.288946
3344.351078
1605.026547
1584.374123
1023.927475
4524.118209
6271.982544
5703.110851
1763.588613
958.185615
1064.502892
1671.34078
1057.651029
1636.643173
1624.4499
1641.803025
4348.642272
6358.771833
4383.405093
4779.989646
6169.315312
2052.657371
1627.888759
949.561243
1494.421756
230.5390651
180.5545169
337.7306523
1168.861709
3240.659506
2287.409484
6440.594692
6773.750218
6912.428483
5788.079013
6604.043008
115.700168
151.7478151
427.3457211
4651.081737
3003.898679
2299.087371
6308.602982
4812.029927
3000.750643
5029.284222
4651.921684
6863.301877
6523.8722
4997.675859
1010.473655
1090.961288
2239.136343
6483.943654
3789.989667
4186.353335
5076.179199
3449.818623
3897.178932
1400.560067
1824.62389
1476.804354
960.4286764
670.9736802
678.2606773
1381.385628
885.3883349
926.1665497
683.5991168
692.4909173
972.146506
280.3911852
308.3938808
624.8522849
786.6973099
1367.548569
1018.009545
1493.958486
1545.49191
1014.772193
1829.125709
1359.305814
1407.191959
979.3076084
980.3874345
1517.036816
1492.031374
1502.403722
1436.096584
1454.274054
1473.427943
951.7732927
953.9604639
941.701413
945.5228438
1443.445796
1506.871342
972.3892217
974.7893935
956.4648223
959.079989
1489.402625
687.1928984
677.6713752
334.560028
353.1988735
700.1751882
690.2616556
538.6017443
528.2740623
293.0940717
1525.929294
1527.266997
1505.540277
1508.601004
1851.1843
1532.335937
1532.812582
309.1156897
555.8094077
542.8241571
6560.617191
6497.235687
4370.248169
4615.359623
6510.15512
6569.024254
6790.758699
1078.414364
2219.307519
1839.876219
318.2118417
329.2924697
609.0463269
548.5580111
306.2468268
315.1036616
1052.418781
1052.52091
741.6575849
758.5625077
1059.169618
1063.358869
6322.566348
1386.978007
918.3126415
906.5425449
11413.97633
2162.909029
2714.027955
5311.484608
4552.028751
1698.649892
1679.331936
1072.278482
6707.940788
7270.542537
6962.945811
5580.116048
1135.427772
1740.397441
1688.618167
3605.118575
1448.176569
1772.94357
6303.168214
6232.200781
5101.713345
4798.310564
3102.516942
1541.789148
2305.505646
2012.135533
4301.063963
6392.602207
5624.548786
6478.367673
6236.964659
4742.963889
269.0701239
388.6278151
1427.712517
5482.767406
5359.728753
5626.951337
5586.292307
5393.230049
3519.251151
3502.309711
3528.977594
3520.383145
5385.38637
6379.461701
3567.019982
3599.28094
3408.594585
3516.035961
6478.495997
5088.065155
3218.403468
2902.792828
3480.516264
3397.964754
5202.726754
6281.602367
3681.066234
3711.81567
3635.119663
3654.350934
6328.200934
5774.783152
5662.367696
5876.448983
5632.157895
1006.343794
715.6811568
718.8271914
1553.776147
1009.111897
1012.318635
984.9226179
1003.55878
1543.153779
6163.932296
6361.5294
5675.931747
6239.376641
1607.519514
1619.956451
1581.490707
1595.078823
2026.898659
973.6358097
1542.682823
1484.92484
1588.207639
1016.66056
1019.528169
1013.552143
1015.445489
1582.120023
1523.112556
1561.691254
1085.345747
1466.599343
2005.119784
6572.571375
6217.87818
4996.819325
6401.449393
824.1661299
1139.424378
13026.00243
1087.397709
759.5330676
762.0539491
1687.473222
8113.966215
8423.216529
9802.135169
6259.151593
6042.806865
1650.999662
1640.398023
1058.135186
1609.930463
3509.062927
5294.622373
3651.168184
4602.410034
3581.458726
1509.681228
4820.175655
3570.656089
6585.28881
6840.146672
6371.833877
5101.540024
5700.445627
1491.520409
1798.71841
1653.376654
805.3114301
1021.146029
1502.886087
1581.96622
1044.892612
1477.632717
1944.956149
6342.852952
6546.307746
6264.202705
5784.751941
6555.996183
6501.310065
6372.994879
4205.149133
5668.339844
5236.453761
6313.575119
6517.377753
4595.072078
4860.976263
5278.321204
6563.710214
5453.170648
4149.232037
4438.284975
4425.943287
3108.633762
4363.838783
2291.075144
3384.465176
4633.9538
5103.711055
4646.54821
5879.694054
3714.111839
3532.196427
5086.02699
3660.444773
5455.892252
5546.120258
3538.14969
3532.449178
3557.783718
3532.874247
5582.607512
4053.216718
2350.902463
2395.991459
6371.514465
6364.773142
5536.309989
6691.519955
6482.364421
6395.230028
6383.709433
6628.176978
5363.564911
2832.804963
3170.636854
2463.041289
2591.919312
4613.854782
6535.077546
5597.569805
3432.855277
6840.305964
6558.030672
6538.121604
4587.987974
6544.876679
6332.235947
2893.711383
3287.3059
5651.220088
1434.998194
1474.045819
738.5379185
813.4543331
1337.507356
969.4159018
695.9432524
718.7638285
1471.144689
1442.595607
883.3136079
1530.935481
1869.483947
962.0609604
1504.674847
1497.142441
3514.163068
2367.086092
2331.835665
2602.864103
2517.879842
3702.683375
5513.894074
5189.774625
3414.593201
5167.632448
5385.28112
4856.296248
5099.93459
3357.860358
5063.178478
5006.601811
6480.966136
4773.894286
1030.424165
1022.371324
1476.785292
1521.856574
988.9023848
984.9989914
1478.802266
1487.169276
1463.85821
1472.57477
949.2709387
950.797516
1472.011316
1451.368784
946.8676862
947.9463799
966.4630762
968.8561515
1502.300693
1494.776363
961.938862
964.305775
6218.76136
3792.693566
3820.262731
3733.037734
3758.818636
6205.293731
6157.40302
4225.948531
4904.158124
3873.906487
3976.285929
6149.394537
971.3454065
1500.350531
1492.292414
1511.793048
1506.456617
972.2577524
963.0223767
1464.047206
1448.416408
1484.553054
1475.360148
967.4416231
987.2592698
1546.623727
1538.834341
1557.939276
1550.371347
989.0896778
976.375726
1522.104305
1517.497835
1534.296949
1527.286286
978.2363305
1519.187859
1521.592881
697.8775099
976.0638056
974.5998423
979.9674414
978.8136118
701.2836009
1512.886024
1515.633532
1567.869321
1492.585978
760.7970897
1025.982499
1035.200037
1417.104823
1368.967221
833.2976668
710.159587
984.4578055
984.1215354
989.3608418
993.2051434
718.5826395
1540.308611
1533.750962
6464.796413
6330.917785
6616.704486
4904.767203
5626.848874
4221.247206
6459.338883
6531.848274
6456.14909
6466.521004
4315.050416
3062.246595
5623.754291
4851.041032
6326.511392
6463.618275
3568.06998
1023.718315
736.1335068
737.5547331
724.2908926
726.4282783
1013.329864
1598.317992
1610.006087
1573.115574
1587.134314
1558.09398
1957.148465
1430.760555
858.9405491
939.4269428
761.4004237
782.092299
1060.425165
1394.840445
1897.177412
1519.702698
1447.140729
1004.515879
1568.996279
1558.304013
1600.613421
1562.208088
1000.707792
1542.259064
1551.906027
1509.444423
1519.390062
6306.39098
4449.989034
4693.989002
3511.922855
4056.555523
6395.889057
6523.274233
6340.523157
5037.696365
5629.658923
6822.210492
6196.918059
4874.391754
5104.384712
4068.700318
4476.34182
6372.17314
1648.057307
1649.089865
1633.04877
1636.200504
1100.850165
1111.814915
785.1762703
1704.097448
1614.328059
1664.810966
1656.320176
1615.850182
1026.920004
1033.540221
1021.055255
1025.495757
1612.55226
1646.634496
1044.780947
1096.384847
1034.762432
1047.585178
1649.755501
6135.099007
786.1920812
790.2232035
1124.64459
6256.846352
8807.089949
9081.013174
8903.588736
8772.86553
6847.578774
1702.156031
6863.911551
5124.932327
5495.010521
1070.530761
1671.899344
1658.015615
6877.606197
7468.735013
7247.473232
6005.721924
6518.169968
7927.588629
7552.880813
5071.268613
7154.082899
6258.949733
2054.473823
1659.843186
1124.91604
31.78863951
31.8123619
31.88009339
31.82188014
31.86026015
31.90430585
31.87396803
31.92390661
31.93797415
31.93928584
31.98860941
31.97400607
32.00097026
32.02777792
31.99742091
32.03112011
32.02487356
31.99707956
32.01649523
31.97743083
31.97077264
31.96351135
31.91358395
31.93686277
31.89891061
31.85549621
31.90493581
31.84365201
31.81183271
31.88176241
31.70163448
31.75105829
31.79328348
31.77118879
31.8478109
31.85078732
31.87613553
31.97424185
31.92681461
32.0073174
32.11046227
32.00243848
32.13348952
32.18320531
32.05255415
32.19824295
32.1871456
32.04302045
32.16433261
32.07895117
31.99011113
32.05012818
31.94573773
31.91459407
31.91506592
31.8307344
31.84411208
31.80474012
31.74434763
31.79168694
31.64634569
31.74040805
31.74254186
31.7792641
31.92936377
31.85631155
31.98863756
32.19524959
32.00897977
32.27037078
32.52273756
32.16203768
32.57341181
32.73807792
32.27759363
32.77697138
32.75212807
32.25275314
32.67605507
32.47140443
32.14234645
32.39780094
32.13933775
31.9790977
32.0658424
31.88176159
31.83443011
31.83311724
31.71801308
31.73241976
31.63057408
31.7998205
31.74646523
31.87456238
32.16560235
31.97310063
32.29094383
32.77519467
32.29702658
32.97874199
33.79904453
32.67477094
33.98889432
34.77818195
33.01549585
34.92926165
34.76171349
32.97428375
34.39801888
33.69864506
32.66168061
33.43613285
32.72022564
32.2568376
32.52899848
32.1019254
31.92345753
31.99592733
31.75623242
31.72035704
31.66963307
31.96039469
31.83040011
32.08990288
32.63624283
32.26108639
32.89287814
34.07291367
33.0145583
34.68237632
38.07730938
34.27651547
39.50185968
46.75475787
35.87529384
47.23306197
44.06516172
35.64407158
41.38965101
37.37525117
34.23635606
36.33031653
34.13607801
33.02272207
33.62989801
32.60714801
32.21024665
32.37572498
31.89060345
31.77915132
31.76741137
32.21977042
32.01777749
32.42755176
33.35837591
32.79915174
33.83343488
36.3763428
34.56490491
37.9862336
53.6636385
39.71981369
48.45341213
56.08683916
45.19335845
72.15660836
68.67062677
50.72764804
54.34150175
47.06976776
43.62234337
43.40707354
36.97756735
34.76837913
35.75123903
33.50795318
32.81210327
33.04596745
32.14571152
31.94390919
31.91979138
32.56136685
32.30287703
32.85793242
34.21093706
33.57657702
34.91754007
38.84142391
37.05064634
39.85223954
43.04561204
41.81709898
67.06907663
77.54077649
72.84049272
114.0682878
77.98843865
63.91843157
55.11996666
41.25004644
38.04233673
38.87339521
34.76556356
33.81457047
33.97536923
32.5080388
32.22985008
32.10571375
32.92144894
32.65127708
33.29354881
34.96324462
34.40747657
35.82460102
40.49738985
39.32522249
42.56626311
46.63204016
45.93564523
80.45162022
96.24008399
94.8407213
185.4499728
110.6349404
98.95779494
66.44949764
45.74389688
42.54393172
42.19530429
36.12384485
35.1438095
34.98625576
32.91222185
32.60967247
32.30350313
33.26231025
33.00834097
33.69035957
35.56720269
35.12530909
36.51752889
41.58800749
40.79916015
44.14583788
48.6463444
48.18400797
86.78156204
115.4540293
112.117135
207.5102324
127.9188796
123.438316
73.42691303
49.09808072
46.88218687
44.78519391
37.23196835
36.47698061
35.8245137
33.26635615
33.00272668
32.49784258
33.56428775
33.33878499
34.03141478
36.04778767
35.69209047
37.06000832
42.46703089
41.80507598
45.33300313
50.30069794
49.81322636
96.67569718
131.6828674
128.5729057
198.1463629