/*--------------------------------*- C++ -*----------------------------------*\
| =========                 |                                                 |
| \\      /  F ield         | OpenFOAM: The Open Source CFD Toolbox           |
|  \\    /   O peration     | Version:  v1912                                 |
|   \\  /    A nd           | Website:  www.openfoam.com                      |
|    \\/     M anipulation  |                                                 |
\*---------------------------------------------------------------------------*/
FoamFile
{
    version     2.0;
    format      ascii;
    class       volScalarField;
    location    "1.5";
    object      p;
}
// * * * * * * * * * * * * * * * * * * * * * * * * * * * * * * * * * * * * * //

dimensions      [0 2 -2 0 0 0 0];


internalField   nonuniform List<scalar> 
12556
(
1009.551497
1007.856937
1003.872475
995.9359022
985.068298
962.3882152
926.1646995
869.6534313
786.8201501
671.0553913
519.1535175
333.7751069
127.5242926
-80.44767166
-271.1749578
-431.5595361
-558.0848391
-652.7857841
-720.6779525
-767.0756258
-804.9969891
-821.7258448
-831.2449851
-835.570451
1010.61393
1009.418997
1006.426365
1000.269672
989.3843721
969.7916478
937.3257067
891.1444943
815.6454408
706.5907713
557.9403939
370.1859057
156.843966
-61.51020979
-262.9776369
-431.4910826
-561.608246
-657.4591
-732.1871323
-775.1545341
-812.0180555
-826.385273
-834.6288917
-838.3605331
1013.131436
1013.034369
1012.359205
1010.097074
1002.047487
989.4739788
966.1975195
925.4137137
860.13108
757.7101048
604.9670395
399.7408581
157.2837336
-89.56051567
-306.9184442
-479.5691101
-606.4893839
-693.8464527
-763.5401243
-797.840458
-828.0748664
-837.4555514
-842.8436991
-845.1746427
1016.232369
1017.689922
1020.335007
1023.317145
1020.927634
1018.326716
1009.551296
981.9767088
936.3110252
847.436423
694.5501374
462.0458917
160.4453685
-151.6792801
-403.359587
-575.2165633
-687.4530669
-758.8680528
-811.4452835
-831.7710213
-850.6306014
-853.537226
-854.646068
-854.9295426
1018.287732
1021.52785
1028.049855
1037.192894
1042.008709
1052.553959
1062.489182
1057.947542
1041.675861
984.3473848
854.5010752
596.6364272
178.7735804
-271.3178939
-580.5877768
-740.8725853
-813.2409688
-848.1780491
-872.7822996
-874.0353067
-876.6063344
-871.4763443
-867.4340947
-865.3116961
1017.534169
1022.554347
1032.94226
1048.845854
1060.961209
1086.62659
1118.429774
1142.39896
1169.27032
1176.754095
1127.104554
892.6473945
225.3625117
-547.7717792
-910.4737831
-994.2625434
-982.1509702
-957.8098231
-942.2804169
-919.4225649
-902.228891
-888.1919213
-878.5655955
-873.9246607
1012.273622
1018.855474
1032.503158
1054.221359
1075.128688
1113.944187
1166.993807
1220.087358
1296.224273
1391.516391
1522.990007
1596.70821
397.145125
-1361.713037
-1486.035372
-1335.392056
-1182.173479
-1075.304668
-1010.409426
-961.3567257
-923.6373564
-900.2896707
-885.4359102
-878.4672264
1001.043605
1008.734732
1024.661917
1050.391563
1078.785816
1127.501737
1195.799376
1273.072568
1387.357206
1554.718782
1856.958625
2482.559898
-3359.252617
-2266.515414
-1701.61234
-1370.719678
-1179.478887
-1063.907869
-992.1536845
-934.8706786
-904.3354599
-885.5532784
-876.6280688
982.7496469
990.9434061
1007.871774
1035.334339
1069.178901
1122.329315
1197.655441
1288.195113
1417.126141
1595.041987
1871.41173
2249.656476
-4721.092855
-2765.847742
-1935.854913
-1489.163314
-1242.298737
-1090.403317
-1003.799201
-932.3550435
-897.7206674
-876.7021819
-866.6544958
956.8286814
964.8638729
981.3973687
1008.123372
1044.814566
1096.920692
1169.932839
1260.151435
1379.431232
1530.845163
1723.523692
1916.237172
-4193.4786
-2679.952534
-1925.683985
-1488.487795
-1243.777223
-1081.842987
-992.1406057
-914.0288397
-878.9448513
-857.6680157
-847.4649505
923.3247006
930.5973382
945.4511334
969.1159329
1006.278575
1052.547991
1116.112612
1197.637798
1297.222035
1413.913723
1546.866138
1672.759127
-3067.907769
-2211.725985
-1711.069166
-1386.762684
-1185.675864
-1038.003177
-956.7565153
-879.899622
-847.9507123
-828.3676015
-818.9167003
882.8362646
888.8605458
901.1268905
919.6158149
956.0118004
992.3948013
1041.772564
1109.601581
1185.893854
1270.027966
1361.570925
1470.408189
-1956.107237
-1621.796864
-1395.426185
-1214.605426
-1081.934816
-965.4367376
-901.1551021
-831.8561347
-806.1620991
-789.7628933
-781.7895947
836.4475218
840.9156088
850.1572364
863.2134436
894.5123041
920.3735624
952.8935255
1005.259014
1057.044315
1108.8922
1156.595487
1236.827583
-701.0899123
-977.0037606
-1077.948636
-1073.178032
-1019.360647
-954.5515654
-874.9018828
-830.7348898
-774.5549452
-756.0820683
-743.6228668
-737.5852916
785.4757786
788.292884
794.3188484
802.3434837
827.2725996
842.344809
858.5332994
893.2303225
921.3771914
940.9280741
937.4475551
928.4942122
312.3182779
-379.4194338
-673.9266145
-802.663305
-835.2079137
-820.970501
-777.6180419
-752.7156542
-711.9776178
-700.3936869
-692.1457067
-688.2225828
731.3887421
732.5002689
734.9852847
737.8146184
756.8327551
760.6436139
761.7943225
777.1427299
782.6783662
774.5954032
729.2955392
597.0188207
293.5774845
-132.1366717
-431.4101478
-602.8053185
-677.7434666
-695.7615079
-680.9211526
-673.398884
-646.9552485
-641.7249059
-637.6133169
-635.7214079
675.6363657
675.208026
674.3952238
672.4745742
685.9849133
680.5263838
669.8535078
666.1183747
649.6929877
619.98583
555.6021856
440.6129474
220.8273779
-67.13091593
-308.2642653
-466.988935
-550.8239704
-585.4428711
-591.1317071
-596.8041563
-582.3456198
-582.5583878
-582.10741
-581.9732823
619.6048969
617.9210323
614.4175683
608.6586581
617.0355576
604.4416365
584.8168669
567.3820453
529.9759157
481.5400069
409.3621259
302.6785606
130.991364
-66.90601136
-245.9794715
-374.4531955
-449.4702169
-492.2133517
-510.6831867
-525.403929
-520.3929134
-524.9089968
-527.3767245
-528.5952553
564.5041958
561.8579916
556.2925486
547.6568815
551.7989977
534.138819
508.6394098
484.2568278
433.6857534
371.7812663
293.0147425
200.9276566
65.53867854
-77.39039399
-205.2526073
-301.3399115
-367.3098687
-413.6869152
-440.0044242
-460.3530235
-462.460973
-470.04581
-474.6863166
-476.8845547
511.2678654
507.9341485
500.8956374
490.2761829
491.2608697
470.489181
441.7554479
414.4802033
363.5115922
299.5184552
220.6946338
136.4936128
30.93013244
-74.0437736
-166.2630022
-242.9121366
-303.439525
-349.3184506
-379.0781407
-402.3000006
-409.2021722
-418.7501829
-424.8455068
-427.7559327
460.5699732
456.8057789
448.8459115
437.0353285
435.8573956
413.5605261
383.563076
355.8676531
307.3044821
249.0269398
180.7709903
109.8176157
24.31097003
-58.24603991
-133.790669
-199.2533643
-253.370533
-296.5747012
-326.9744418
-351.0668012
-360.8793191
-371.4842065
-378.4266953
-381.7407111
412.8574383
408.8857591
400.4885962
388.1642775
385.5748073
362.9794399
333.2631938
306.4512934
261.572567
209.8398718
151.6161977
90.27367965
20.94312681
-46.85560606
-109.816789
-165.7420718
-213.4794082
-252.9994706
-282.4802738
-306.1006306
-317.4101795
-328.3788246
-335.6768678
-339.1647704
368.3807781
364.377545
355.9247447
343.6215137
340.1970007
318.1676086
289.8726383
264.5254752
223.8588892
178.186289
127.910789
75.49722822
17.88231009
-38.55115216
-91.49171885
-139.3540485
-181.1541471
-216.639691
-244.3596735
-266.7129633
-278.5215832
-289.3439537
-296.6313374
-300.1193752
327.2222324
323.3178408
315.0867294
303.1903592
299.3802936
278.4810522
252.1537001
228.7259117
192.3145199
152.1006137
108.6240678
63.69856194
15.22939592
-32.23309916
-77.05815422
-118.0986998
-154.5462768
-186.0881951
-211.4990732
-232.1964496
-243.8212851
-254.1521778
-261.1768078
-264.543656
289.3348011
285.6222702
277.805779
266.5769663
262.7161351
243.2955374
219.1971765
197.9100423
165.5810924
130.2631742
92.65392166
54.04314208
12.95337654
-27.24868448
-65.38992618
-100.6303487
-132.3188148
-160.1433326
-183.0480522
-201.885181
-212.8804275
-222.5058462
-229.1041985
-232.2696817
254.5826517
251.1250774
243.8517131
233.4558375
229.7824715
212.0263977
190.256708
171.1732755
142.6582252
111.7366584
79.20987728
45.98714643
11.00036689
-23.19777623
-55.74621955
-86.02026326
-113.4982375
-137.893343
-158.2751256
-175.1871104
-185.2777354
-194.0776631
-200.1504314
-203.0650257
222.7715062
219.6079761
212.9562543
203.4878156
200.1632859
184.1478644
164.7019521
147.794673
122.7949833
95.82743441
67.73261582
39.15906693
9.319058584
-19.82296513
-47.62284774
-73.60904552
-97.36256054
-118.6297797
-136.568522
-151.579686
-160.6132273
-168.5325886
-174.0269446
-176.6639077
193.6665264
190.8178896
184.8288495
176.3314434
173.4682192
159.1981291
142.0093527
127.1985583
105.419699
82.01760725
57.81470849
33.29625619
7.865526449
-16.95233401
-40.66746298
-62.91954438
-83.37052079
-101.8009627
-117.4263797
-130.611786
-138.5120674
-145.5393258
-150.4352455
-152.7841308
167.0077422
164.4820208
159.1704176
151.6532387
149.3270963
136.7636307
121.7319381
108.9131982
90.08147912
69.90565195
49.14947847
28.20353915
6.602457257
-14.46614226
-34.62464979
-53.59543613
-71.10495672
-86.96649474
-100.4272168
-111.8873909
-118.6281425
-124.7791576
-129.0783374
-131.1394896
142.5244147
140.3213154
135.6847717
129.1348937
127.399179
116.4796691
103.491068
92.54858612
76.4186251
59.17516152
41.5007327
23.73236074
5.498291381
-12.2785957
-29.3048189
-45.36561229
-60.23951527
-73.7710651
-85.21916158
-95.06302928
-100.6461512
-105.9527083
-109.6699892
-111.4502539
119.9438394
118.0578299
114.0834426
108.4752006
107.3678243
98.01991176
86.9797715
77.76981585
64.13394383
49.57273592
34.67829282
19.76468746
4.526042625
-10.32574939
-24.56216577
-38.01723748
-50.51111217
-61.91270445
-71.50542101
-79.83708209
-84.2795799
-88.7810272
-91.93843045
-93.4482935
98.99001644
97.41372516
94.08371149
89.38203702
88.94739825
81.08653121
71.93703395
64.3047063
52.98191395
40.88966362
28.52767175
16.20465284
3.662526412
-8.558564336
-20.28186729
-31.3805428
-41.7084626
-51.14482544
-59.0203252
-65.94256088
-69.26241512
-73.00227641
-75.62448345
-76.87528562
79.41667574
78.13981615
75.43467367
71.60620112
71.85163934
65.40676678
58.03502893
51.93723882
42.7553113
32.94989644
22.92009796
12.9729657
2.887499647
-6.938299825
-16.37092117
-25.31658363
-33.66053053
-41.30141165
-47.51360401
-53.13694871
-55.36885698
-58.387406
-60.49940211
-61.50411565
60.88662997
59.90877252
57.81769355
54.81763007
55.88647698
50.73587988
44.93938001
40.45168528
33.26497288
25.5987729
17.74193368
10.00107202
2.183091108
-5.432825755
-12.75043173
-19.70472804
-26.21085498
-32.20213456
-36.80321884
-41.20280874
-42.32218781
-44.66874609
-46.2884766
-47.05164868
43.4357698
42.72909528
41.23258153
39.09591482
40.55860627
36.84780492
32.58475226
29.62544028
24.33594787
18.69663542
12.89210171
7.229125825
1.533794985
-4.014832858
-9.352399872
-14.43879786
-19.21568311
-23.6372251
-26.7298579
-29.92229476
-30.15804944
-31.81691536
-32.96581136
-33.5134246
25.78351974
25.42932669
24.5438354
23.26126541
25.9564283
23.54393949
20.74442839
19.28104193
15.80644573
12.11154977
8.278532279
4.60507159
0.9262706233
-2.660363931
-6.116893901
-9.424353082
-12.54870674
-15.46848808
-17.10470515
-19.19698898
-17.97766582
-18.97218403
-19.64819865
-19.91570902
12.20436524
11.91304679
11.47790534
10.83592534
11.71050185
10.49794006
9.146566328
9.255014141
7.513380344
5.706882908
3.81174215
2.090193593
0.3505675962
-1.347348096
-2.990890005
-4.57721559
-6.093657368
-7.543881492
-7.695014587
-8.654749637
-8.47039073
-8.93886383
-9.258925295
-9.490602929
2302.127863
-5096.534191
-3595.836707
1951.389633
-4581.386067
-5120.19457
1699.706595
-3342.301201
-4444.58694
1496.267673
-2133.07172
-3183.137459
1255.170227
-749.4988008
-796.9357419
-1089.384235
-1992.086651
957.5999307
396.6464235
-700.8589178
257.9397113
-386.7108801
-974.5465284
2417.313209
672.2619384
-3201.894138
-1156.945224
-7107.219337
-4899.152756
-4686.114353
-2995.894144
-2465.826045
1765.473753
1929.777653
2200.490105
-6569.345572
-7131.340523
-4310.345238
-3030.653448
-3075.557303
1591.674749
1687.425918
1896.409369
1817.36786
1856.446043
1985.350009
-4676.22236
-5625.981647
-3213.148653
-2532.943281
-2940.760307
1409.225908
1482.430079
1660.669975
1596.210449
1637.359127
1722.097035
-3005.323593
-3705.887279
1209.621106
1252.664268
1456.439593
1378.55064
1440.579143
1538.13363
-1583.971943
-1574.04241
-2176.764864
992.3367523
966.8582021
1219.473363
1109.427829
1140.590269
1302.406838
668.7955466
413.0486663
411.7884446
2882.756388
2432.414333
3269.859084
2964.781934
-7161.523305
-7146.263312
-4770.657078
-6808.695398
-6980.298082
2003.462156
2139.096642
2065.540384
2145.66267
2007.350067
2387.771199
2168.319433
-5685.100642
-6524.508831
-4862.444319
-6387.721997
-5591.612788
-6954.066592
-6431.602651
-4912.052836
1735.38117
1839.337471
1786.416607
1848.574475
1737.046415
1997.801361
1857.962702
-3810.868022
-4610.916619
-3823.207318
-4501.014089
-3738.411814
-5533.736314
-4621.092921
-3983.376272
1544.668746
1632.13272
1571.44308
1635.971074
1549.408584
1729.958278
1640.991122
-2265.798473
-2909.627604
1311.46622
1433.619249
1363.210453
-1533.234681
1439.348179
1317.15399
1542.732683
1446.3757
-1575.789571
-978.1519422
-1492.837863
-1531.278223
1027.706881
1127.302116
1089.411136
19.92238048
1132.775446
956.5710078
1308.109967
1145.238274
-53.07152089
1892.311689
2243.894424
2353.991418
2492.371224
2899.770794
3114.515496
-9526.436719
-6478.453497
2107.524771
2162.349106
2382.586166
-3600.956117
-2089.104485
-1854.720664
-2369.647872
-2012.576373
-1975.705613
-2293.20783
-111.4720399
-444.9032162
-831.6978283
2425.308101
2830.49622
2454.790389
2605.095377
4132.880752
3840.21957
-4618.315666
-6693.932066
-4556.500532
-2345.871672
-2690.091704
-2570.716158
-2866.222095
-2241.042564
-3637.413772
-2959.106805
-2720.723591
-1108.631515
-208.1516918
-386.1562383
968.3730169
2185.073742
3192.637188
-4358.5624
-1543.607093
585.9493931
-9590.467351
-6595.284071
-9134.199482
-6122.284733
-8993.71762
-6255.514999
-6826.710062
-6866.218198
-5121.734629
-5186.309327
-3164.215173
-3514.427942
-3298.110302
-3499.209514
-3135.800309
-3963.289841
-3554.744662
-3398.424257
1486.729298
1453.724951
1411.995601
-1592.111708
-1879.59458
-1923.764546
1224.811699
1189.977756
1123.935025
1266.540551
1210.087864
1234.717152
2992.69794
2646.532593
2657.228255
2650.97633
3007.479797
2407.612843
2611.644248
2593.121202
3264.62893
3760.940824
3989.230595
3073.755398
3671.414182
3204.003788
3733.032405
3075.687335
-7264.900361
-7272.535682
2079.23437
2166.420932
2069.45707
2277.045498
2267.066415
2389.580514
2174.689091
2253.428389
2246.395556
-6073.997687
-6127.725739
-6023.740919
-5401.462115
-5615.704261
-5067.056003
-5322.558959
-5971.522304
-6726.688029
-5882.263664
-5964.337964
-5678.471756
-5839.867052
-6689.124352
1792.97272
1784.971752
1932.412005
1922.220658
-4141.008477
-4010.483743
-4198.49225
1596.525759
1590.496273
1685.008957
1679.179816
-3079.380515
-2720.267135
-2628.486091
-2738.295845
-3099.970012
1367.589674
1334.735201
1284.13986
1397.330669
1351.020094
1376.937338
-1159.98816
1381.470565
1371.624685
1497.10018
1491.249889
-1929.006656
-1165.4129
-1218.8821
-1497.910438
1100.186193
1027.897708
943.4750185
968.2402652
520.6464368
244.8840502
1240.886165
-195.3002452
205.8382184
-110.3068894
1231.610896
-296.872005
-146.0555081
174.2733755
-8430.266721
-2181.277688
-2349.096116
777.7732243
712.6718593
929.9936467
814.9563336
837.7352341
992.8896912
304.1102788
-68.42098047
-268.232784
4884.70113
-2381.547753
-2568.777568
-866.5649217
-1127.891515
-1115.419447
-85.76162734
-337.9128707
-41.11086868
1422.897501
2815.369979
4037.283386
-5761.300593
-2101.16142
360.4322423
-6690.320151
-7699.110742
-7528.714678
-7025.118775
-4863.858146
-5060.60691
-4845.16349
-5903.804896
-5710.681751
-5442.52501
1676.284909
1652.286502
1616.146359
1703.298017
1664.692358
1682.431547
1506.242236
1467.069954
1492.817659
1178.715205
1164.933687
1127.595252
912.6981668
726.3029429
461.9928724
-7215.334593
-7784.189548
-7765.442369
-7064.802987
-5891.670822
-5657.92102
-5973.654697
-5932.568446
-7053.335623
-5857.383554
-6151.745392
-5971.305944
-6366.97741
1776.945403
1758.215228
1716.646451
1744.922144
1763.69647
1756.631341
-4778.434546
-4569.463717
-4429.556106
-4160.085106
-3906.539246
-4197.527773
-5112.190617
-4691.174039
-4976.020108
-4296.156669
-4593.286649
-5050.443967
1586.512373
1556.266374
1519.000148
1604.288272
1568.450893
1592.485075
1620.350678
1635.30378
1647.485948
1563.319764
1587.149845
1568.443044
1710.54167
1717.240184
1738.203738
1651.18037
1664.293307
1656.509958
-2536.906813
-2671.4987
-2342.518506
-1351.316801
-1370.781162
1417.250985
1333.943738
1522.21736
1531.525395
1557.155996
1486.005026
1466.000603
-1715.604461
778.7440975
1003.824134
958.1674129
1114.106725
1068.780514
1075.580892
213.8342783
434.787634
208.1423262
1082.726964
464.6195397
751.2094971
559.2023201
574.0243077
1275.395762
1183.051665
-8779.865411
-8147.544089
-8379.851398
-3757.917086
-3828.447757
-1983.597407
-2130.838656
-2131.089769
2512.360868
2484.057561
4179.757837
4724.584358
4676.764893
4582.697356
4124.836891
-2763.610718
-2572.928673
-2538.562271
-2570.964969
-2779.477928
-1107.604601
-926.5793246
-952.0339059
-928.1052644
-1105.068928
-700.403116
-877.9597133
-451.7934344
-489.4086077
-651.8677606
-284.444728
-437.0570593
-351.5105366
-9389.675513
-8106.477043
-7675.17479
-8341.184414
-8198.413561
-7489.619136
-6741.764231
-8151.594906
-7230.187543
-7098.815505
-6723.096398
-6986.704422
-7465.918448
-7287.662436
-5344.898697
-5133.74916
-4928.516373
-5194.04673
-5410.426253
-4911.927198
-5128.694091
-5486.834831
-5379.179657
-5650.458121
-5422.916018
-3310.146899
-3380.690509
-3350.338663
-3269.916845
-3422.094635
-3803.357361
-3690.680524
-3854.46392
-3472.914625
-3636.877055
-3744.322392
-1792.484438
-1779.078088
-1929.740754
1209.539159
1177.374316
1187.601306
1261.400966
1249.025035
1220.324972
2824.635906
2775.456785
2780.920844
2783.275066
2659.832022
2981.33234
2828.898389
2831.366003
2485.676946
2496.377163
2420.766104
2622.767201
2524.965609
2515.433349
3309.435275
3213.810529
3039.27723
3431.036388
3331.454331
-7948.486529
-7805.036501
-7229.69334
-8006.022244
-8212.371745
-7949.663945
-8301.176061
-8397.290773
-8295.269062
-8263.679172
-7257.891792
-8007.568314
-8005.876621
2122.122873
2119.211487
2092.805248
2161.042787
2129.425451
2134.151177
2053.704876
2030.287411
2085.368275
2061.398617
2313.413234
2321.700322
2273.446624
2399.062806
2339.590817
2330.021824
2208.664518
2206.900812
2171.801094
2258.892622
2219.362266
2221.629169
-6373.812892
-6210.169691
-5913.02792
-6305.613772
-6620.377021
-6422.298214
1823.947025
1801.324407
1858.329104
1830.836806
1765.521333
1747.794385
1793.027315
1771.286687
1980.572623
1948.783375
2021.677733
1991.192586
1896.302954
1866.828676
1938.241125
1906.873418
-4128.427217
-4316.615137
-3912.671587
-4076.1435
-4163.026168
-4621.059199
-4836.608843
-4372.933377
-4557.506407
1607.770573
1629.303013
1614.688457
1635.184096
1610.637934
1650.883627
1641.685702
1604.973703
1573.666668
1589.989544
1601.692384
1693.80897
1710.412927
1703.594974
1713.64899
1696.433478
1740.963586
1719.843542
1665.695848
1653.757948
1688.06899
1670.507366
1661.954436
1669.308446
1687.171458
-2778.338194
-2897.312348
-2960.688663
-2767.606027
-3015.611147
-2944.831418
-1114.731464
-1322.803105
-1339.989544
-1116.910221
1409.661474
1344.09008
1507.710732
1524.335305
1515.568064
1472.769129
1493.253822
1503.70082
-1807.302844
1052.2931
1052.141744
1000.434515
629.267045
552.9628124
1061.185307
313.5668346
450.0905017
363.965994
1263.939162
-342.9195827
67.56690469
265.0212594
27.14468803
1186.686184
-3035.141848
-2220.506619
-1502.969109
-2328.757968
-2385.41494
-1115.705615
-1206.056706
-1683.994647
-2387.994888
-901.2901487
-878.2147796
-711.2840333
-2154.631501
-1608.627956
-1583.990822
1402.80819
3273.791313
4489.426875
-7041.839445
-2837.164457
150.2879357
-2116.42997
-1829.83174
-4167.31163
-6887.665611
-7812.113375
-7994.389502
1910.792181
1885.050029
1834.546953
1956.217649
1902.508696
1929.473891
-1577.817778
-1727.826326
-1726.916696
-2246.677054
-1960.688199
-1913.326391
1286.487722
1259.231802
1271.950784
-8030.547719
-8024.770783
-7256.228665
1818.424184
1772.732902
1791.731893
1824.032973
1829.779226
1856.273993
1865.065875
1893.739
1884.455353
1332.530881
1320.490211
1295.753399
-1543.826965
-1495.806753
-1487.223474
1322.233138
1331.562976
1325.216483
-1651.155563
-1659.151601
-1554.235528
-1373.828625
-1375.738612
-1527.781101
1118.421802
1298.922653
1305.937869
1313.830792
1154.634901
-9430.993774
-3639.718893
-1996.046242
-2071.076512
-2073.87265
-2332.5894
-2174.730327
-2147.169181
2568.095063
-5534.436678
-5019.036262
-6093.618884
-2490.551645
-2540.878058
-2378.098769
-693.7168025
-707.8250699
-526.2200444
-533.5120613
-636.1247379
-2862.629792
-2440.095349
-5530.61833
-9316.848289
-8781.710725
-8620.43033
-9010.354118
-9070.806166
-3213.722312
-3247.818436
-3195.681805
-3528.969979
-3532.341031
-3507.241524
-3064.55033
-3215.627413
-3287.629325
-3924.661003
-3866.415695
-3924.799777
-1921.252558
-1900.894481
-1933.448245
2929.760353
3012.846389
2688.124914
2692.178525
2696.14527
2655.540695
2426.188266
2437.686133
2415.299461
2617.261886
2581.933422
2575.921909
3457.336496
3279.085386
3399.096978
3627.875539
3649.926976
3792.356586
3079.960345
3151.638606
3151.890529
2103.348158
2100.297096
2098.325198
2164.386332
2154.328227
2156.742904
2050.633035
2044.46665
2092.987222
2084.313452
2283.062477
2285.3428
2270.06292
2394.201541
2373.511895
2369.827313
2183.436003
2183.897095
2173.878412
2256.074735
2243.87697
2242.927463
1799.337053
1822.164132
1815.436429
1763.986109
1770.004061
1791.528027
1944.762998
1975.598163
1960.47144
1967.112107
1955.97817
2037.23235
2026.738192
1878.20918
1944.956809
1934.042171
1894.456601
1903.888884
1934.489852
-4314.556869
-4391.474921
-3985.326927
-4056.780339
-4078.700656
-4462.408735
-4471.209124
-4368.243382
-4506.704018
-4327.93409
1354.355842
1329.435493
1340.859961
1403.554961
1387.340198
1363.300031
1385.732291
1397.08018
1391.535336
1362.229242
1365.943165
1375.278369
-1931.10149
976.5959456
992.1880774
958.772112
662.573085
983.693625
403.3112147
511.2980959
616.4009576
1247.233113
1252.850086
1248.440179
-258.5092285
-103.1783791
-84.6284708
-100.4978486
1220.106528
1227.110703
1238.758778
-8.432108389
-93.74207578
-234.1536799
-2213.591464
-2262.03267
-2372.848968
-2323.07651
-2303.620633
5065.32918
5071.995697
5051.388936
-2443.79031
-2468.374268
-2377.618067
-2584.391315
-2526.242406
-2517.839017
-3892.527127
-3218.437696
-6660.938273
-6953.784234
-6972.582349
-6860.640534
-6910.565314
-7639.325773
-7450.513337
-7501.212285
-7353.057363
-7402.359638
-7584.443572
-5843.708095
-5755.545089
-5818.213995
-5620.11142
-5691.145266
-5780.859237
-7825.939528
-7607.748008
-7612.682343
-7552.789177
-7592.758842
-7817.183669
-6088.058408
-5999.039615
-6058.158542
-5881.098127
-5940.595658
-6032.186963
-6769.340403
-6814.942838
-6645.145324
-6708.16966
1639.904532
1634.823693
1629.792989
1569.901124
1566.015977
1559.074708
1580.048557
1573.566964
1578.36343
-1492.228528
-1548.931049
-1348.316479
-1435.008868
1434.435452
1429.897915
1447.445348
1439.653231
1337.915535
1329.909863
1335.811798
1332.078352
1540.065396
1537.037035
1529.265185
1552.402017
1545.058721
1549.281218
1462.058774
1456.901897
1478.277066
1460.665144
1468.723235
-1719.749317
-1715.076107
-1708.44106
-1553.720441
981.8549626
996.1467541
1061.150777
1095.186341
1089.766891
1070.950306
1102.44327
416.9726218
407.5291972
1027.85177
921.0287326
718.0613875
1277.17379
1293.571601
1288.051552
1168.643413
-9397.969324
-9674.620882
-9127.272249
-9062.214229
-8515.066903
-7570.558848
-9392.902181
-9055.182602
-3691.044394
-3842.785627
-2132.317975
-2124.33672
-2128.026385
2538.751774
2452.617573
4780.113553
4587.783552
4537.870305
4118.652128
3985.136856
4417.40479
4250.38096
4391.202796
-2661.348718
-2581.739346
-2719.567562
-941.3905194
-935.9689974
-924.159246
-1046.297376
-737.8255247
-711.6878918
-701.0871904
-863.8561542
-801.3284242
-803.347646
-461.458559
-516.6366895
-510.0348995
-335.4026187
-343.7430079
-389.1285006
-8983.754643
-8901.935602
-9375.604655
-8302.833435
-8690.525871
-8686.870373
-9129.25367
-9113.309357
-7170.139803
-7052.422765
-7096.994132
-6994.882133
-7008.978804
-7114.193315
-7401.524927
-7246.916147
-7300.855815
-7145.547577
-7195.007233
-7343.869604
-5274.393203
-5198.720405
-5268.316596
-5261.42485
-5337.219128
-4953.978525
-4984.0425
-4961.383174
-5064.518914
-5568.929248
-5600.718592
-5554.219701
-5470.205501
-5545.167587
-5340.988911
-5409.573426
-5500.362308
-3350.062314
-3253.017933
-3250.570836
-3267.175098
-3206.284062
-3266.717089
-3455.228826
-3477.347167
-3406.289642
-3760.788151
-3803.668368
-3825.075307
2876.451227
2730.210349
2490.672223
2462.34127
2450.828983
2544.489763
2549.706294
2519.714528
3434.242449
3536.308755
3529.554014
3844.937324
3713.353989
3236.903525
3234.528009
3331.145919
-7890.148621
-7677.893905
-7711.991393
-7623.469147
-7647.203165
-7843.163803
-8071.410588
-8135.06419
-8359.506458
-8715.46809
-8617.895173
-8810.143954
-8811.630436
-8405.383306
-8323.233158
-8553.636961
-8507.372032
-8250.936999
2121.675543
2112.120358
2112.703064
2145.910883
2143.643303
2132.639968
2062.682061
2056.533527
2076.089745
2069.116279
2316.89614
2300.882589
2298.408963
2349.181293
2353.244273
2334.215685
2207.974857
2195.468599
2195.007779
2232.886738
2232.344091
2220.474563
-6324.231684
-6227.224423
-6277.647519
-6115.163063
-6171.744204
-6264.961774
-6566.888777
-6469.623832
-6552.632055
-6329.226602
-6393.058657
-6489.835187
1816.945395
1819.006836
1825.090407
1803.295171
1811.774201
1809.397813
1848.248706
1847.219034
1858.980665
1830.543956
1837.344275
1838.714058
1759.936654
1762.287773
1767.042403
1750.9985
1757.02171
1754.085692
1785.052783
1785.634761
1794.227352
1771.929058
1778.041687
1777.764878
1989.744157
1978.447712
1969.996774
1974.48406
1985.364325
1952.641418
1963.534289
1959.383814
2013.626789
2001.119748
1902.083285
1892.287868
1885.967512
1888.986184
1899.204818
1867.853097
1872.373754
1874.931023
1927.752289
1931.126775
1941.844422
1909.958489
1920.512066
1917.309403
1923.358506
1912.772485
-4220.638791
-4257.606035
-4149.476689
-4117.883039
-4138.897143
-4681.36714
-4712.038442
-4660.952719
-4873.807871
-4781.118289
-4751.868166
-4418.548521
-4449.897531
-4426.777832
-4605.286656
-4550.393937
-4487.277148
1614.373502
1610.675922
1604.157566
1624.007682
1617.465678
1621.896346
1626.130379
1617.440222
1648.247364
1645.360046
1600.802188
1590.741834
1585.103547
1585.191421
1583.077289
1597.821802
1592.089696
1596.981155
1700.300212
1705.294498
1716.836523
1701.09097
1733.798792
1736.276411
1743.888743
1722.640058
1729.222792
1726.799676
1661.144121
1657.126939
1680.859761
1675.393889
-2897.229953
-2882.571583
-2951.828706
-2766.167876
-2819.780364
-2854.568664
-3089.297619
-3137.650554
-3000.290674
-3001.304203
-3011.571698
-1274.197564
-1282.615695
-1337.643596
-1137.400773
-1204.281353
-1208.887676
1402.460448
1389.167508
1424.291438
1415.233649
1348.831375
1356.751114
1352.882742
1359.741507
1352.245141
1377.933776
1368.612194
1512.617646
1510.258256
1504.928602
1522.291716
1516.02385
1518.14507
1497.552063
1490.951132
1485.120793
1500.072471
1495.571864
1500.595664
-1871.19228
1049.291725
1025.129473
1025.885444
595.4443402
600.3291049
645.4151644
553.3617003
557.1100887
546.7689537
1037.124396
402.3081209
357.7746099
296.3584674
1255.371671
1257.300874
1264.046242
-323.2380484
149.50215
96.57194312
251.4795262
244.1186928
252.7400892
81.89205947
-44.43181113
-25.83986541
71.82582775
1200.050308
1216.227927
1208.627819
914.489253
866.2117198
838.0877255
845.8465108
771.6268379
738.0589575
741.1596628
632.5486614
599.2376504
589.5563691
444.3369984
419.4215215
389.9763143
217.583353
209.8680936
157.0919949
-21.44050555
-9.324136806
-79.79968749
-241.7764497
-215.8769575
-291.7943093
-424.5202869
-392.9079697
-463.882596
-563.5105337
-531.9501428
-591.8929395
-662.1780861
-635.6146328
965.8989102
930.3003117
879.5515024
914.3828222
849.4572001
787.7543511
821.0122647
711.9838321
648.4065564
666.9530283
504.7101522
455.7045632
441.7753866
232.7120264
220.1718778
158.891868
-62.37944665
-29.29127826
-132.2254816
-319.3600317
-256.3480193
-373.182645
-508.4605874
-440.5146466
-545.6866244
-637.9756889
-578.7798261
-663.2506941
-724.2762456
-674.9616857
1037.51904
1021.972031
950.8169729
1012.687626
967.4294212
874.9129515
945.1395894
849.4830297
739.8318563
805.7734634
628.8435876
527.8995051
552.6700133
275.5210363
239.6498061
171.7076089
-138.6900387
-77.21573958
-233.0523823
-466.1479774
-348.0995374
-525.9804234
-658.8526908
-538.9270015
-691.0707177
-761.2366336
-663.3679467
-777.7832328
-814.5794649
-744.4948744
1121.330705
1134.287995
1048.826213
1136.234531
1131.335776
1003.900965
1123.924721
1075.099049
896.3862209
1045.87833
884.3656686
676.5892673
794.6951719
385.6086996
294.5433345
211.3558108
-308.3809983
-167.6530065
-451.7213725
-747.4089631
-519.5774994
-807.7787823
-908.611049
-710.7315595
-922.5356661
-936.9294428
-800.3359668
-936.6905736
-930.9583121
-841.359036
1202.333316
1249.775316
1164.271826
1266.325328
1319.754177
1177.62751
1339.176612
1400.022139
1148.7276
1417.466529
1413.263871
983.3754047
1356.985257
608.5713249
432.0857747
384.343699
-856.6828522
-388.0187115
-1061.806546
-1305.67434
-853.6449944
-1316.513116
-1270.054611
-987.7969817
-1242.881462
-1157.362639
-988.3941878
-1130.967547
-1064.422196
-963.2891515
1263.104648
1340.179238
1276.009862
1369.80188
1478.304065
1364.867908
1524.093466
1711.395014
1487.25436
1799.483483
2299.766809
1608.996022
1941.620246
1948.570711
1384.444212
401.9396334
-1118.242612
-438.6193984
-1869.954404
-1778.272571
-1455.838366
-2072.270667
-1711.777701
-1377.32804
-1615.754379
-1387.036844
-1216.575222
-1327.892699
-1191.017349
-1097.869387
1288.277933
1380.676621
1355.470449
1416.120753
1544.449813
1504.892536
1597.601695