/*--------------------------------*- C++ -*----------------------------------*\
| =========                 |                                                 |
| \\      /  F ield         | OpenFOAM: The Open Source CFD Toolbox           |
|  \\    /   O peration     | Version:  v1912                                 |
|   \\  /    A nd           | Website:  www.openfoam.com                      |
|    \\/     M anipulation  |                                                 |
\*---------------------------------------------------------------------------*/
FoamFile
{
    version     2.0;
    format      ascii;
    class       surfaceScalarField;
    location    "2.58";
    object      phi;
}
// * * * * * * * * * * * * * * * * * * * * * * * * * * * * * * * * * * * * * //

dimensions      [0 3 -1 0 0 0 0];
oriented        oriented;


internalField   nonuniform List<scalar> 
25162
(
0.0004134469465
0.9162365531
0.0004918847017
0.9166215622
0.0005515162225
0.9165903685
0.0002672420807
0.9166320649
0.0003022092422
0.4583395179
0.0002777241951
0.4583167791
0.0003348098516
-0.0003515889144
-0.0004271588991
0.4582965668
0.000480592069
-0.0005311528334
0.4582470988
0.0006190539832
-0.0007155887318
0.4582241182
0.0008214705693
-0.0009465453984
0.4581966308
0.001084914612
-0.001229118391
0.4581851648
0.001378953574
-0.001532737279
0.4581982335
0.001666003759
-0.001782508695
0.4582446896
0.001871319053
-0.00192323432
0.4583191083
0.001939126032
-0.001915726381
0.4583950029
0.00185072352
-0.001760283069
0.4584485093
0.001646773777
-0.001508231817
0.4584700834
0.001373148462
-0.001232481506
0.4584846969
0.001062784642
-0.0009886636602
0.4584616142
0.0008770494731
-0.0007306614703
0.4584692558
0.0006114056723
-0.0015157436
0.9187280449
4.761456394e-06
-0.0005670627004
-0.0009461199162
0.9187803763
6.276651861e-05
0.9158411136
0.9138627665
0.001134096633
0.9151024564
0.001760321745
0.9159953371
0.001924155037
0.9164265352
0.0004619071426
0.9172798553
0.0008144574459
0.4581282997
0.0005545533469
-0.4582209459
-0.4582162901
-0.0006830637736
0.458052673
0.0008466809096
-0.4580850097
-0.001052520269
0.4578329161
0.0006161223962
0.0006884914495
-0.2289862006
-0.0007581668704
0.2289181492
0.0008262182875
-0.001130208231
-0.2289250966
0.2288336313
0.001221673571
-0.001621468103
-0.2288625995
0.2287365594
0.001747508219
-0.002239706708
-0.2288237517
0.2286765304
0.002386928039
-0.002909896544
-0.2288407271
0.2287630281
0.002987603687
-0.002722906894
-0.2289493097
0.2287204006
0.002951803432
-0.003826429763
-0.2291206736
0.2290616297
0.003885473636
-0.003820260291
-0.2292651023
0.2292965063
0.003788856317
-0.003490600376
-0.2293664072
0.2294826188
0.003374388814
-0.002946621437
-0.2294046705
0.2295608884
0.002790403556
-0.002347048445
-0.2293904464
0.2295447113
0.002192783551
-0.4589007885
-0.003458867761
0.460366049
0.001993607308
-0.0006467453968
0.4610154201
-0.001077497882
-0.4592911768
-0.00111335598
0.918464498
4.648650548e-05
0.001330416323
-0.0006732182995
0.9183402386
0.0005077703683
0.9146601249
0.9143705369
0.001421591069
0.9136808653
0.003856478987
0.9135604492
0.006524597401
0.9137584168
0.002570320712
0.9152498284
0.005984303648
-0.4581317862
0.4580179974
0.002684109535
-0.4579321714
-0.002597472033
0.458661175
0.001868468405
-0.4574928844
-0.001857153164
0.4573707424
0.0009612161051
0.001018079008
-0.228589437
-0.001211801083
0.2284477995
0.001353438609
-0.2283659067
-0.001872641651
0.228159678
0.002078870371
-0.2282156614
-0.001713027476
0.2335869467
-0.003658939462
-0.2380586875
0.02221341969
0.243197582
-0.02735612962
-0.2360991879
0.0387469254
0.2384546617
-0.04110565953
-0.2270886509
0.04378839781
0.2265139361
-0.04321405644
-0.2192850582
0.03706296519
0.215810664
-0.03358595475
-0.2208463195
0.01917478276
0.2148894393
-0.01321482019
-0.2300580642
-0.005468581625
0.2291456119
0.006381111152
-0.2302637472
-0.005504977618
0.2305810941
0.005187630698
-0.003965921643
-0.2302748434
0.2309547941
0.00328597089
-0.4630427737
-0.0008389756125
0.461957668
0.001924081304
-0.4601809335
-0.001971097143
0.4602636433
0.001888387407
0.001005729039
0.9206418525
-0.00181854168
-0.00136454188
0.002145065309
0.9172009024
0.001006969575
0.9157982206
0.9153775065
0.0004042343375
0.913276631
0.0008866899035
0.9130779936
0.001930442829
0.9127146638
0.002855281815
0.9125275445
0.001797444862
-0.457333308
0.4569876572
0.003200932609
-0.4603016672
-0.004312429882
0.4573673754
0.007246721669
-0.4589848497
-0.008372284762
0.4606977833
0.001652452069
0.005006899088
-0.2279324494
-0.001546049928
0.2277825137
0.001695985671
-0.2305113445
-0.0001745279113
0.2378770799
-0.007193219317
-0.2542650701
0.02870285891
0.260596539
-0.03504367984
-0.2569687256
0.05006518709
0.2604693562
-0.05357696653
-0.2439215636
0.05990289602
0.2448754451
-0.06086497194
-0.2248465816
0.06134048821
0.2243794726
-0.06087590604
-0.2069651654
0.05742358365
0.20495914
-0.05541366582
-0.1982189944
0.04572103272
0.1936223137
-0.04111591365
-0.2076488669
0.02335933295
0.2007133773
-0.01641641382
-0.2341190809
-0.0009193552828
0.2357722079
-0.0007333281148
-0.004468438351
-0.2318705745
0.2319135749
0.004425437993
-0.46207927
-0.006940553219
0.4634633153
0.005556507911
-0.4611085856
-0.004178945724
0.4622568488
0.003030682539
0.00410602519
0.9211390323
-0.00241936981
-0.002183835167
0.002778227327
0.9185287002
0.001293581993
0.917282866
0.9166710885
1.672135014e-05
0.9132599097
6.791872695e-05
0.9130267963
0.0002356533903
0.9125469292
0.0009226568621
0.9117245441
0.0001159969754
-0.456802493
0.4560852966
0.001639853196
-0.4560657476
-0.001959356696
0.4555653104
0.002459793947
-0.4547857327
-0.003166565875
0.4541993087
0.002022835838
0.001730153984
-0.2286023018
-0.003735886064
0.2275971596
0.004740786218
-0.2597251136
0.01042688945
0.2681756803
-0.01888847729
-0.2758052679
0.03826051838
0.279333938
-0.04180653476
-0.2657447555
0.04644043556
0.2654178218
-0.04612959919
-0.2436727204
0.04151551251
0.2416416326
-0.03949452444
-0.2234293019
0.03530316528
0.223291601
-0.0351689496
-0.2033777648
0.03789622586
0.2048335545
-0.03934847687
-0.1848256193
0.04192699481
0.1840316854
-0.04112202148
-0.195455737
0.04625797523
0.1843341407
-0.03511960872
-0.2080412975
0.01387276483
0.2015389477
-0.007361162712
-0.00655785923
-0.2334435154
0.2340696242
0.00593175048
-0.4653400111
-0.008296697574
0.4671813677
0.006455341039
-0.4633893187
-0.005064531104
0.4645806277
0.003873222116
0.005070361232
0.9236974572
-0.004211786895
-0.003416999205
0.002866101093
0.9207329604
0.001315584054
0.918833383
0.9179866725
-0.0002447421244
0.9135046518
-0.0004091652555
0.9131912194
-0.0003648940976
0.912502658
-7.523962594e-05
0.9115026158
-6.772617921e-05
-0.4552911392
0.4550672515
0.0001486481088
-0.4551848752
-0.001009330451
0.4545423891
0.001651816545
-0.4535720662
-0.002049017393
0.4527464065
0.001400977159
0.001473699929
-0.2417211994
0.002466435898
0.246479481
-0.007230799555
-0.2789441801
0.02053115816
0.2824849224
-0.02409144366
-0.2836255484
0.02813073228
0.2819768583
-0.02650535997
-0.2563451847
0.01497150732
0.256409001
-0.01505036614
-0.2296086771
-0.004497422459
0.2245885512
0.009513095166
-0.2228780286
-0.02224070955
0.2228482923
0.02226986349
-0.2181371431
-0.007663002251
0.2238503092
0.001952314137
-0.1956416422
0.02083125883
0.1983648776
-0.02354237954
-0.1723320354
0.02421925752
0.1714310917
-0.02329890146
-0.1856922532
0.01528916351
0.1818461116
-0.01142628694
-0.002649817047
-0.2309823922
0.2280100391
0.005624169459
-0.4688890643
-0.008846161652
0.4706694736
0.007065752277
-0.4653992479
-0.005730325457
0.4661902298
0.004939343557
0.004476331574
0.9267147883
-0.0036487621
-0.00384490063
0.002518880535
0.9226904114
0.001086445911
0.9202658176
0.9190731184
-0.0006240714327
0.9141287232
-0.001131107185
0.9136982551
-0.001510529881
0.9128820807
-0.0003309793983
0.911362173
-0.001039107697
-0.4550115179
0.4547806522
-0.0001001137341
-0.4536058411
-5.200287431e-05
0.4533352522
0.000322591837
-0.4525335989
-0.001177240973
0.4525446569
0.0006567107662
0.0005092186496
-0.2565917837
0.005008430858
0.2594987875
-0.007927685728
-0.2932316094
0.01510493694
0.2891393822
-0.01103715011
-0.2776996732
0.01193472309
0.2759707726
-0.01022777518
-0.2352095571
-0.001716307198
0.2274120421
0.009505933926
-0.2112586096
-0.0305495496
0.107439931
0.1017826032
0.01419460358
0.01839102133
-0.02284600197
-0.1088176678
0.1082128707
0.02345079901
-0.0187125911
-0.2466494179
0.03581799844
-0.01909396034
0.1238715677
0.1247664033
-0.01482329227
-0.2116724201
0.2184593056
0.008045356536
-0.1734702287
0.002493107932
0.177936945
-0.006938948628
-0.1759993523
0.01145625358
0.1740302212
-0.009463198805
0.001417865963
-0.2154595495
0.2125246074
0.001526458926
-0.4724923532
-0.007889310156
0.4737981354
0.006583527989
-0.4674274541
-0.005079076786
0.4686474699
0.003859060979
0.002995170035
0.9290230005
-0.002498722217
-0.002804660004
0.001551239273
0.9241343422
0.0006398279054
0.921177229
0.9197129463
-0.001008581683
0.9151373049
-0.001970945611
0.9146606191
-0.002750234388
0.9136613695
-0.001483264314
0.9120964235
-0.002001220603
-0.4548012112
0.4548537074
-0.001535760552
-0.4532507176
0.001639833116
0.4532123012
-0.001601416736
-0.4522421836
0.001506253816
0.4533381919
-0.0008628472502
-0.001741619515
-0.2642802733
0.001341113877
0.2645830177
-0.001658845846
-0.2906884365
0.002135094627
0.2907461718
-0.00221931935
-0.2700654545
0.0007154065243
0.2689745065
0.0003541542298
-0.2138061181
-0.00512295596
0.2117441364
0.007182347882
-0.09578221461
-0.004818894059
0.09584614516
0.004754963509
-0.02657505602
-0.1353431012
0.1379385201
0.02397963715
-0.0243554329
-0.2407897527
0.2466935935
0.01845736911
-0.1838598442
-0.007820739176
0.1858744053
0.005829516124
-0.1721083526
-0.002721766801
0.172511272
0.002345502557
0.002342619216
-0.2076756896
0.2061371524
-0.0007882598082
-0.4754498035
-0.005163870454
0.4768197549
0.003793919078
-0.4696387492
-0.002820634004
0.4704761984
0.001983184866
0.0005236721012
0.930240685
-0.0005341736448
-0.001207182972
4.170166496e-05
0.9246163126
-5.338288673e-05
0.9212723135
0.9196595634
-0.001378284735
0.9165155896
-0.002685814921
0.9159681492
-0.004063641337
0.9150391959
-0.002393346164
0.9133220856
-0.002895957254
-0.4550781027
0.4552927219
-0.002607965357
-0.4533284856
0.00284957006
0.4535543148
-0.003075399305
-0.4539788418
0.003280155198
0.4549480317
-0.002063885475
-0.002189643781
-0.2666719091
0.003309250393
0.2669631702
-0.003622058112
-0.2896021786
0.00364861845
0.2892698595
-0.003351244832
-0.2655893006
0.001837940256
0.2649828355
-0.001257523921
-0.2098591318
-2.728364999e-05
0.2100046819
-0.0001196828809
-0.09943087016
0.001583654872
0.09991379119
-0.002066575903
-0.01195131951
-0.1508405474
0.1515347802
0.01125708674
-0.01341386378
-0.2605265894
0.2631394378
0.01080510381
-0.1929823631
-0.004496043963
0.1946058413
0.002900803558
-0.1740659938
0.0003670718308
0.1745987172
-0.0008646655125
0.0009434971649
-0.2048075181
0.2044260263
-0.0005425512425
-0.478331427
-0.001065482718
0.4794921709
-9.526123889e-05
-0.4709275773
0.0006562146211
0.4711759937
-0.0009046310833
-0.00251276983
0.9298052645
0.001798120653
0.001150069714
-0.001813140322
0.9239166831
-0.0009549906923
0.9204141639
0.9187045727
-0.001708500084
0.9182240897
-0.003523018416
0.9177826676
-0.005261526518
0.916777704
-0.003292177174
0.9151570258
-0.00380428956
-0.4556839835
0.4560695876
-0.003677781258
-0.4538410046
0.004113036462
0.454336451
-0.00460848281
-0.4560200421
0.005067261489
0.457606824
-0.003133162392
-0.003528315943
-0.2677037891
0.004492136858
0.2680645724
-0.004880874817
-0.2885639035
0.005302195877
0.2884256122
-0.00520764064
-0.2638870478
0.004476302583
0.2635759877
-0.004196855218
-0.2109888804
0.003682939274
0.2113173564
-0.004012412533
-0.1020227813
0.003037285504
0.1022209128
-0.001604775411
-0.001630641567
0.004952677768
-0.1501670133
0.1493321416
-0.004117806125
0.00264533075
-0.262993188
0.2611958045
-0.0008427037603
-0.1956464037
-0.001457670112
0.1955879369
0.001549350447
-0.1763563487
-0.000780085187
0.1768430598
0.0003334521723
0.001064335153
-0.205928728
0.2063638489
-0.001477892667
-0.4795048702
0.004537870441
0.4788945066
-0.003927506865
-0.4709744863
0.003697359486
0.4712146046
-0.003937477806
-0.005859823635
0.9276292681
0.004418659345
0.003617160618
-0.00383115308
0.9218880125
-0.001933060378
0.9185160712
0.9167715124
-0.002125995112
0.9203500848
-0.0042317055
0.9198883779
-0.006456120252
0.9190021187
-0.004166874106
0.9175331085
-0.004665328776
-0.4566215536
0.4571690271
-0.004714347574
-0.4548867059
0.005380488093
0.4554861307
-0.005979912858
-0.4595976856
0.006671494283
0.4619512097
-0.004423036943
-0.004614567717
-0.2692953776
0.005703537547
0.2697512966
-0.006194603771
-0.2882134729
0.006972625851
0.2881998954
-0.007011845038
-0.2628470763
0.006726579593
0.262654736
-0.006570993357
-0.2124108949
0.006233181226
0.2128185127
-0.006641256658
-0.1033634583
0.004096498102
0.1034860787
-0.002096240513
-0.002122878012
0.01446778252
-0.1416206447
0.1403753141
-0.01322245198
0.01348462381
-0.2510412668
0.2461259705
-0.008558836706
-0.1920205661
-0.002626136445
0.1942926561
0.000392569424
-0.1782213197
-0.0002098358282
0.1788879729
-0.0004119161796
0.003008780706
-0.2102370984
0.2111634052
-0.003913534207
-0.4777946033
0.009785180033
0.4762718996
-0.008262476299
-0.4712307083
0.006946623415
0.470065504
-0.00578141913
-0.008949479223
0.9239962243
0.006582399971
0.006000123082
-0.005769846686
0.91870838
-0.002827468758
0.9155736933
0.9139440436
-0.002508435851
0.9228585206
-0.005020891489
0.9224008336
-0.007632588151
0.9216138154
-0.004966829361
0.9201358473
-0.005268497672
-0.4578559699
0.4585289733
-0.005639832797
-0.4562754416
0.006413868054
0.4570980613
-0.007236487698
-0.4644991086
0.008121483805
0.4662105152
-0.005469363051
-0.004382562319
-0.2712688476
0.007056683745
0.271861168
-0.007692213432
-0.2882987816
0.008805747093
0.2883700778
-0.008939157769
-0.2621658509
0.008805474857
0.2619888975
-0.00866989217
-0.2142827863
0.008298253207
0.2148844549
-0.008899978327
-0.1042785113
0.005302954615
0.1044008992
-0.002693719018
-0.002731623566
0.01795241793
-0.1318704023
0.1306345544
-0.01671657003
0.01700261285
-0.2318574475
0.2267075203
-0.01183258154
-0.190018378
0.006421761635
0.1834857625
0.0001589621678
-0.1804087207
-0.004059867548
0.180683564
0.003830740498
0.004456831889
-0.2157224794
0.2172843014
-0.006000445898
-0.4744066272
0.01391978746
0.4722473216
-0.01176048193
-0.4687771825
0.009915150414
0.4672134772
-0.008351445167
-0.01162633448
0.9207828041
0.00773966682
0.007100087805
-0.00742771801
0.9145097635
-0.003595705527
0.9117416808
0.910348338
-0.006538359316
0.9293968799
-0.01323537941
0.9290978537
-0.01999757076
0.9283760067
-0.005868881311
0.9272662168
-0.0212590589
-0.4593551018
0.46019754
-0.006711319533
-0.4579448894
0.007619987263
0.4589658118
-0.008640909687
-0.4710789458
0.009626906309
0.4755515874
-0.007411491679
-0.006725627476
-0.2729816842
0.01095227212
0.2745880627
-0.01261306389
-0.288611921
0.0113620039
0.2879764656
-0.0107979656
-0.261387811
0.008512204121
0.2630912154
-0.01026097247
-0.2171110204
0.009977836908
0.2179580127
-0.005374335171
-0.005450493999
-0.05283895472
0.003340275949
0.05288738062
-0.003388701847
-0.05791402326
0.006563396341
0.05742908809
-0.01279199834
0.006713537176
0.01657695616
-0.1232452551
0.2430632905
-0.02941988286
0.0162204526
-0.1231955613
-0.2139303836
0.01292816267
0.2067292434
-0.005694454606
-0.1785018785
0.001008954236
0.178142166
-0.0005910842834
-0.1834399185
0.002653191524
0.1848009704
-0.003963867297
0.008240796807
-0.2241765563
0.225416476
-0.009469273543
-0.4697503121
0.01642830635
0.4672626191
-0.0139406134
-0.4655868645
0.01200769617
0.4638382363
-0.01025906802
-0.0136291911
0.9163559318
0.009260709661
0.00879535371
-0.008722798361
0.9096033707
-0.00427418073
0.9072930631
0.9060741573
-0.002964561949
0.9323614419
-0.006003763454
0.9321370551
-0.009196580566
0.9315688238
-0.006240652755
0.9307019318
-0.006391642816
-0.4630435215
0.4639274868
-0.007124618047
-0.4617888652
0.008107038197
0.4628355279
-0.009153700982
-0.4797239828
0.01028029448
0.4774073957
-0.004391444085
-0.003614426096
-0.2769716335
0.003242620435
0.2763667277
-0.002694096337
-0.2888422998
0.001646007871
0.2887915654
-0.001668351922
-0.260286819
0.003512232819
0.261604847
-0.004873577244
-0.2211918543
0.01123356885
0.2222044991
-0.00611147428
-0.006134739357
-0.05455826147
0.008106474744
0.1095168408
-0.05449591087
-0.00426667222
-0.004302470984
-0.1115307543
0.009064245631
0.1114578762
-0.01781039041
0.008819022932
0.02910707348
-0.2358924242
0.2320773932
-0.02529035954
-0.1958284914
0.006286666811
0.1935859876
-0.003996878508
-0.1795877052
0.001881776805
0.1745240159
0.003246428975
-0.1895353821
-0.002246638367
0.195657999
-0.003832689844
0.01006918739
-0.2318976711
0.2324844992
-0.01065439538
-0.465043789
0.0171703461
0.4630633481
-0.01518990518
-0.4620822994
0.01331487562
0.4601042544
-0.01133683065
-0.01319365796
0.9110988614
0.009157143875
0.009293584441
-0.009498729425
0.9059084422
-0.00463511337
0.902429447
0.9014390439
-0.003114383395
0.9354758253
-0.006304035252
0.935326707
-0.009646425466
0.934911214
-0.00655352607
0.9342746505
-0.006665618168
-0.4648964478
0.4658491206
-0.007506198933
-0.4639054116
0.008534548432
0.4649906805
-0.009619817361
-0.4726148588
0.0107818914
0.4675649695
-0.002714369527
-0.003031108099
-0.2713773638
-0.002636361185
0.2686839168
0.005282874691
-0.2871241124
-0.01166783393
0.2858629917
0.01286175094
-0.2675729579
-0.01206199181
0.2695170131
0.01007081806
-0.2312376908
0.001832957011
0.2370990616
-0.007703427782
-0.1125562513
0.01569828677
0.224092975
-0.01524846466
-0.1119865458
-0.225532058
0.02119587455
0.2261257972
-0.02178961366
-0.2172062898
0.01201628858
0.2123297801
-0.007118412726
-0.1846119874
-0.002161501748
0.1834509583
0.003384093991
-0.1741493341
-0.002321737804
0.1757903033
0.0007518650519
-0.2022276384
0.005831472898
0.2011788766
-0.004747405362
0.01256412424
-0.2326525577
0.2302317554
-0.0101433219
-0.4613283415
0.01848933905
0.4579752244
-0.01513622197
-0.4581369346
0.01346226743
0.4559508619
-0.0112761947
-0.01352390779
0.9060301008
0.009359345038
0.009233323366
-0.00953375441
0.9019182888
-0.004836318774
0.8977320114
0.8966027251
-0.003192687052
0.9386685123
-0.006455528652
0.9385895486
-0.009859036085
0.9383147215
-0.006708174611
0.9378927812
-0.006768992215
-0.466824664
0.4677985671
-0.007682077706
-0.4660766963
0.008715713011
0.4671577521
-0.009796768911
-0.4652534287
0.01094545653
0.4663924098
-0.005998372313
-0.006086052565
-0.2578306583
-0.00195967895
0.2534174755
0.006344718605
-0.2791536463
-0.01851946353
0.2758568708
0.02176199083
-0.272648839
-0.0272995811
0.2723925655
0.02750838921
-0.250094973
-0.02341324678
0.2526144587
0.02087171445
-0.2286147435
-0.01297774031
0.2308136918
0.01077779876
-0.2203672756
-0.01002884953
0.2189406353
0.01147068901
-0.2022423693
-0.01748778745
0.2006587293
0.0191120764
-0.1832156632
-0.02013743945
0.1844690902
0.01894625047
-0.1838635341
-0.01114511938
0.1876008466
0.007464829279
-0.2112144378
0.004885529067
0.2152841886
-0.008935474113
0.01161026344
-0.2281672116
0.2275456367
-0.01098868852
-0.4570823722
0.01835463397
0.454283552
-0.01555581374
-0.4529871182
0.01205734074
0.4513308281
-0.01040105072
-0.01255384187
0.8996193243
0.00971282218
0.009251796105
-0.007035535716
0.8963999826
-0.004854582729
0.8955510584
0.8917481424
-0.003204816152
0.9418733284
-0.006471544945
0.9418562774
-0.009859168244
0.9417023447
-0.006718225221
0.9414645369
-0.006712698687
-0.4687570671
0.469716323
-0.007677481136
-0.4682207984
0.008684018367
0.469263094
-0.009726313962
-0.4675895324
0.01082212199
0.4687472883
-0.006008323664
-0.005971554171
-0.2387378493
0.006545065954
0.2347072376
-0.00251803197
-0.2630496262
-0.01331821175
0.2580204846
0.01831477303
-0.2672775337
-0.03068693091
0.2642646941
0.03366219296
-0.2550272734
-0.03887146118
0.2543486948
0.03952764734
-0.2358153571
-0.03959605455
0.2367802218
0.03863109426
-0.2172957519
-0.03716428016
0.2172005909
0.03728160482
-0.201048192
-0.03472118021
0.2026586738
0.03315210577
-0.1923068977
-0.02526935127
0.1960960413
0.02152829098
-0.2013852203
-0.007651928743
0.2065807371
0.002488156149
-0.2262896479
0.01210833389
0.2260882516
-0.01190678812
0.01046287371
-0.2259179842
0.2254348832
-0.009979772651
-0.4505359146
0.01697413504
0.4487991394
-0.0152373598
-0.4497209062
0.0135764322
0.4481128762
-0.01196840224
-0.01152702818
0.8924528824
0.01019940774
0.008494062374
-0.006520304975
0.8913932594
-0.004433704383
0.8934644577
0.887314438
-0.003160964101
0.9450342925
-0.006373621961
0.9450689352
-0.009683368132
0.9450120909
-0.006601467071
0.944921201
-0.006538565189
-0.4706449546
0.4715647033
-0.007521215748
-0.4702749577
0.008478135764
0.4712560846
-0.009459262622
-0.4698600498
0.01047870764
0.4709233414
-0.005803014552
-0.005738984752
-0.2347276575
0.006363275855
0.2350159657
-0.006651584069
-0.2420293319
0.004870741418
0.2368032689
0.000349482367
-0.2525679712
-0.01526479758
0.2481813098
0.01963259367
-0.2491529548
-0.02996868468
0.2467111037
0.03239574442
-0.2373703203
-0.03667141205
0.2369893837
0.03705202259
-0.2175514808
-0.03396442134
0.2180042403
0.03352747626
-0.2105805837
-0.0270157053
0.2138691869
0.02375286452
-0.2096324476
-0.0114321326
0.214458146
0.006628421112
-0.2225282994
0.008706165991
0.2254462761
-0.01162178239
-0.2248789144
0.01072043268
0.2245351945
-0.01037671269
0.009291880517
-0.2241764326
0.2237981185
-0.008913566411
-0.4472185107
0.01540037367
0.4457818546
-0.01396371749
-0.4466456139
0.01255022064
0.4452446696
-0.0111492763
-0.01415233195
0.8873491625
0.009474645895
0.009781405892
-0.009295289077
0.8865362165
-0.001779174491
0.8859483432
0.8855352635
-0.003071579651
0.9481058722
-0.00618353086
0.9481808864
-0.009366974267
0.9481955343
-0.006381546161
0.9482117787
-0.006276005744
-0.4724475383
0.4733144162
-0.007248424067
-0.4721991823
0.008142298884
0.4731061628
-0.009049279406
-0.4719342762
0.009980327734
0.4728918154
-0.005509810223
-0.005428056734
-0.2358256461
0.0060074491
0.2360777858
-0.006259588807
-0.2355839977
0.00702316947
0.2358391682
-0.007278339997
-0.2354687432
0.008038596355
0.2352954092
-0.00786561712
-0.2386887319
-0.0001496987491
0.236094799
0.002740384593
-0.2350875707
-0.007717231957
0.2343559913
0.008448573526
-0.2208086481
-0.006664913164
0.2221343139
0.005343961547
-0.2240410658
0.001548602889
0.2271950064
-0.004698055006
-0.2262948156
0.01073090046
0.2261896973
-0.01062578222
-0.224770701
0.01016851776
0.2245758562
-0.009973672871
-0.2236437787
0.009285349857
0.2233860379
-0.00902760909
0.008194601246
-0.2228173235
0.2225170534
-0.007894331206
-0.4444752429
0.01380821867
0.443285767
-0.01261874279
-0.4439761012
0.01142303711
0.4427669098
-0.01021384572
-0.013104374
0.8827702483
0.008673563532
0.009009724727
-0.008655361131
0.8820872036
-0.004298691445
0.8815916734
0.8812365721
-0.002947683726
0.9510535559
-0.005924426737
0.9511576294
-0.008948189711
0.9512192973
-0.006088107276
0.9513050104
-0.005953314188
-0.4741409397
0.4749471466
-0.00689431422
-0.4739718414
0.007718531511
0.4747996287
-0.008546318884
-0.4737963441
0.009386463433
0.4746497964
-0.005164416492
-0.005075499163
-0.2367810962
0.005600526337
0.2369990725
-0.005818502665
-0.2365367499
0.006465577125
0.2367483064
-0.0066771336
-0.235960136
0.007291887364
0.2361567216
-0.007488473009
-0.2349730227
0.008045302881
0.2351457367
-0.008218016891
-0.2333663973
0.008671351465
0.2333588708
-0.008663824993
-0.2245958067
0.008829458486
0.2249341267
-0.009167778434
-0.2282997783
0.0093157696
0.2282888524
-0.009304843629
-0.2259111805
0.009169292635
0.2258280106
-0.009086122768
-0.2240671609
0.008734484428
0.2239185044
-0.008585827929
-0.2227070873
0.008058110153
0.2225075252
-0.007858548084
0.007204131102
-0.2217425654
0.2215026726
-0.006964238338
-0.4421998799
0.01229677699
0.441208079
-0.01130497609
-0.441676076
0.01029248058
0.4406349655
-0.009251370141
-0.0119823525
0.8786976446
0.007858079583
0.008196876631
-0.007953124868
0.878057976
-0.003961084289
0.8775996329
0.8772754878
-0.002800183742
0.9538537396
-0.005619030209
0.9539764759
-0.008462914931
0.954063182
-0.005747796824
0.9541852158
-0.005595323445
-0.4757121691
0.476455059
-0.00649068668
-0.4755858668
0.007243917944
0.4763349823
-0.007993033499
-0.4754526214
0.008744686561
0.4762066221
-0.004790441208
-0.004708246054
-0.2376055486
0.005174970671
0.2377933498
-0.005362771876
-0.2373265356
0.005910123328
0.2375020415
-0.006085629228
-0.2366826022
0.006585130266
0.2368389639
-0.006741491923
-0.235600989
0.007176784777
0.2357343456
-0.007310141336
-0.2332791516
0.007620256889
0.233236793
-0.007577898237
-0.2258180122
0.007748599387
0.2260683772
-0.007998964341
-0.2282394309
0.0080599872
0.2282187381
-0.008039294463
-0.2255996297
0.007908275599
0.2255293419
-0.007837987878
-0.2235214707
0.007552686088
0.2234028734
-0.007434088749
-0.2219738017
0.007014278194
0.2218145319
-0.0068550083
0.006328238701
-0.2208796125
0.2206841765
-0.00613280274
-0.4403002408
0.01090739203
0.4394679681
-0.01007511928
-0.4396969944
0.00921401656
0.4387995068
-0.008316528988
-0.01085882173
0.8750927981
0.007068580366
0.007395087854
-0.007236848675
0.8744360029
-0.003612938811
0.873975723
0.873662549
-0.002638235217
0.9564919748
-0.00528606178
0.9566243024
-0.00794015331
0.9567172735
-0.005379545265
0.9568469454
-0.005222337689
-0.4771571037
0.4778383798
-0.006060821326
-0.4770443008
0.006745291448
0.4777187667
-0.007419757269
-0.4769142144
0.008089722836
0.4775780442
-0.004412624376
-0.004340928251
-0.2383155332
0.00475193659
0.238477248
-0.004913651428
-0.237982626
0.005377393662
0.2381287917
-0.005523559346
-0.2372595445
0.005932280341
0.2373853043
-0.006058040157
-0.2360881707
0.006403777639
0.2361924339
-0.006508040905
-0.233074616
0.006713885968
0.2330114796
-0.006650749574
-0.2267020935
0.006838399387
0.2268784723
-0.007014778235
-0.2281474369
0.007022693184
0.2281211866
-0.006996442885
-0.2253323863
0.0068692873
0.2252707428
-0.00680764375
-0.2230802054
0.006567087073
0.2229821797
-0.006469061361
-0.2213827699
0.006124678934
0.2212522779
-0.005994186852
0.005560825406
-0.2201732124
0.2200111873
-0.005398800296
-0.4387029468
0.009655014046
0.437998467
-0.008950534279
-0.437990884
0.008213798971
0.4372148066
-0.00743772157
-0.009778518752
0.871909592
0.006329438599
0.006632286222
-0.006538856095
0.8711963403
-0.003271048681
0.8707079156
0.8703915003
-0.002470440387
0.9589624152
-0.004942882619
0.9590967447
-0.007406607263
0.9591809982
-0.005005296999
0.9592953943
-0.004849759117
-0.4784789042
0.4791013461
-0.00562773893
-0.4783565074
0.006247802945
0.4789624433
-0.006853738777
-0.4782008624
0.007450334902
0.4787853277
-0.004048413435
-0.003986386748
-0.2389272197
0.004347973836
0.2390667828
-0.004487536972
-0.2385302599
0.004882095293
0.2386527582
-0.0050045936
-0.2377257697
0.005342135476
0.2378282707
-0.005444636482
-0.2364703623
0.005723797993
0.2365525626
-0.005805998255
-0.2328033205
0.005937079313
0.2327293126
-0.005863071477
-0.2273207634
0.006060889434
0.227442965
-0.006183090999
-0.2280368194
0.006158051006
0.2280071883
-0.00612841988
-0.2250957533
0.006004944651
0.2250403834
-0.005949574749
-0.2227115711
0.005741021288
0.2226282687
-0.005657718915
-0.2208944039
0.005367963887
0.2207850638
-0.005258623761
0.004895147563
-0.2195847618
0.2194482707
-0.004758656465
-0.4373477584
0.008545137886
0.436745727
-0.007943106472
-0.4365147351
0.007308366687
0.435840588
-0.006634219593
-0.008771699178
0.869099144
0.005653404235
0.005928742988
-0.005881556682
0.8683061978
-0.002947189867
0.8677735487
0.8674443104
-0.002303152218
0.9612655674
-0.004602167328
0.9613957598
-0.006881043141
0.961459874
-0.004638073823
0.9615415394
-0.004489114456
-0.4796839884
0.4802514646
-0.005205549953
-0.4795351322
0.005766620279
0.4800793532
-0.006310841294
-0.4793341171
0.006842459453
0.4798497141
-0.003706579935
-0.003651476452
-0.2394556487
0.003971255371
0.2395765582
-0.004092164818
-0.2389904031
0.004429753266
0.2390938488
-0.004533198973
-0.2381077285
0.004814932814
0.2381925168
-0.004899721114
-0.2367722384
0.005128492729
0.2368373676
-0.005193621951
-0.2324987325
0.005270526488
0.2324200462
-0.005191840233
-0.2277478734
0.005392753086
0.2278317842
-0.005476663874
-0.2279149474
0.00543080509
0.2278833193
-0.005399177062
-0.2248818612
0.005279396689
0.2248313169
-0.005228852436
-0.222395762
0.005044336059
0.2223234439
-0.004972017996
-0.2204823571
0.004723201891
0.2203890169
-0.004629861591
0.004319944936
-0.2190869234
0.2189703379
-0.00420335946
-0.4361870561
0.007569870786
0.4356678486
-0.007050663247
-0.4352314585
0.0064999522
0.434642914
-0.00591140769
-0.007852762918
0.8666146575
0.005045556981
0.005291692511
-0.005276713155
0.865730148
-0.002647773474
0.8651446091
0.8647965369
-0.002141477256
0.9634070447
-0.004273994221
0.9635282767
-0.006378013817
0.9635638936
-0.004287542377
0.9636001091
-0.004149041138
-0.4807809055
0.4812980563
-0.004804693166
-0.4805939299
0.005312643392
0.4810833807
-0.005802094193
-0.480334555
0.006276816756
0.4807907031
-0.003390438454
-0.003342526454
-0.2399140453
0.003624508281
0.2400192798
-0.003729742775
-0.2393800465
0.00402038408
0.2394681215
-0.004108459091
-0.2384253307
0.00434630009
0.238496509
-0.004417478364
-0.2370116556
0.004607200393
0.2370634048
-0.004658949618
-0.2321820292
0.004695976563
0.2321026752
-0.004616622643
-0.2280404862
0.004815353631
0.2280977617
-0.004872629176
-0.2277866162
0.004813437219
0.2277539227
-0.00478074372
-0.2246857876
0.00466473656
0.2246391351
-0.004618084011
-0.2221199264
0.004452387231
0.2220561164
-0.004388577198
-0.2201286452
0.00417144909
0.2200477473
-0.004090551174
0.003822673696
-0.2186600717
0.218559316
-0.00372191804
-0.4351839113
0.006719008303
0.4347322385
-0.006267335477
-0.4341100322
0.005786177145
0.4335934438
-0.005269588733
-0.007028108501
0.8644128815
0.004506709122
0.004723175316
-0.004730466071
0.8634325056
-0.002376359525
0.8627905025