/*--------------------------------*- C++ -*----------------------------------*\
| =========                 |                                                 |
| \\      /  F ield         | OpenFOAM: The Open Source CFD Toolbox           |
|  \\    /   O peration     | Version:  v1912                                 |
|   \\  /    A nd           | Website:  www.openfoam.com                      |
|    \\/     M anipulation  |                                                 |
\*---------------------------------------------------------------------------*/
FoamFile
{
    version     2.0;
    format      ascii;
    class       volScalarField;
    location    "1.75";
    object      k;
}
// * * * * * * * * * * * * * * * * * * * * * * * * * * * * * * * * * * * * * //

dimensions      [0 2 -2 0 0 0 0];


internalField   nonuniform List<scalar> 
12556
(
36.9086909
36.90873515
36.90879829
36.9088748
36.95440457
36.95476856
36.9554251
36.95698631
36.9601579
36.96589819
36.97478391
36.98558479
36.99396413
36.99627181
36.99143875
36.9823518
36.97246675
36.96450803
36.95969198
36.95670302
36.91053826
36.90931484
36.90874634
36.90842579
36.72745259
36.72765271
36.72785032
36.72820022
36.77372774
36.77558684
36.77952951
36.80799448
36.82261627
36.84911128
36.8904031
36.94185446
36.98843342
37.00081672
36.98263838
36.93892612
36.89087338
36.85179757
36.80452184
36.78742233
36.7339281
36.73022722
36.72838218
36.72746824
36.54735435
36.54782227
36.54834972
36.54916331
36.59539479
36.60012883
36.60959992
36.64750409
36.68306501
36.74616848
36.84488872
36.94946036
37.01976171
37.04044697
37.0133552
36.94123983
36.84152495
36.7532196
36.66791345
36.62951175
36.56470299
36.55571999
36.55151692
36.54983064
36.36865749
36.36912856
36.36993127
36.37177654
36.4191591
36.42909742
36.44904516
36.5058663
36.57994505
36.71776769
36.88738647
37.04448161
37.14151943
37.16055193
37.1107429
37.00654737
36.86517217
36.71610562
36.56721749
36.49226104
36.40372171
36.3872505
36.37904162
36.37581678
36.19187568
36.19246571
36.19390064
36.19763129
36.24742755
36.26496116
36.30283933
36.38860151
36.53993111
36.77162061
37.04055413
37.29101229
37.44153548
37.44552265
37.33405722
37.16073726
36.95868222
36.74599645
36.52331417
36.3837541
36.25722015
36.22503784
36.21018177
36.20438417
36.01672352
36.01751657
36.01988227
36.02616341
36.08085839
36.11057477
36.17663068
36.30941227
36.56056426
36.91150281
37.35920509
37.84274125
38.15303982
38.08770322
37.77771625
37.45474737
37.14302032
36.84054181
36.5355767
36.31092931
36.12522837
36.0686
36.0438082
36.03403132
35.84397494
35.84530245
35.84940981
35.8597723
35.92005711
35.9662212
36.07091657
36.2724297
36.62781411
37.15226006
37.91437887
39.09692071
39.87358699
39.69377782
38.604267
37.94193202
37.43728783
37.00359999
36.58398394
36.27910166
36.00778908
35.91829059
35.87910972
35.86371024
35.67421955
35.67628963
35.68260571
35.69760482
35.76700357
35.83383638
35.98718967
36.2621583
36.72657323
37.45674634
38.67383999
41.25500291
42.35530967
39.97102393
38.64407513
37.84606156
37.23329064
36.67014471
36.28007238
35.90729997
35.77505
35.71670535
35.69400596
35.50909005
35.5124332
35.52206706
35.54417255
35.62402812
35.71466902
35.922369
36.2664679
36.84237562
37.76718265
39.3554959
43.12167398
46.74568003
41.67871957
39.50205596
38.33631457
37.51287247
36.78342139
36.29791598
35.82291885
35.64110111
35.55939099
35.52786127
35.34944273
35.35417946
35.36742208
35.39794171
35.48950671
35.607962
35.87098726
36.27801491
36.95773328
38.03846766
39.84171101
43.94695643
49.89097963
43.24881418
40.37994319
38.86326058
37.81669589
36.91213287
36.32613018
35.75485118
35.51996783
35.41181097
35.37004104
35.19692847
35.2036501
35.22167195
35.26302992
35.36335139
35.51228878
35.82857879
36.29476463
37.07118001
38.27955215
40.23858401
44.00161194
51.47025872
44.43929246
41.17891359
39.36967794
38.11553729
37.04103576
36.36037779
35.70159997
35.41420035
35.27860962
35.2256276
35.05132072
35.05980831
35.08222104
35.13391147
35.24549524
35.42513939
35.79103101
36.31568373
37.18114659
38.50635293
40.61978745
43.59845685
52.1521354
45.26189998
41.83413842
39.81102909
38.37975964
37.15780451
36.39599455
35.66257989
35.32449389
35.16227796
35.0978333
34.91338049
34.92420053
34.95288153
35.01619602
35.13466517
35.34317713
35.75416739
36.33605953
37.28763154
38.7292915
41.03679754
43.04250094
47.72385467
51.96216216
45.80342057
42.32402148
40.17133235
38.5920665
37.25354865
36.42717013
35.62976861
35.24954341
35.06222362
34.98705256
34.78150139
34.79450999
34.8288793
34.90154519
35.03586331
35.28089246
35.73896711
36.37201005
37.41632162
38.9977823
41.51653608
41.70207645
56.15714071
51.9374459
46.11123193
42.69260146
40.42676199
38.73801192
37.32553647
36.44933322
35.59654955
35.18440231
34.97506514
34.89035048
34.65511331
34.67018458
34.70975449
34.79107896
34.93623155
35.206788
35.69535858
36.36351636
37.45530499
39.13429519
41.81163723
37.83982585
55.72738226
51.48538281
46.21823802
42.89144608
40.58028075
38.82047736
37.36644958
36.4582799
35.56067282
35.12349985
34.89579353
34.80324121
34.53159023
34.54859164
34.59274938
34.68223377
34.83807432
35.12928073
35.64341737
36.32677237
37.4407024
39.14429211
41.76580864
33.91664001
53.7022262
50.83045193
46.22507528
42.99458767
40.62692844
38.84130778
37.37520574
36.44429836
35.51371414
35.05920223
34.81871164
34.7197932
34.4106305
34.42933714
34.4771616
34.57349604
34.73873168
35.04600341
35.58068942
36.27557997
37.37513861
39.04735701
41.37239149
33.97312289
51.25711514
50.23040082
46.06171132
42.92219105
40.57091646
38.81629467
37.34853304
36.4022196
35.45550279
34.99065086
34.7395929
34.63559412
34.28905848
34.30924413
34.36007001
34.46248758
34.63636931
34.95550617
35.50474356
36.21624843
37.29555643
38.88191585
40.89449632
35.33991796
48.15137947
49.56380302
45.73949435
42.67302586
40.40535112
38.72084697
37.27207394
36.32945013
35.37901032
34.90947675
34.65395671
34.54621804
34.16802228
34.18940987
34.2423512
34.34921318
34.52974482
34.85724578
35.41577993
36.13738312
37.2246882
38.75344619
40.45579104
35.35797426
45.20434062
48.6580641
45.22118379
42.32823482
40.19111656
38.57650443
37.16300462
36.23287283
35.28774399
34.81811681
34.56032699
34.45057182
34.04396109
34.06632096
34.12096218
34.23178763
34.41838436
34.75148622
35.31514519
36.04136159
37.12992837
38.62797118
40.03123091
32.94902505
43.54335024
47.6328281
44.66871747
41.98185294
39.95545476
38.40380044
37.03047254
36.11714174
35.18233423
34.71538706
34.45699969
34.3460199
33.92017591
33.9432461
33.99886655
34.11194963
34.30227083
34.63894183
35.20457798
35.93161226
37.01588154
38.46757401
39.57147667
30.78747374
42.08094287
46.66949816
44.14784523
41.64520064
39.71243772
38.21588062
36.88149262
35.98667606
35.06609791
34.60423557
34.34648725
34.23488184
33.79191216
33.81552831
33.87206896
33.98759702
34.18190087
34.52061096
35.08596003
35.81117662
36.887355
38.28087252
39.08022897
29.1892429
40.66287831
45.7575041
43.64986836
41.32137451
39.46937441
38.02066875
36.7216954
35.84536096
34.93969981
34.48346833
34.22679785
34.11490925
33.66531438
33.68927075
33.74615029
33.86234829
34.05787546
34.39762373
34.96107122
35.68266852
36.74783385
38.07374212
38.56921737
27.96616128
39.29768413
44.88385425
43.16886592
41.00861972
39.22989847
37.82292664
36.55538713
35.69646538
34.80749513
34.35806555
34.10291242
33.99096447
33.53293345
33.5571579
33.61464419
33.7326189
33.93106358
34.27109795
34.83152528
35.54827003
36.59990397
37.85002258
38.05393024
27.00468131
37.98788682
44.04212908
42.70062337
40.70377307
38.99530237
37.62560228
36.38573925
35.54269565
34.6684169
34.22484182
33.97096026
33.85899132
33.40498458
33.42932606
33.48684399
33.60445289
33.80208158
34.14205136
34.69876472
35.40983592
36.44553248
37.61169392
37.54400837
26.23755456
36.73024472
43.227757
42.24188825
40.40456057
38.76568864
37.43049605
36.21501744
35.38608805
34.52800596
34.09125553
33.83884694
33.72690194
33.26909584
33.29356212
33.3516402
33.47106668
33.67177233
34.01131798
34.56396352
35.26885652
36.28602068
37.36146902
37.04503489
25.62292717
35.51217839
42.4418492
41.79022489
40.10974995
38.5408037
37.23861383
36.04476339
35.22823718
34.38205765
33.95008686
33.6985738
33.58654442
33.14196069
33.16643606
33.2244045
33.3426628
33.54047186
33.87957855
34.42805601
35.12641612
36.12216593
37.10253224
36.56050544
25.12876577
34.33507341
41.6773444
41.34399379
39.8187872
38.32047906
37.05050963
35.87602226
35.0702047
34.23903912
33.81343303
33.56308737
33.4509705
33.00281906
33.02736503
33.08596079
33.20655644
33.40896847
33.74736923
34.2917292
34.98323959
35.95457502
36.83766707
36.09273569
24.7329599
33.20083213
40.92738011
40.90175698
39.53133105
38.10459668
36.86642331
35.70943727
34.91289866
34.08936421
33.66690492
33.41695522
33.30458277
32.87905891
32.90358171
32.96201972
33.08065825
33.2772116
33.61512163
34.15550268
34.83983454
35.78395256
36.57036252
35.64391376
24.43629433
32.09930233
40.18588722
40.46237549
39.24737955
37.89314208
36.68643859
35.54540913
34.75673299
33.94800398
33.53154643
33.28244588
33.16983265
32.73595462
32.76054472
32.81969225
32.94147944
33.14610619
33.48320205
34.01975692
34.69651621
35.61101815
36.30348811
35.21572217
24.23667389
31.01831714
39.45161559
40.02677276
38.96772243
37.68623884
36.51052966
35.38415944
34.60231756
33.79528722
33.38009204
33.13094333
33.01789686
32.61874408
32.6433232
32.70236011
32.82144236
33.01512408
33.35189967
33.88477653
34.55343479
35.43627164
36.03875162
34.80858526
24.09783468
29.97262675
38.73029504
39.59834433
38.69382972
37.48416032
36.33862627
35.22580665
34.44961418
33.65984443
33.25052148
33.00191949
32.88850628
32.4695354
32.49420731
32.5539723
32.6769353
32.88559047
33.2215042
33.75078077
34.4106079
35.25987351
35.77615379
34.41931701
23.94707148
29.0064364
38.03712676
39.18391036
38.42775302
37.28711221
36.17059901
35.07039583
34.29925727
33.50193737
33.09209518
32.84315121
32.72914836
32.36325107
32.38794225
32.44777119
32.5678414
32.75630415
33.0922907
33.617972
34.26795512
35.08176504
35.51457765
34.04015219
23.72574802
28.15594534
37.38473746
38.78690375
38.17026093
37.09504967
36.0062093
34.91797336
34.1508
33.37857616
32.97421081
32.72545948
32.61102785
32.20376685
32.22859322
32.28907028
32.41254571
32.62975341
32.96481275
33.48670738
34.12541947
34.90192218
35.25290353
33.6622258
23.41644523
27.42909571
36.77771538
38.40899557
37.92147068
36.90780743
35.84532543
34.76886736
34.00557669
33.20870851
32.80346003
32.5542772
32.43910716
32.11450558
32.13940497
32.20019489
32.32303173
32.50427782
32.84014334
33.35812601
33.98295642
34.72041142
34.99007118
33.27920422
23.03519122
26.81620381
36.21629787
38.05014695
37.68105566
36.7251361
35.68773457
34.6242809
33.8635543
33.10875336
32.70586259
32.45645525
32.34085935
31.91121404
31.9363588
31.99805271
32.12393294
32.38649335
32.721126
33.2362705
33.8409274
34.53800715
34.72704476
32.89189311
22.60759484
26.30265699
35.70196357
37.7123359
37.44957338
36.5472265
35.53341803
34.48812267
33.73027644
32.89046665
32.48696665
32.23678392
32.12016482
42.9739681
47.23062485
42.71148125
43.8861381
50.72762553
47.67264291
44.03264034
52.40666494
51.02436994
43.66201092
53.08986359
52.52051313
43.08126818
43.33632212
46.75452358
53.39108664
53.12969679
42.15585301
53.33803409
43.74251944
55.82039226
53.87987741
53.41497534
40.9249663
39.81452308
42.26678789
39.62362337
50.44593221
44.16896664
46.24819381
42.0667263
40.48686627
39.73288398
43.00344836
42.26550028
55.17108675
56.22274328
49.59838682
44.02372977
42.59666855
40.14435945
43.43628495
43.08666661
44.06049443
45.66345572
46.57128347
54.41948668
53.88275225
51.34176127
45.45082271
44.44128554
40.53594062
43.39899808
43.44845054
43.87575726
42.31100345
44.14314048
55.65185994
54.9679947
40.94062775
43.16833689
43.38161248
43.37489257
37.86796288
40.14025594
39.66072222
56.34403512
56.12200713
41.42736064
42.66314665
43.12551305
42.72884659
32.37489768
34.79538022
40.71065524
54.62207118
53.6747322
46.97699372
48.63619612
43.27868822
46.6054066
56.09431069
50.7615139
45.24579115
49.87319551
54.76701543
46.68436574
47.37405454
43.59719731
47.96923132
46.75602231
48.71410647
48.11028623
53.94576561
55.00820701
49.38393958
55.8027534
55.1809195
54.98469793
55.8656583
49.14630949
44.31958903
45.51033614
44.07003805
45.20025661
43.50818643
46.67751173
45.3049641
54.8409012
54.49826955
51.94208995
55.67824132
55.8900353
55.15104079
55.62850095
51.75550803
40.26625733
42.19629671
43.82702087
41.31079432
38.95439856
43.39421392
41.44091518
56.08612623
55.72152972
34.94075635
37.70351054
43.34162053
40.26263473
35.90521899
33.01801604
38.81873056
36.10121869
40.89128077
56.62145982
56.37284898
39.62416548
39.98381126
32.31477319
42.68242993
50.24385779
31.99297209
73.95767499
32.93652291
31.99874457
49.57262817
39.20651726
42.12889198
40.62840969
42.15412821
45.68465084
42.89426903
60.28238901
46.53606001
43.498518
47.45433324
47.52987937
45.61294764
52.11249885
46.3661374
45.73262693
51.5858239
50.0922438
48.71064232
52.75666955
56.91544488
56.70545551
47.38046913
45.97297895
42.39921211
53.76452758
45.13540346
51.83874113
43.79597966
48.97593268
44.64573552
48.31565658
44.68523026
52.88551165
56.03920649
56.16197614
55.90663274
56.02490796
52.81598768
40.0292709
46.00951113
46.07892525
41.37052371
40.95878225
42.86443195
43.69905894
41.44027869
41.42443115
64.37199926
47.62166676
59.88066256
45.75386562
56.72708553
46.82256233
56.28123946
56.36550459
54.08779952
54.05347623
41.12017524
43.77897714
55.40225249
41.46495278
43.28957807
45.12240039
41.53251421
55.32004306
39.10242876
42.93254206
42.59970458
52.68014862
50.84555603
47.19317883
33.86946176
40.8445162
40.36558999
41.45117037
41.01539285
34.02245519
57.65173009
54.18470489
47.81498019
54.46188829
55.40027595
50.47560066
54.15587388
48.04137781
44.80349121
49.67829259
44.57364739
54.70557068
50.38226665
45.32638633
52.47445677
57.48022408
54.05176448
53.66900302
47.39716186
43.75167563
47.31942495
48.57920708
46.93447227
49.96881011
44.12175447
46.53411729
48.48043891
54.55733257
54.65358172
55.49033282
53.18140232
52.57419996
53.79459565
53.3519213
55.44250504
55.95893557
51.23802306
50.22718247
52.34318215
51.53849729
56.00728625
44.43115548
44.32177271
46.08195238
45.99515123
54.97291456
45.65176418
54.91605453
40.37912993
40.21825004
42.4799728
42.34731844
43.79471444
47.59547266
55.90105982
44.00494324
41.1655749
36.63758477
41.99794225
41.59373477
42.48454525
42.12433006
36.7773301
39.7048992
35.06283146
34.94005987
37.86801332
37.73221987
52.76905947
41.26760484
54.42082946
53.18773127
40.18202693
39.73215869
31.98891374
33.23021547
41.64923995
41.3802931
32.53411814
65.56025437
41.62509706
57.8410479
32.45443705
47.04792835
43.8648549
40.66138429
58.79055831
39.91898765
40.22644406
41.7575225
42.22492305
42.57381122
41.21427896
33.53505431
41.28317011
56.21881508
53.32387157
53.81274794
52.58638521
40.47918325
42.91917207
55.52373952
54.74597588
42.06104358
57.03029093
56.96511696
53.24133762
42.95631195
42.46092725
44.75056982
45.76255434
42.73076839
43.01786354
55.72190972
58.34347835
57.39833999
56.4482849
54.21217257
45.68237057
46.12565369
48.40276759
47.66236506
53.80094593
43.13149095
44.40268175
44.15805803
44.70795111
44.48128301
43.2645272
43.34434742
43.03758087
39.23461662
32.7272111
37.56991959
37.16045655
66.35885828
49.7087081
54.07436979
55.39812974
59.31078743
58.58141929
52.25230801
48.18975209
46.79507775
49.85261704
48.6295562
52.60503499
54.17418861
49.58259866
48.73257121
54.74866674
44.85351669
44.9770907
44.77921414
40.10185441
40.5865284
43.86355208
46.37962746
46.72441533
54.67663142
55.79404361
54.63971735
54.53171145
55.20327315
54.2161125
53.91354214
54.48724134
54.29313434
55.21928991
41.24440387
43.72288746
43.4418399
44.07374266
43.81304128
41.37388704
40.92098741
35.84672126
36.15231542
33.57618259
33.78323524
39.41655808
43.01342766
39.32919077
39.96543305
36.27436592
36.61710623
41.82977572
55.9467663
48.13344723
51.60132181
56.42950166
39.60358787
35.50450789
33.7938054
38.41458195
33.28045965
33.50699441
32.78910648
37.00922578
47.85084465
39.03750788
38.47993261
37.7098
37.02756231
36.63728871
32.19319024
40.72777856
42.13734376
52.05448202
31.99718418
83.90312496
43.2999201
41.80991594
46.69354008
32.76579681
32.07055466
54.23220515
53.19174835
53.21388935
45.84652636
45.87846056
40.57059556
39.95590974
51.82754535
51.91249597
51.81591142
47.65064505
56.41743709
47.74680351
56.83806025
48.47488586
42.62535163
40.57729947
46.40646368
45.13692066
48.61190797
45.86186904
40.73068088
41.11217238
47.31281926
56.70854546
40.75081111
45.11250879
62.62509166
39.69318585
40.21445044
39.90061457
39.69800555
55.6179799
64.97417869
54.07652434
50.67202449
57.7410552
54.82419951
50.01798818
47.17280331
51.93764254
55.63239803
55.05007654
55.93215506
56.45792448
57.08645579
56.02691348
46.47936595
45.83505753
54.15324091
46.65203765
47.08110098
45.26813266
46.3953301
47.24006773
53.84701548
47.53983575
46.71565554
41.27101494
41.5291868
41.71595126
51.36188491
50.57284689
42.85889449
48.92496348
47.60528053
50.25822272
49.34168081
42.38726916
41.30268794
42.58537995
41.10012518
38.14605317
37.69270691
33.03344752
34.34630423
38.65120913
38.27437263
56.39236254
55.87986683
55.4675477
50.5929709
51.13284316
49.61860907
50.37462685
55.75291378
52.71943106
51.30903716
51.1247492
51.24670108
51.32884492
52.97933331
53.16035619
48.46120013
49.36381709
55.94602512
56.36063505
58.91541335
58.55425593
55.07271522
60.05639206
60.75259818
61.01807591
59.64078451
58.60402568
60.94739169
59.52772915
52.43283613
57.72226078
58.95422068
42.44171442
47.49187573
46.67181242
48.26543432
47.7139676
42.98154917
45.53048849
44.96287066
46.38602158
45.72571099
48.15213264
50.38172687
49.87286484
50.99885881
50.54502724
48.58749293
45.09006198
48.9933087
48.4510539
49.69916112
49.17164842
45.44156035
50.71323361
49.77749921
54.26570512
54.75968278
52.09545786
51.06264181
39.66554436
39.19184063
40.48841591
39.83190415
38.43751104
37.97563724
39.04236564
38.57518097
44.05212214
43.51313365
44.77933234
44.23672553
42.43739774
40.91102117
43.31621268
42.77493092
45.33769854
44.56346139
47.21636944
45.82856678
46.20322854
44.20745227
44.96269175
44.32441142
44.01679494
35.42184519
35.72701138
40.78995865
33.98591692
33.77040742
34.28230238
34.07274462
33.66631696
39.61372617
33.86534694
35.16388012
37.38419953
39.06075384
42.88449732
37.04997284
35.21384759
37.88104206
37.18546414
34.65083255
34.37998353
35.07657996
34.7576247
41.95874062
36.73933721
37.1491265
48.60840661
42.44419091
47.88221016
44.65879864
47.66386351
41.98175488
58.47472091
39.52693282
56.4934845
50.45588212
35.3906348
34.33412751
33.00933388
33.21261977
38.27957513
37.24155799
32.81830626
32.95419053
52.52151757
32.13860894
36.45331935
35.77892743
66.24937816
73.25426655
31.93156307
77.30302067
57.46298988
41.19675703
32.69928902
65.36467481
43.86091983
75.28390522
45.47923613
32.18069387
41.95496636
39.99912078
38.81445189
50.79250841
50.44136279
52.57726285
46.92152329
46.54860445
50.71870376
41.64176272
40.21550254
39.59803803
56.16986677
56.07585135
53.26645797
44.71623288
44.2123029
46.73965194
51.49922383
44.66715209
44.77355054
40.92797253
41.25932596
43.47279321
49.14087221
52.40448453
55.01202063
46.08348758
45.35676962
45.2426224
45.45535162
45.38699352
46.21214731
44.98700568
43.21812198
40.4377293
52.18805136
53.56382184
56.24902698
39.13065668
38.7702166
34.46226236
55.75652293
57.44905612
52.05235411
45.19636602
45.03667523
45.02347978
44.872155
42.05202878
42.65725019
42.94989844
43.84734506
45.61823824
35.73423278
39.62495379
39.24907599
45.16647276
43.34401093
39.89519247
32.35342111
32.38180729
33.14137604
42.15522327
53.62540918
48.72274085
39.8485803
47.58889154
45.52421003
31.98502918
32.87754426
32.31930247
32.33880772
32.0097572
60.73691045
45.5506064
41.12294607
42.16835374
51.01360327
40.37720894
41.21333052
50.30006103
53.07378555
46.31246379
44.82228477
46.63204748
46.93007137
40.4055308
40.25947044
59.80205004
61.92670162
63.46036701
53.99162131
60.67809219
42.47775245
42.72514108
45.20834446
61.81388472
57.54925417
55.24069995
64.7833258
62.30959126
41.08659286
42.4270215
41.79201226
46.69491972
46.06953519
42.48885342
52.33296439
51.63620121
41.96063441
45.23354802
42.23067003
42.41024044
44.03961796
40.00499577
40.37069569
57.37472708
58.09815566
54.79088793
54.81729538
53.79567359
53.63961157
51.00718092
51.93703636
51.58173024
53.47183673
53.26642051
53.75300153
47.08757713
48.16886402
52.66325415
53.87899149
58.83555233
55.46245862
59.0954238
59.43360275
56.91294974
40.91866642
42.94851241
42.44816684
46.39205604
46.16963568
43.52619207
40.46439298
40.23850192
42.03689004
41.70927797
47.33478383
49.37187511
49.06290904
51.25113939
50.93396732
49.4910697
44.40203235
46.96968673
46.70752147
48.75164254
48.44842323
46.16277649
41.39074493
41.88251461
44.76570789
43.97580606
40.74238773
41.23008487
44.73710224
45.21411062
46.34448894
38.90297776
38.76354026
40.03820774
39.85830622
36.77796214
38.55072404
38.43431635
45.71248513
44.06947105
44.571373
45.84011179
45.77228942
42.71814042
43.03173429
45.58924417
45.87031358
46.25419724
54.73332852
46.90059086
48.21995795
40.09467812
39.74550404
36.05072485
37.16543863
40.51400412
40.19927141
33.28337599
33.34871169
35.17331727
34.80216125
33.12305829
33.2129788
52.91946885
32.09976408
32.84174189
32.25790634
107.8105822
32.43195671
41.26834649
53.0145777
48.04523862
32.11628081
32.1457597
32.57424397
64.40414659
69.53724414
67.40740945
51.68934998
32.42701517
32.08040979
32.10137103
41.13677562
41.14726623
40.10944373
50.69602434
50.17707408
43.21296837
42.19340659
40.06621752
53.8242455
53.0064329
57.62447117
40.98651957
49.22138599
45.75087654
49.46481169
48.70537822
41.75783002
43.84816471
44.4772313
48.15760998
53.81335572
54.14058499
53.3089629
53.56795334
58.07225775
57.27920627
57.50178412
56.80773332
57.03974715
57.7087608
48.13104081
48.51162888
48.72956101
48.17394168
48.30335546
48.0028566
59.02826001
57.97587157
57.95100894
57.71528839
57.88699815
58.80919291
49.17839246
49.45751602
49.70324293
48.9678734
49.20439584
48.94016521
52.65415989
52.83263402
52.01451399
52.19789553
35.93009647
38.0758807
37.95311732
33.65808484
34.96608689
34.87247769
35.26075263
35.0777909
33.7224484
54.05913986
55.19890335
49.45990643
54.79981995
32.73323084
32.69729469
32.8218301
32.78220002
32.54023297
33.36905945
32.42329936
32.54180693
33.36036418
34.63416035
34.54781047
34.79363684
34.71277452
33.43043269
32.93681338
32.87345688
33.50972125
33.08671579
32.93486795
54.60134252
52.97099283
44.09662057
55.08580121
34.10522408
33.36723694
39.63594422
32.22374529
33.62801976
33.48732921
31.96219581
81.86766717
83.25773626
61.98737442
72.91384584
62.68818759
32.25763032
32.29203128
32.82431253
32.03599669
57.89126681
63.21558292
58.24402562
59.66158262
56.19337374
49.07516841
61.92335704
56.85249757
46.08131102
46.29891379
51.89408142
43.58994057
46.540354
52.73904104
50.16397501
53.4982047
49.15343861
52.02532774
58.22414688
59.75612156
52.88619461
57.11121712
60.66896151
48.36935746
49.42758365
47.8981216
51.6079138
59.38010962
59.49491416
57.5803784
41.69376042
52.70437898
47.47569889
58.23711444
59.13703843
43.29666379
45.56542287
48.61740425
61.5275012
50.74277169
42.13506834
43.38479428
61.21091465
57.99695794
61.52036752
56.61553278
59.12070987
61.51011626
62.73188721
62.06870688
55.1585265
55.27944674
55.50726373
54.72007138
54.84950257
54.89917459
56.71675882
56.31659357
56.55537993
55.8040029
56.04072992
56.36892518
46.25830392
48.97148997
48.9637511
46.77473437
47.01901153
45.65466683
46.71412392
46.48403359
46.24169896
47.6122498
47.9608047
47.10921774
48.34705712
48.15334282
48.89648257
48.68277125
46.89666683
46.02805414
43.91271
41.10824232
47.21806747
47.04909248
46.86993709
41.95601087
46.21367253
45.8319052
42.28673327
42.19841564
43.79657466
56.93200416
55.28548518
52.6633372
52.30852523
51.5174193
53.46530172
53.09071446
52.84090289
60.02819555
59.680668
55.09834391
60.17763889
62.29002323
56.75901565
59.86477229
60.01403457
58.8096465
57.58784148
57.46317833
57.77608974
57.75391639
58.6987279
60.40402787
60.53143931
59.4008262
62.14641168
62.10730332
61.93748734
62.09361524
59.20950868
61.05618809
61.66883101
63.32521837
61.05010403
45.09053167
44.94006894
42.37794199
43.13235959
45.8107756
45.65295237
40.92926834
40.68852011
41.43293402
41.17335098
49.99270214
49.68004564
47.72845295
49.03508825
50.62060277
50.30670907
47.55502276
47.27577509
44.77776267
45.77842283
48.1428572
47.85220492
50.46592733
50.48463514
50.74834532
49.96071757
50.22176482
50.08342747
51.70826727
51.45307106
51.63232287
51.01164494
51.25188741
51.44048176
39.501978
36.87768591
37.02099328
36.61772473
36.75256493
39.34815761
40.21713935
37.49180612
37.70549034
37.16097206
37.32042757
40.01292441
38.27148974
35.8594299
35.99660826
35.63779614
35.77277604
38.15085746
38.88486046
36.35809578
36.49574906
36.0992944
36.24107636
38.73829406
39.27103396
39.11092114
43.87412872
41.92555116
42.1055304
41.55228038
41.71633836
43.68587498
39.651391
39.47572007
37.823784
37.68067063
42.18064584
40.27553456
40.34080102
38.02005502
38.47153428
41.51933436
43.15403885
41.19141303
41.32732574
40.82433378
40.92306795
42.92962458
38.20850903
38.11380333
45.25808586
45.42078014
45.76797715
43.46467017
44.14201437
44.42731329
46.1155703
46.14114726
46.32319746
46.35017796
44.70545288
44.10616078
44.74493324
44.22555849
45.80791406
45.62824297
43.97938108
35.50200306
37.53320145
37.40427911
37.81248967
37.69656188
35.65434505
33.92879614
33.83180331
34.21488545
34.12576528
33.64348597
33.65047138
34.03722403
36.25525338
35.61193427
37.14438365
36.88824599
34.87520823
35.67345776
34.85586594
35.11511169
35.39354039
37.6681958
35.42056732
35.56406849
35.1959918
35.35344527
37.5888729
34.5625052
34.45925134
34.96681694
34.85393691
47.24521332
41.18700903
41.77804581
40.60653994
40.83025944
47.57459434
46.80612578
46.58476576
42.5119698
44.3044021
48.00759037
55.45008416
43.72703653
45.67828194
40.91377986
42.19865355
56.231885
32.58549811
32.53919396
32.66046709
32.62827701
32.77425008
33.02055174
34.61225788
32.3766061
32.32526459
32.48862453
32.42621236
33.07584825
34.29405486
34.20411047
34.46569692
34.37609189
33.13781079
32.8595484
33.92793715
33.80091085
34.12066476
34.02967952
32.90588984
51.9857032
33.41256202
33.13260314
32.08086561
64.29227854
90.52022058
96.0957517
89.54941565
90.80749281
69.37078449
32.14449672
67.91557809
49.94765779
53.32333624
32.63988034
32.16770526
32.21716364
65.54264031
72.52894265
70.80363709
57.24608671
63.7137816
77.40865671
72.80414705
48.29964304
68.73255921
60.44871892
32.39166137
31.99927067
32.22255787
36.68619951
36.70641929
36.81781909
36.71516672
36.75209655
36.84075785
36.76687991
36.82497606
36.87819402
36.84615481
36.91990101
36.92814816
36.94046906
36.99485201
36.97688001
37.00614702
37.02408438
36.99991273
37.02520726
37.01114306
36.99257836
37.00116049
36.95404864
36.9515497
36.93566872
36.86747197
36.9028941
36.84686252
36.78840697
36.8608337
36.53918989
36.58174612
36.67218941
36.6010738
36.68061647
36.72775698
36.71593937
36.82959758
36.81723049
36.86812269
36.97798189
36.92576252
37.01011263
37.08421062
37.00840838
37.09905398
37.12155177
37.03996838
37.11887532
37.09309753
37.02443207
37.07730135
37.01061226
36.96234161
36.98320039
36.88810862
36.86761377
36.85369759
36.75021198
36.77142812
36.41566588
36.50226649
36.55664156
36.54312455
36.69450382
36.67745415
36.7502587
36.92858922
36.8444278
36.98917697
37.16059139
37.00900861
37.20899815
37.32143952
37.12466459
37.34533159
37.36348147
37.1630535
37.3477721
37.29012616
37.12904889
37.26137504
37.15405088
37.03657843
37.11206477
36.97537642
36.90322991
36.92744918
36.78191341
36.75236661
36.32500574
36.48439102
36.49137631
36.55040922
36.77949003
36.70922847
36.86696117
37.15867063
36.97203232
37.26067381
37.57201112
37.23357186
37.66174022
37.88610649
37.41045346
37.91563441
37.92650721
37.44796126
37.85282831
37.70014359
37.36939358
37.63701272
37.435303
37.20860485
37.36528666
37.15659689
37.01097862
37.08678131
36.88134986
36.79968572
36.27822611
36.51358074
36.48837982
36.60775037
36.94921649
36.81410891
37.08371996
37.56342013
37.24012467
37.75029628
38.42332673
37.71943607
38.66841585
39.52767821
38.09794661
39.5495953
39.34030199
38.09843161
39.01250688
38.51546264
37.85780354
38.35088208
37.92487078
37.53456884
37.79890725
37.45917512
37.21961985
37.3527429
37.05315006
36.91638726
36.26364677
36.57448903
36.52627056
36.70224586
37.18161135
37.00143273
37.38007978
38.14294546
37.69496275
38.47789666
40.35098445
38.72491276
39.7109858
40.3353865
39.37888085
40.94063602
41.01536858
39.88501207
40.45703687
39.79882423
39.35520407
39.57875549
38.68019646
38.08626837
38.45345327
37.89053212
37.5552453
37.72986173
37.30194438
37.10731612
36.26440011
36.65074175
36.59032257
36.81324235
37.43147088
37.24146649
37.69283496
38.73201391
38.29880791
38.86464842
39.36995467
39.13259414
41.57503568
42.21806417
41.81228382
44.00922759
42.74703699
41.52349186
41.24667324
39.65809115
38.90272475
39.29484963
38.44231658
38.02184234
38.21142018
37.61498312
37.37409713
36.2746442
36.73464168
36.67152943
36.92895877
37.66473875
37.4923305
37.97404069
39.18841638
38.8588133
39.49160856
40.13304378
39.973385
43.25768193
44.29569393
44.14536928
48.13700528
45.64043777
44.58609788
42.88466396
40.68594651
39.90478525
40.19090946
39.04064287
38.58339638
38.73554876
37.96250644
37.69871216
36.29012552
36.82016068
36.75602662
37.04275289
37.87564402
37.71935197
38.22103003
39.55215847
39.28488756
39.94601861
40.65259392
40.53385259
43.99642586
45.01340301
45.03848495
50.63654148
47.71735746
47.05758612
44.17036049
41.6017731
40.91267404
41.00725076
39.62348853
39.18144418
39.25093158
38.31205275
38.05047173
36.30940594
36.90484181
36.84188142
37.15328628
38.07282341
37.92623276
38.44989145
39.88976759
39.63591204
40.33855695
41.10555796
40.98938868
43.96427866
44.40754204
44.56974427
51.81402892
48.88936793
48.56468896