/*--------------------------------*- C++ -*----------------------------------*\
| =========                 |                                                 |
| \\      /  F ield         | OpenFOAM: The Open Source CFD Toolbox           |
|  \\    /   O peration     | Version:  v1912                                 |
|   \\  /    A nd           | Website:  www.openfoam.com                      |
|    \\/     M anipulation  |                                                 |
\*---------------------------------------------------------------------------*/
FoamFile
{
    version     2.0;
    format      ascii;
    class       volScalarField;
    location    "1.75";
    object      omega;
}
// * * * * * * * * * * * * * * * * * * * * * * * * * * * * * * * * * * * * * //

dimensions      [0 0 -1 0 0 0 0];


internalField   nonuniform List<scalar> 
12556
(
31.93076138
31.93158888
31.93248416
31.93330666
31.96667381
31.96718794
31.96758506
31.96835895
31.96990573
31.97267127
31.97694963
31.98223575
31.98628358
31.98755287
31.98516946
31.98056688
31.9758135
31.97158886
31.96959991
31.96792095
31.93447795
31.93326774
31.93218886
31.93114257
31.79389104
31.79642139
31.799089
31.80146433
31.83543615
31.83721662
31.83934462
31.85851079
31.86552968
31.87822586
31.8980503
31.92278745
31.94374713
31.95099416
31.94183714
31.92091054
31.89796116
31.87941104
31.8511905
31.84259867
31.80551348
31.80195513
31.79873159
31.79580105
31.65871425
31.66313523
31.66769664
31.6714149
31.70593077
31.70931697
31.71413842
31.73752981
31.75430303
31.78411303
31.83054021
31.8861603
31.93028284
31.94442511
31.92529267
31.87962871
31.83020974
31.78799461
31.74159124
31.72286623
31.68029376
31.67388085
31.66829991
31.66333188
31.52499067
31.53091167
31.5370301
31.5421375
31.57759828
31.58348786
31.59341602
31.62552388
31.66027912
31.72507604
31.8241196
31.94195918
32.02789586
32.04566364
31.98969885
31.9016988
31.80727027
31.72500705
31.64904583
31.61334548
31.56003349
31.54917436
31.5406926
31.53372698
31.39339074
31.40094997
31.40870176
31.41527472
31.4517339
31.4609824
31.47831483
31.52440583
31.59581075
31.72946231
31.96061876
32.26816839
32.49156246
32.47347395
32.27692023
32.05696172
31.86513013
31.70981954
31.58339778
31.51784871
31.44594254
31.42830841
31.41595204
31.40635086
31.26293358
31.27188382
31.281144
31.28950362
31.32852251
31.34333749
31.37344328
31.44124382
31.56830416
31.85002514
32.43826815
33.50391128
34.38392198
34.04031634
33.14104075
32.49845523
32.07378341
31.76542983
31.54848425
31.43991502
31.33963053
31.31017677
31.29259595
31.2801653
31.13462452
31.14517564
31.15629795
31.16684733
31.20805581
31.23028765
31.2782118
31.37812396
31.59064064
32.15190692
33.62791138
38.42614756
44.5883814
41.52844226
35.52534734
33.48582083
32.51567451
31.9315826
31.55552193
31.38194673
31.24067155
31.19571935
31.17099918
31.15509642
31.00795773
31.0199456
31.03290827
31.04608422
31.09132776
31.12282841
31.19289282
31.32864308
31.65744444
32.59920907
35.56252994
50.65485956
66.31244954
41.13332051
35.29055452
33.25895414
32.22791669
31.60284741
31.34076329
31.1496422
31.08429296
31.05029263
31.03037495
30.88424907
30.89810732
30.91359748
30.93018678
30.97929404
31.02169522
31.11645469
31.2890312
31.74770179
33.05111372
37.1073126
59.49905589
121.6804002
49.52737945
37.82861018
34.26410616
32.63450211
31.69403033
31.31467059
31.06672864
30.97793586
30.93270926
30.90807127
30.76311993
30.77859331
30.79651825
30.81688429
30.87229198
30.92643015
31.04639299
31.25542144
31.83523146
33.4072699
38.00561621
66.07644216
151.8355432
56.9343338
40.48846532
35.39233076
33.10152944
31.81166003
31.30154186
30.9913411
30.87700783
30.81913323
30.78928493
30.64649859
30.66409555
30.68503495
30.71014453
30.769994
30.83643548
30.98063041
31.22636262
31.91691625
33.69895917
38.75236895
74.57973722
152.319173
61.31633038
42.74872302
36.45201979
33.56185477
31.93330713
31.2973615
30.92363994
30.78421316
30.71311981
30.67745933
30.53274112
30.55202581
30.57563338
30.60570995
30.67163131
30.75066751
30.91724775
31.2006299
31.99157264
33.96597838
39.6255801
85.07602625
141.2601997
63.09036269
44.33563084
37.29867061
33.94705379
32.03875676
31.29542582
30.86248014
30.69817971
30.61424527
30.57270644
30.42411095
30.44559324
30.47272195
30.50810888
30.57628471
30.66777986
30.85455754
31.17535822
32.06036296
34.2318246
40.81426328
95.18692639
619.7009574
122.0311043
63.33912494
45.25227347
37.90958632
34.22331718
32.1141793
31.28901477
30.80528988
30.62012805
30.52381173
30.47648886
30.31775264
30.34115085
30.37154631
30.41147936
30.48652833
30.5942897
30.80515432
31.16172613
32.156477
34.60139465
42.79943731
144.0601559
389.3093172
113.7150884
62.97192153
45.83691478
38.24440669
34.37196844
32.15714699
31.27344621
30.74727528
30.54582325
30.43853299
30.38599688
30.21532757
30.240681
30.27411497
30.31776838
30.39645325
30.5151894
30.74027736
31.11961521
32.15023041
34.73599258
44.92171238
484.8604647
278.7015973
106.3963512
62.31822192
45.98900999
38.39151057
34.41540648
32.15867491
31.24578366
30.68935917
30.47476388
30.35742736
30.30018845
30.11303935
30.1402174
30.17655679
30.22426028
30.30732758
30.43464942
30.67166008
31.06189932
32.08259438
34.67826586
46.23912896
650.021739
251.7806058
104.0886122
62.46975456
46.11185353
38.35342822
34.37584681
32.1315705
31.2056887
30.62556274
30.400758
30.27636709
30.21511432
30.01338311
30.04243116
30.08133887
30.13195101
30.21787332
30.35156108
30.5982901
30.9984657
31.98532031
34.48139364
45.6807097
465.8342728
262.1837382
106.1786021
63.22684357
46.18610285
38.21478073
34.29935415
32.08016883
31.15379009
30.55801618
30.32607744
30.19493516
30.13004831
29.91160881
29.94227956
29.98363622
30.03763093
30.12727199
30.26527767
30.51905392
30.934274
31.9031755
34.28568859
44.64039955
307.6841839
289.3905743
110.0782859
63.75929486
45.94908605
38.01570324
34.19807998
32.00918546
31.08679011
30.48106209
30.24375871
30.1087123
30.04087209
29.81178073
29.8439837
29.88742289
29.94351739
30.03484757
30.17560253
30.43422702
30.8614174
31.853997
34.26639298
44.73721955
246.0744887
300.4469092
110.9768816
63.11814051
45.51500834
37.8257001
34.08710092
31.92764507
31.00985399
30.39845556
30.15763095
30.01933191
29.94956481
29.70805853
29.74138896
29.78679107
29.84582081
29.94034308
30.08274692
30.34469658
30.78133635
31.79700457
34.35058615
46.49557635
265.375511
279.5120988
108.1954221
62.34918945
45.16585907
37.65896207
33.97788473
31.84089845
30.9255773
30.307921
30.06367701
29.92277842
29.85168114
29.60670275
29.64094032
29.68780893
29.74825038
29.84351981
29.9871028
30.25156295
30.69625489
31.73522065
34.4479942
48.74483385
274.6265199
260.4893244
105.9051217
61.90094987
44.91675285
37.52398021
33.87753241
31.75228805
30.83593949
30.21346081
29.96702817
29.82414222
29.75206894
29.50008788
29.53477896
29.58299836
29.64601138
29.74447807
29.88909447
30.15591959
30.60828919
31.67308846
34.56688567
51.20390416
271.8006028
245.7059484
104.0935791
61.65097654
44.78657017
37.42677316
33.78905023
31.66334222
30.74224779
30.11209889
29.86273719
29.71813881
29.64553071
29.39743887
29.4323683
29.48134394
29.5449375
29.64324424
29.78913681
30.05865764
30.51917961
31.61380457
34.72354104
53.38667498
263.3180461
233.883425
102.6789889
61.53604275
44.77032272
37.36983361
33.71190121
31.57430923
30.64534207
30.00948231
29.75851578
29.61266772
29.53971849
29.28810579
29.32291771
29.37268321
29.43854818
29.54032154
29.68769745
29.96052707
30.43026393
31.55982521
34.94778783
55.10071283
252.3998941
224.0181649
101.5610592
61.52079642
44.83504268
37.34777679
33.64314298
31.48475204
30.5458339
29.90079705
29.64689524
29.49982826
29.42681017
29.18545331
29.22003264
29.26999026
29.33562643
29.43600295
29.58533896
29.86226403
30.34267318
31.51408604
35.25237757
56.3931836
240.4445018
215.6833881
100.645806
61.57512427
44.94815745
37.34730329
33.57831427
31.39380199
30.44400479
29.79377439
29.5388307
29.39102193
29.31801766
29.07393047
29.10805849
29.15847708
29.22643562
29.33108999
29.48262696
29.76449334
30.25726424
31.4797727
35.61004232
57.34860507
228.1865404
208.6172416
99.87725207
61.67709909
45.08084803
37.35432345
33.5128476
31.30064846
30.34009953
29.68024312
29.42227029
29.27353895
29.20070247
28.97305792
29.00672288
29.05702427
29.1241339
29.22579773
29.38008672
29.66765827
30.1743408
31.45836573
35.97651465
58.02474728
216.0582624
202.4277045
99.23894185
61.81371939
45.21508995
37.35790299
33.4438095
31.20506145
30.23433847
29.57170138
29.31344623
29.16432071
29.09166154
28.85959186
28.892672
28.9433231
29.01319152
29.12098729
29.27816474
29.57209991
30.09385732
31.44857529
36.31375111
58.43897482
204.166757
197.2231867
98.77470967
61.98869755
45.34019254
37.35180441
33.37026318
31.10739935
30.12724531
29.45441709
29.19286843
29.04295173
28.97053719
28.76247078
28.79503013
28.84546622
28.91401571
29.01650502
29.17726244
29.47830646
30.01629654
31.44784866
36.59495314
58.54937067
191.8653576
193.4545884
98.56061405
62.17893392
45.4371025
37.33101678
33.2924036
31.00835219
30.01920458
29.34693047
29.08587384
28.93573647
28.86352563
28.64659664
28.67855144
28.72932533
28.80126238
28.91329892
29.07773202
29.38698232
29.94326524
31.45637049
36.82156312
58.40400098
179.5451997
190.591592
98.42244453
62.27684475
45.47256067
37.28997979
33.21070169
30.9086484
29.91089684
29.22577956
28.96084294
28.80991594
28.73792715
28.55547969
28.58695122
28.63755012
28.70784868
28.81072192
28.97984873
29.29887523
29.87726377
31.48111567
37.03778018
58.23926762
169.1657723
186.7063252
97.85185694
62.18614327
45.42771022
37.22617449
33.12588644
30.80891493
29.80252406
29.12239508
28.8585465
28.70740642
28.6355722
28.43574118
28.46663577
28.51755427
28.59170009
28.71004416
28.88381895
29.21452066
29.82071483
31.53227608
37.30886949
58.35438334
162.4323977
180.3880072
96.51747584
61.79529392
45.29261323
37.14360912
33.03896059
30.70961265
29.69477285
28.99567962
28.7272721
28.57529723
28.50361646
28.35347409
28.38397175
28.43485506
28.5075169
28.61000743
28.78980857
29.13418485
29.77502941
31.61669498
37.67215049
58.92357818
159.0647032
172.267108
94.57258261
61.22706857
45.10533982
37.04869732
32.95077934
30.61107071
29.58752167
28.90079881
28.63354934
28.48123371
28.40963225
28.22707942
28.2570388
28.30818942
28.3842465
28.51277628
28.69812251
29.05807432
29.74010249
31.73139465
38.11376318
59.81206301
157.5720151
163.7875338
92.36534242
60.56916704
44.88973679
36.94630717
32.86184907
30.51366421
29.48180407
28.76409598
28.49244214
28.3392557
28.26771913
28.15743455
28.1871276
28.23842588
28.31472374
28.41662236
28.60937984
28.98676933
29.71539446
31.86892938
38.59650695
60.81183961
156.6299832
155.7932884
90.13219417
59.88093984
44.6598837
36.8389054
32.77227169
30.41813843
29.37768773
28.68501511
28.41279464
28.25909963
28.18755792
27.99727805
28.02642188
28.07818363
28.1580305
28.32627412
28.52505674
28.92201534
29.70011852
32.02156158
39.08778773
61.7936158
155.6980453
148.5172001
87.98013804
59.19278501
44.42326799
36.72794777
32.68222117
30.32631268
29.27834083
28.50844657
28.23126865
28.07627598
28.00466889
58.94460826
142.0460054
74.12540331
65.08210117
181.3302172
147.4074321
73.48150356
179.8794508
182.8333454
83.78792804
163.181478
177.8789747
94.11081197
757.6207577
647.7953069
147.0779658
160.7373835
123.4301124
479.6400524
742.701754
405.8380842
143.0684753
145.5070283
48.73096163
43.8079915
68.28375517
41.39713291
392.2932035
143.7453298
115.4149005
53.51201022
44.34927863
37.81842283
55.96256652
52.45480611
1286.449237
904.3836005
150.1055387
64.53745232
56.59537985
38.58732883
62.02568377
56.60842721
69.24272792
201.7672212
177.5270775
760.3815746
1023.970195
153.3041711
70.64953978
66.55048123
39.44939873
69.3085116
62.84896931
78.12297634
307.3385568
238.5611465
445.0467653
579.5416004
40.56332042
79.20120612
70.26688029
87.22152619
495.4787099
386.3932359
1676.551223
291.592712
339.7331274
42.46389521
100.2216458
80.73646262
103.8036665
1142.860659
732.4651448
150.7132716
367.7008995
472.4159511
137.6929128
166.6485244
88.93530867
132.7972362
879.0857086
412.0325818
112.073567
336.6063049
625.1712689
174.5364341
154.8386207
62.10083113
205.2892692
222.4123886
172.1918274
201.9511408
1034.460933
1288.59637
166.7623249
913.711506
809.2030337
645.9222716
910.2088063
164.4777214
235.0501634
205.763772
70.30328583
268.0992461
314.9124023
224.6662005
264.7027907
604.0841899
744.8086328
183.38384
576.8204594
460.5921223
801.551134
596.1315188
183.9720245
381.7332757
310.9229122
79.39590235
386.2698797
494.9245019
318.0125825
381.9055114
349.7616091
429.7428932
720.6179091
505.8904016
87.62432011
2494.652329
701.9331284
1096.9523
500.5896971
684.2212375
2903.192654
268.4382115
286.7182676
1479.703864
8558.323337
1154.326183
105.2499129
547.9832027
1818.091051
7669.361326
1106.908881
1784.54577
562.7389197
36.80764408
51.9937711
45.65989631
55.44980404
109.6468858
78.17690368
2194.089495
381.0156058
61.53938049
152.4550074
132.3587922
4811.247099
143.0450978
72.53498197
71.42369655
5201.756058
636.4857844
706.7052762
492.9145238
238.5788905
259.4239555
129.0022137
112.4222047
56.53380455
1255.111837
188.7104112
448.6327886
121.503883
299.2983788
103.7518523
722.4434149
917.5788122
169.4998017
355.5437983
302.8235419
446.1457006
365.2580119
171.8963346
1039.703575
3996.984979
656.3142022
67.11222596
55.2407539
82.18309205
126.6996552
64.94023561
68.667455
2935.056604
277.4426481
2086.903025
294.0319887
1542.697017
250.5470277
1047.849528
1033.619534
867.7179076
886.0137312
1720.866752
3973.583237
495.9069248
2057.499386
1141.71799
4486.590365
2438.394119
515.5346484
426.0360526
154.9929511
162.9705666
535.1244108
606.9160657
4595.426247
797.7627015
209.6638857
224.1798679
192.5154664
204.2569267
794.1371423
1070.327674
1254.654675
148.7007979
766.6402555
593.5622807
1246.147165
769.4484992
152.0986271
110.5441089
315.6337874
154.5234512
514.8307198
342.9130671
117.7073615
473.2301581
756.7567802
621.9484388
590.8574977
208.0687866
1444.051779
208.6907111
185.2713114
1358.886483
1270.028467
1433.688138
1370.187054
189.3067968
1088.808672
1098.743999
851.757779
303.9434936
296.0458896
306.1334121
305.2042631
846.3965725
768.292969
270.4514792
248.4677097
292.2534973
276.8918488
783.3717926
289.396453
292.4206422
241.6873374
244.1551098
639.1205219
4662.927105
650.5512837
419.2922017
426.5659198
348.8736355
353.2733201
1079.766109
797.2600177
390.8810784
970.4135753
1597.219527
563.9798024
178.1201368
188.5372071
165.8549679
174.9070876
554.3605653
1137.122285
753.3891318
767.5738936
541.8822963
547.0504627
5439.371753
883.0900977
461.4539617
514.0038098
230.5070477
243.4772018
1442.309572
2922.921439
1241.911634
2157.710097
1150.384179
6178.748486
2435.928228
5257.622383
1146.488957
626.2700138
3588.976834
1567.617946
2618.49584
1620.972961
2201.379867
44.38117574
110.3995921
103.4116689
163.1342097
4197.778223
7786.191022
290.862074
130.7909413
140.1231783
911.9851351
2572.094086
3737.763943
407.9527528
445.1183739
830.5920942
219.7567814
231.880488
480.1927768
125.0519906
91.12158606
173.6864992
310.5629977
113.5020023
130.9984588
1209.490305
2861.389473
3001.769379
968.9688456
807.5559274
2219.418741
1638.651165
3717.803348
3689.410681
981.0173715
279.485836
123.5345265
128.4683379
117.4738942
121.9655028
273.5876147
145.7196941
152.6383694
420.9509673
1048.546205
398.6112243
419.6562137
6411.786153
3065.601435
439.9399654
762.7813327
2575.56178
2846.953375
443.3571689
201.4111973
170.3924018
239.6013601
211.9691053
462.5284926
1059.952487
3643.629
3720.994461
1230.208664
221.6838363
111.9358989
116.0579845
677.569641
661.8010579
304.9216926
1552.071547
1431.905917
704.6783286
523.8487659
277.7264716
287.4373559
723.4826647
301.1324218
305.5247791
290.8364961
298.7134396
711.2923232
342.0094345
137.511083
143.5977154
130.1851193
135.596328
337.322898
399.4007298
1019.426038
1007.343929
1660.259029
1607.94124
472.0477438
329.9167355
718.6891983
680.2485677
1002.064913
992.9358359
369.4517699
378.9525821
769.0413074
621.9273242
5681.816817
1677.36434
728.0322261
918.2676322
517.6997083
1697.785982
1668.483875
1709.764037
594.2675056
4476.525268
8874.124483
314.1618226
367.9552337
427.6567517
447.0464523
1166.909476
1425.791546
921.9424155
508.3117989
1841.038548
7808.169099
1342.046652
1174.262258
16148.42754
1120.0741
1694.925632
1306.725846
1566.321336
1174.953244
4763.454326
4840.275904
1110.984533
1444.214444
5416.382009
1327.422143
1261.402019
289.9383168
1057.577321
427.7740202
1057.177805
315.3677509
3666.822789
2440.320656
812.9865241
4406.787767
5177.722636
4181.599182
2785.383263
883.922568
4357.531146
5536.684351
2747.722555
4118.194519
5888.524818
1564.306225
2376.291434
1104.288533
1394.173855
5283.89497
2994.589506
886.1641487
556.3441726
1426.146862
972.8791451
503.9790059
323.1549005
874.2196724
3163.542324
4011.657002
1151.471945
984.5544153
3037.974302
3169.581976
2425.754711
2303.52064
825.8032924
4071.934163
3985.921463
2897.238757
3965.090639
3946.185347
956.4627785
3830.481374
2494.703247
2567.825856
2916.659916
1553.048268
734.6192026
792.0879179
3288.645041
920.8696987
1039.801991
815.5729236
886.6544855
3068.540549
3208.003267
870.226889
1025.151828
368.8664299
391.3394744
949.3834882
762.683588
347.1084892
363.2166848
1186.795122
1203.910957
746.7268657
254.7832176
277.7874683
228.7588397
248.2304822
738.1056932
828.0058945
319.3534112
352.5706217
286.0600313
310.8758628
833.2014706
450.2602207
205.6784244
223.1783323
663.9027477
697.3057932
1857.020273
1940.530418
723.7055154
2727.061796
2747.287269
3468.337358
1895.07249
1582.564079
2656.247364
1875.116632
502.8871986
1339.44547
1775.054584
1497.56687
469.2822152
535.2893487
442.1613363
457.8723751
1454.94887
589.6092594
603.0503882
557.3919194
584.8297675
1326.640569
384.5186172
399.2727747
361.2083514
379.3683515
1313.597958
1407.123883
423.0695011
436.8758237
404.1132702
418.3381779
1401.069203
3510.2407
3593.015218
1067.676263
1183.028421
3639.80425
3484.605978
942.0015596
949.4263821
911.5263874
939.6003973
966.2296153
981.967736
952.0396303
962.8568606
624.2363213
637.1422101
607.2738763
619.8008263
682.9842549
865.2017179
643.2650436
658.3650095
1352.25901
1575.970255
1081.860442
1259.470254
4908.033605
2479.723936
2702.662583
1681.164511
2375.214294
1036.084395
1026.535056
404.1538777
1685.922952
1692.080978
1647.360693
1674.561711
1742.841831
460.294589
1568.51852
1094.67156
957.408666
740.9871711
334.2909285
1037.099903
1535.421279
983.1885092
1047.681936
1605.012298
1633.241339
1557.593294
1593.11647
365.4018718
989.984459
977.6083559
5249.655568
1149.692944
5094.469345
4342.359234
5074.358691
1229.605165
5917.860809
1490.084861
5606.44755
4746.026775
735.8515667
826.3145935
1736.657633
1703.652363
523.0467156
576.8774633
1809.615181
1740.082904
5386.352107
1213.121224
460.6840872
509.6030755
5692.79193
6502.241375
1925.669555
7077.80047
4988.45003
1638.592507
1122.254085
6160.759218
3344.172308
6837.603979
3819.394809
1631.681305
61.89965365
41.78520053
36.36633334
5277.340783
5252.643468
133.5346272
72.12277825
72.53759239
5503.478494
847.7119201
2443.942763
1625.560286
295.2927584
248.799018
154.7372272
266.7322414
194.5325001
383.6023151
1378.756713
264.2679938
287.8959998
51.96293346
60.48809206
111.4737817
343.367496
641.9229151
931.3199572
190.5820202
102.0400286
105.5879392
97.55823431
100.891996
187.1686313
748.2391471
831.0699478
2726.432634
594.0341024
523.4896903
317.112667
327.8466428
342.3175264
756.8686829
1010.558601
1287.833918
475.6602608
106.8109625
110.6239899
217.6845585
277.3664059
621.673239
593.4266652
570.3773882
501.9333927
254.9474443
635.1870947
308.3300248
323.1017441
4141.346364
3854.091406
2178.571754
1726.02874
1702.226058
1072.008014
3419.680105
5389.558006
4765.381852
1124.038972
660.9328766
729.2358219
1821.141422
1113.184778
1763.225089
1749.098641
1784.522137
2326.51201
4638.594235
3146.656978
3577.51612
5129.772195
1331.462476
1076.582151
644.464659
1285.207197
159.3063448
127.3704055
216.5531686
785.918993
2071.002622
1470.092577
5701.792404
6060.291424
6170.966526
5038.485922
5864.674769
87.70626742
109.0488521
252.8491341
2405.916833
1577.034659
1221.860884
3096.739717
2458.055903
1883.503971
3528.115921
3205.045149
5146.746974
4853.525108
3416.30445
667.6755372
717.685549
1431.004402
4644.338413
2359.519874
2643.768029
3954.313287
2237.019474
2654.172755
1117.847393
1500.886397
1235.933719
758.7308135
509.6047704
517.8458314
1206.234728
728.1069834
770.199723
523.1787621
534.9308091
785.624545
180.9110137
200.6420302
423.1894609
539.9413373
975.8356264
694.2723971
1164.580216
1213.06668
758.9625285
1816.402944
1299.660756
1354.802463
875.0652558
878.0176379
1449.745433
1472.878503
1488.416727
1389.171612
1413.146102
1346.1148
817.3292058
822.5716714
788.4915174
795.5047297
1286.475681
1425.679437
862.1227963
866.9836247
828.168524
833.8010591
1380.796813
639.6981492
626.5641729
280.3799552
301.861569
657.4655513
643.9366083
469.1354549
456.0218364
234.1843515
1533.174394
1536.06987
1494.930547
1500.78483
1913.821709
1545.177406
1546.517852
252.1368108
490.1795932
474.4045785
4531.393379
4477.332081
2772.557097
2940.716549
4631.658847
4523.875346
4719.508145
691.4642892
1381.836077
1156.805785
291.1912538
303.7148017
605.4374469
535.0321672
277.5690438
287.6747441
1099.890778
1099.584063
749.8070628
770.3838023
1108.865675
1113.29815
5387.345892
1522.793932
986.0863102
972.5212162
12682.13195
2401.83666
1477.273351
4419.149113
3527.654787
1838.506758
1815.105266
1134.105764
5954.182097
6490.260862
6192.70193
4807.07501
1209.098544
1887.456116
1826.884534
2472.715154
894.7965231
1035.826118
5179.088553
5092.070227
3870.110568
3569.619917
1974.953577
1098.466301
1068.470079
1265.024183
3005.841531
5181.153266
4371.436844
5235.736461
4999.824406
3460.013935
174.9952355
240.0676728
728.4593712
3078.572585
3002.295881
3164.971993
3140.927006
2930.050218
1913.899299
1895.111914
1934.03357
1917.306958
2939.344163
3760.493571
2122.069513
2136.871215
2039.815849
2098.809788
3826.387473
2690.641863
1735.728409
1569.21138
1880.823992
1829.877307
2764.035522
3631.983241
2168.722037
2182.399883
2151.736643
2158.921812
3675.129871
3253.953728
3188.775885
3330.2546
3189.673241
1017.249815
695.3143706
699.3402501
1644.274129
1031.698143
1036.348066
1002.541289
1024.572475
1631.943078
5322.412504
5555.667074
4792.032152
5404.39575
1720.526068
1735.257712
1689.649185
1705.579333
2194.484737
1014.57879
1654.201201
1587.901215
1686.540636
1043.629304
1047.842888
1038.510782
1041.625472
1679.323985
1622.986843
1667.169796
1128.181594
1558.052938
2164.300889
5750.45001
5330.165115
3926.504897
5611.706197
857.8672726
1220.631069
12960.75346
1168.250696
794.0446646
798.0392996
1843.864735
7413.972688
7657.723729
9221.259753
5752.784421
5279.965076
1780.065296
1767.726857
1114.432671
1745.637653
2000.887155
2834.624323
1969.190303
2619.961946
1969.051557
775.3568805
2770.088562
1963.670516
4815.540232
5023.171903
5358.543317
3903.782508
4545.861903
1284.885931
1621.99679
890.0202952
453.8944384
627.9462548
998.50145
1109.926176
656.8169285
971.0819071
1289.494228
5023.585225
5312.76751
4938.364609
5001.498643
5834.842335
5775.150949
5595.019271
3223.282789
4898.566456
4410.721473
5566.961338
5774.284667
3661.777354
4020.910873
4486.01072
5817.227387
4660.567784
3169.119959
3528.681449
2259.281473
1632.167459
2299.725091
1215.848146
1755.541248
2336.944606
2571.510589
2373.746021
3296.433247
2082.104732
1970.451286
2833.514453
2056.397169
3090.528468
3082.488126
1954.853589
1937.640079
1980.805283
1954.479685
3102.902395
2386.500543
1439.401179
1462.287215
4023.080076
4013.107265
3400.97707
4449.809321
4280.613351
4104.590885
4009.573827
4201.687371
3144.026843
1711.201182
1906.293134
1499.135215
1571.708422
2676.320328
4891.777491
4084.561172
2151.546326
5241.400347
5001.504924
4983.312441
3088.917544
4872.279255
4711.254103
1793.83082
2017.164096
3891.901684
1159.020439
1227.1072
583.4987661
656.6945602
1158.72543
785.343795
539.7804202
563.6742672
1091.076747
1052.636337
623.0032062
1064.680048
1397.236912
702.9842519
1152.424397
1132.527706
1858.571242
1286.348778
1264.935189
1413.849153
1368.292535
1962.624345
2882.84729
2706.448426
1774.161564
2598.602778
2717.439407
2447.846533
2571.530623
1742.246656
2599.597139
2557.264147
3263.246739
2437.477391
940.2018194
932.6897969
1417.68908
1462.368595
891.1062514
888.1727289
1450.877322
1464.268077
1426.998371
1440.566887
808.6163197
813.3129639
1339.885425
1300.024333
799.9506931
804.1882406
850.2591918
855.3441471
1414.787857
1392.409479
839.758184
845.047045
3559.763216
2214.351656
2226.157815
2189.283039
2200.057858
3553.245503
3489.071943
2440.781399
2814.039188
2251.564535
2305.775881
3491.593261
944.6275503
1532.440533
1521.150809
1548.348539
1540.893931
946.8917227
929.9688608
1483.578523
1464.935984
1510.645229
1498.141942
936.2991203
971.9720642
1598.121625
1587.14269
1614.390143
1603.70702
974.8425863
955.1533947
1562.959241
1556.355859
1580.507497
1570.436564
958.268268
1520.661861
1525.181894
628.3914363
922.2380647
919.091626
929.8189307
927.2271387
633.3011634
1508.465608
1513.710762
1593.891115
1507.449748
704.502139
989.6987566
999.4048888
1428.287744
1373.193925
784.0188591
645.9518394
937.9021946
936.4807404
946.4325572
950.0336992
656.499645
1558.823846
1551.429263
4496.919605
4354.557035
4718.727653
3154.223994
3738.239305
2550.468835
4276.920527
4335.251776
4267.064731
4276.127791
2610.738103
1870.741743
3597.798208
3030.038768
4199.133759
4342.342761
2156.474451
1040.348456
720.8115983
722.792792
706.3066935
709.091392
1027.358254
1686.434398
1701.47786
1653.615103
1671.586062
1644.019718
2096.200193
1501.17462
859.3890659
950.6374631
750.0813672
773.4932995
1083.378289
1437.152172
2003.282757
1575.404333
1497.650552
995.9232281
1629.76025
1615.284631
1668.148978
1621.882674
992.0688611
1613.15853
1625.861612
1570.882396
1583.563078
4890.644938
3073.63525
3298.877596
2255.875797
2734.320062
4984.369818
4992.513889
4825.107301
3615.38038
4196.281538
5344.017294
5400.138901
3907.318768
4160.146509
2993.475334
3473.190043
5592.325848
1768.788568
1769.867969
1750.953991
1754.421022
1157.017346
1169.298347
801.1048687
1833.991494
1733.056869
1788.68415
1778.929706
1720.919365
1058.136001
1066.610663
1050.081785
1056.091817
1716.847754
1760.116262
1081.17336
1140.617255
1068.439317
1084.083729
1763.454154
5170.71205
828.1026806
834.1055762
1217.239156
5515.371442
8562.112472
8939.686878
8302.190942
8358.372969
6150.454342
1873.623828
6095.406754
4243.248494
4643.189729
1131.44766
1805.717559
1788.522222
6124.215172
6728.664682
6465.558235
5231.107098
5723.085252
7131.480694
6752.14956
4230.909502
6408.088803
5480.319513
2240.301973
1797.541821
1197.527133
31.76711738
31.77670543
31.86309603
31.78076906
31.79836411
31.87397567
31.80524218
31.83311226
31.8917966
31.84302198
31.87848889
31.9156702
31.88852948
31.92136387
31.9387725
31.92790621
31.93977328
31.95059028
31.9405198
31.93039157
31.94605237
31.92382528
31.89590245
31.92745351
31.88674334
31.85369661
31.90411873
31.84402676
31.81588539
31.88389507
31.65258665
31.67259351
31.74925074
31.68161484
31.71925526
31.77554552
31.73532699
31.79476571
31.81796649
31.81764505
31.88947474
31.87196975
31.91190507
31.96886978
31.92356545
31.98213048
32.00313051
31.94401599
31.99714385
31.97565472
31.93259467
31.96114448
31.90835299
31.89187494
31.88850711
31.82757481
31.84192763
31.80633019
31.75279239
31.79654306
31.54884674
31.58952874
31.64938203
31.60861517
31.68658941
31.70583307
31.72084301
31.85191981
31.79732653
31.90498072
32.0843015
31.91055554
32.12560857
32.2564696
32.01543589
32.29306813
32.32676836
32.04331935
32.28547623
32.21554245
32.00568582
32.17247314
32.05119959
31.92451051
32.00717753
31.87881298
31.83104533
31.8393296
31.73733541
31.74294471
31.46005093
31.5350996
31.57288493
31.56976672
31.72855088
31.68911445
31.80499456
32.12988002
31.89338797
32.27032595
32.82940494
32.17261433
32.96050774
33.46514281
32.44620599
33.53973669
33.56000405
32.46395617
33.34213793
32.9856485
32.32122086
32.83407457
32.47882812
32.11030504
32.36948369
32.08508798
31.91032556
32.00336547
31.80293627
31.74374243
31.39228378
31.5168464
31.52710385
31.58086809
31.89765256
31.75706737
32.05933184
32.83870811
32.25295703
33.24007339
35.39382751
33.12533185
36.2445482
41.80236568
34.26116185
41.81671185
39.63360678
34.11229727
37.77709668
35.31595566
33.31679792
34.69795954
33.49508614
32.63369406
33.20891781
32.55125337
32.16615528
32.38094755
31.98590256
31.83447232
31.34053492
31.53368607
31.51815458
31.64077331
32.18785886
31.95814107
32.48594012
34.09221863
33.10600162
35.06602667
44.28967421
36.3533511
41.56770581
47.73928901
40.14906966
59.04755857
57.06101474
44.48719935
46.85288893
41.63649356
39.24044092
39.35548544
35.53875723
33.84928864
34.82441208
33.37355288
32.71162514
33.04183836
32.32129919
32.05272359
31.29826309
31.57142247
31.53950213
31.72490202
32.51219484
32.26476578
32.94654029
35.33466972
34.43695989
36.03573576
37.90490175
37.24291915
52.47181265
59.29909293
56.70702823
87.19426977
63.28919896
53.40676809
47.35675427
38.69340885
36.17283601
37.2659519
34.58092523
33.63305912
34.00808752
32.80611174
32.42760809
31.2633571
31.61740986
31.58289328
31.8135797
32.79598856
32.58894506
33.32593585
36.13742448
35.56972875
37.37438874
39.74465307
39.39400297
60.1967333
71.06150021
69.96093703
137.3729045
86.71135026
78.30614395
55.30889123
42.16121786
39.47771717
39.99803421
35.96695545
34.8867597
35.12325775
33.38213053
32.94212749
31.23307942
31.66283561
31.6292308
31.89605269
33.03181682
32.85890966
33.62937058
36.72295919
36.28901004
38.20742776
40.86984186
40.58908441
67.09865408
88.15943876
85.60713831
154.5517871
99.46242767
96.12467158
60.44425126
45.02099458
42.84733496
42.34175606
37.29633023
36.27616957
36.21167068
33.96814334
33.53013944
31.20548182
31.70534867
31.67491317
31.97201732
33.24302308
33.08681951
33.90051002
37.29798809
36.85183475
38.99251853
42.12622973
41.71744829
75.71515093
103.7273598
100.4117737