/*--------------------------------*- C++ -*----------------------------------*\
| =========                 |                                                 |
| \\      /  F ield         | OpenFOAM: The Open Source CFD Toolbox           |
|  \\    /   O peration     | Version:  v1912                                 |
|   \\  /    A nd           | Website:  www.openfoam.com                      |
|    \\/     M anipulation  |                                                 |
\*---------------------------------------------------------------------------*/
FoamFile
{
    version     2.0;
    format      ascii;
    class       volScalarField;
    location    "114.5";
    object      p;
}
// * * * * * * * * * * * * * * * * * * * * * * * * * * * * * * * * * * * * * //

dimensions      [0 2 -2 0 0 0 0];


internalField   nonuniform List<scalar> 
286800
(
0.8583385
0.5997507
0.532225
0.4885939
0.4628544
0.4450332
0.4308933
0.4185305
0.4071684
0.3964781
0.3863004
0.3765424
0.3671404
0.3580471
0.3492253
0.3406456
0.3322843
0.3241217
0.3161413
0.3083307
0.3006788
0.293176
0.285814
0.2785853
0.2714834
0.2645023
0.2576361
0.2508796
0.2442272
0.2376739
0.2312158
0.2248493
0.2185708
0.212376
0.2062615
0.2002242
0.1942611
0.1883686
0.1825437
0.1767841
0.1710876
0.1654522
0.1598756
0.154355
0.1488882
0.1434736
0.1381093
0.1327939
0.1275256
0.1223024
0.1171225
0.1119847
0.1068882
0.1018317
0.09681446
0.09183462
0.08689079
0.08198192
0.0771071
0.07226566
0.06745659
0.06267903
0.05793222
0.05321535
0.04852761
0.0438684
0.03923702
0.03463281
0.03005533
0.02550404
0.02097858
0.01647867
0.01200405
0.00755825
0.003133216
0.7996693
0.5978364
0.5341141
0.4925581
0.4661715
0.4472468
0.4322746
0.4194013
0.4077585
0.396919
0.3866583
0.3768495
0.3674121
0.3582917
0.349448
0.3408504
0.3324741
0.3242982
0.3163052
0.3084826
0.3008206
0.293308
0.2859363
0.2786988
0.2715887
0.2645999
0.2577268
0.2509643
0.244306
0.2377463
0.2312817
0.2249098
0.2186271
0.2124281
0.2063093
0.2002683
0.1943024
0.1884073
0.1825795
0.1768164
0.1711171
0.16548
0.1599021
0.15438
0.1489116
0.1434952
0.1381296
0.1328132
0.1275444
0.1223206
0.1171396
0.1120003
0.1069025
0.1018455
0.09682815
0.09184836
0.08690402
0.08199439
0.0771189
0.07227698
0.06746743
0.06268947
0.05794238
0.05322524
0.04853722
0.04387772
0.03924612
0.03464172
0.03006411
0.02551263
0.02098692
0.01648621
0.01200711
0.007545724
0.003113704
0.7572164
0.5982195
0.5367334
0.4967236
0.4699095
0.4500943
0.4343696
0.420964
0.4089603
0.3978746
0.387441
0.3775064
0.3679737
0.3587794
0.3498778
0.3412346
0.3328232
0.3246175
0.316593
0.3087437
0.3010635
0.293535
0.2861466
0.2788937
0.2717702
0.2647702
0.2578871
0.2511171
0.2444509
0.2378788
0.2314019
0.2250213
0.2187338
0.2125304
0.2064044
0.2003583
0.1943897
0.1884917
0.1826569
0.1768865
0.171182
0.1655416
0.1599627
0.154439
0.1489673
0.1435477
0.1381798
0.1328624
0.1275939
0.1223696
0.1171846
0.112041
0.1069407
0.1018813
0.0968635
0.09188533
0.08693967
0.08202871
0.07715138
0.07230871
0.06749824
0.06271926
0.0579714
0.0532534
0.04856471
0.04390458
0.0392725
0.03466748
0.03008919
0.02553736
0.02101136
0.01651018
0.01203199
0.007582256
0.003208514
0.7224572
0.6025329
0.5380952
0.4966559
0.469828
0.4499836
0.4341162
0.4206299
0.4086267
0.3975843
0.3872039
0.3773158
0.3678197
0.3586533
0.3497725
0.3411375
0.3327473
0.3245606
0.3165501
0.3087132
0.3010513
0.2935248
0.2861352
0.2788754
0.2717573
0.2647589
0.2578688
0.2511063
0.2444458
0.2378756
0.2313982
0.225025
0.2187465
0.2125379
0.2064
0.200348
0.1943788
0.1884874
0.1826526
0.1768795
0.1711783
0.1655435
0.1599713
0.1544438
0.1489687
0.1435394
0.1381721
0.132847
0.1275843
0.122364
0.1171792
0.1120337
0.1069358
0.1018801
0.09686653
0.09189469
0.0869381
0.0820262
0.07714608
0.07230368
0.06749313
0.06271458
0.05796703
0.05324944
0.04856097
0.04390104
0.03926887
0.03466403
0.03008594
0.02553417
0.02100823
0.0165079
0.01203426
0.007609046
0.003245263
0.724531
0.6060582
0.5395065
0.4965459
0.4693105
0.4494983
0.4336723
0.420218
0.408265
0.3972862
0.3869645
0.3771223
0.367662
0.3585209
0.3496553
0.3409751
0.3326061
0.3244918
0.3164984
0.3086786
0.3010739
0.2935242
0.2861604
0.2788747
0.2717348
0.2647385
0.257797
0.2510422
0.2444298
0.2378651
0.231393
0.2250316
0.2187933
0.2125575
0.2063963
0.2003273
0.1943457
0.1884765
0.1826443
0.1768758
0.1711782
0.1655552
0.1600139
0.1544672
0.1490141
0.143556
0.1381625
0.1327963
0.1275428
0.1223589
0.1171743
0.1120323
0.1069365
0.1018862
0.09688604
0.09193979
0.08696442
0.08206601
0.0771475
0.07230344
0.06749443
0.06271744
0.05797033
0.05325306
0.04856517
0.04390563
0.03927313
0.0346685
0.03009027
0.02553788
0.02101175
0.01651084
0.01203574
0.007593948
0.003202892
0.7195855
0.6033703
0.539035
0.4969802
0.4698748
0.4499581
0.4340348
0.420513
0.4085031
0.397473
0.3871118
0.3772408
0.3677589
0.3586014
0.3497218
0.3411259
0.3326954
0.3245345
0.3165292
0.308692
0.3010571
0.2935408
0.2861131
0.2788917
0.2717582
0.2647509
0.25789
0.2510867
0.2444476
0.2378811
0.2313943
0.2250192
0.2187616
0.2125558
0.2064106
0.2003555
0.1943817
0.1884979
0.1826635
0.176883
0.171177
0.165544
0.1599906
0.1544709
0.1489629
0.1435625
0.1381782
0.1328746
0.1275773
0.122375
0.1171935
0.1120415
0.1069386
0.101881
0.09687483
0.09192264
0.08696227
0.08202958
0.07716399
0.0723115
0.06750131
0.06272327
0.05797597
0.0532584
0.04857006
0.04391009
0.03927762
0.03467249
0.03009408
0.02554189
0.02101564
0.01651429
0.01203781
0.007605891
0.003253008
0.7320797
0.6001836
0.536733
0.4960885
0.4695161
0.4497597
0.4340007
0.4205932
0.4086245
0.3975879
0.3872016
0.377305
0.3678022
0.3586297
0.3497438
0.3411147
0.3327149
0.3245259
0.316521
0.3086834
0.301011
0.2934831
0.2860925
0.2788419
0.2717208
0.2647214
0.2578413
0.2510735
0.2444159
0.2378531
0.2313809
0.225006
0.2187216
0.2125149
0.2063857
0.2003382
0.1943696
0.1884771
0.1826476
0.1768791
0.1711782
0.1655426
0.159967
0.1544412
0.1489644
0.1435431
0.1381739
0.1328563
0.1275879
0.1223689
0.1171886
0.1120449
0.1069454
0.1018896
0.0968744
0.09189508
0.08694488
0.08202926
0.07715227
0.07230771
0.06749751
0.06271929
0.05797188
0.05325423
0.0485657
0.04390537
0.0392729
0.03466767
0.03008897
0.02553671
0.02101006
0.01650826
0.01203064
0.007594004
0.003229278
0.7814595
0.5973669
0.5344001
0.4937268
0.4672304
0.448013
0.432789
0.4197365
0.4079794
0.3970702
0.3867679
0.3769327
0.3674776
0.3583444
0.3494912
0.3408867
0.332506
0.3243287
0.3163355
0.3085121
0.3008484
0.2933322
0.2859552
0.2787128
0.2715997
0.264609
0.257735
0.2509726
0.2443169
0.2377601
0.2312978
0.2249285
0.2186465
0.2124467
0.2063258
0.2002831
0.1943171
0.1884243
0.182599
0.176838
0.1711412
0.1655065
0.1599297
0.1544068
0.1489359
0.1435176
0.1381509
0.1328343
0.1275662
0.1223448
0.1171655
0.1120267
0.1069297
0.1018737
0.09685651
0.09187536
0.08692841
0.08201564
0.07713829
0.0722949
0.06748473
0.06270634
0.05795898
0.05324134
0.04855283
0.04389282
0.03926044
0.03465525
0.03007664
0.0255243
0.02099762
0.0164956
0.01201493
0.007551734
0.003102002
0.8217277
0.5994329
0.5337505
0.4908013
0.4645524
0.4460583
0.4314496
0.4188258
0.4073377
0.3965906
0.3863869
0.3766156
0.3672052
0.3581051
0.3492773
0.3406922
0.3323262
0.3241596
0.3161758
0.3083615
0.3007053
0.2931976
0.2858302
0.278597
0.2714918
0.2645082
0.2576411
0.2508845
0.2442332
0.2376819
0.2312258
0.2248612
0.218584
0.2123899
0.2062756
0.2002388
0.1942768
0.1883863
0.182564
0.1768069
0.1711129
0.1654795
0.1599042
0.1543837
0.1489164
0.1435011
0.1381368
0.1328218
0.1275543
0.1223324
0.1171536
0.1120166
0.1069203
0.101864
0.09684636
0.09186528
0.08691957
0.08200853
0.077132
0.07228913
0.06747897
0.06270049
0.05795287
0.05323517
0.04854658
0.04388644
0.03925399
0.03464863
0.03006994
0.0255174
0.02099047
0.01648914
0.01201208
0.007562193
0.003146609
0.8921685
0.5951937
0.5265537
0.4851622
0.461053
0.4440006
0.43019
0.4179834
0.4067112
0.3960823
0.3859512
0.37623
0.3668579
0.3577887
0.3489866
0.3404232
0.3320754
0.3239247
0.3159553
0.3081542
0.3005107
0.2930153
0.2856599
0.2784381
0.2713434
0.2643697
0.2575115
0.2507632
0.2441195
0.2375755
0.2311266
0.2247687
0.2184979
0.21231
0.2062018
0.2001705
0.1942132
0.1883268
0.1825083
0.1767549
0.1710641
0.1654336
0.1598608
0.154343
0.1488787
0.1434661
0.1381039
0.1327907
0.1275245
0.1223036
0.1171259
0.1119902
0.1068951
0.1018397
0.0968225
0.09184213
0.08689754
0.08198783
0.07711221
0.07227003
0.06746035
0.06268219
0.05793483
0.05321741
0.04852909
0.04386919
0.03923698
0.03463182
0.0300533
0.02550088
0.02097424
0.01647354
0.01199944
0.007553214
0.003101333
0.84548
0.5903953
0.5262467
0.486856
0.4632007
0.4459801
0.4318242
0.4192623
0.4076867
0.3968195
0.3865084
0.3766541
0.3671842
0.3580434
0.3491886
0.3405863
0.3322098
0.3240376
0.3160525
0.3082403
0.3005893
0.2930891
0.285731
0.278507
0.2714102
0.2644341
0.257573
0.2508212
0.2441735
0.2376254
0.2311725
0.2248105
0.2185359
0.2123447
0.2062334
0.200199
0.1942381
0.1883478
0.1825253
0.1767681
0.1710736
0.1654396
0.1598639
0.1543441
0.1488783
0.1434646
0.138101
0.132786
0.1275179
0.1222949
0.1171157
0.1119788
0.1068829
0.1018268
0.09680939
0.09182935
0.08688558
0.08197695
0.07710247
0.0722613
0.06745244
0.062675
0.05792827
0.05321144
0.04852369
0.04386444
0.039233
0.03462867
0.03005104
0.02549951
0.02097366
0.01647297
0.01199606
0.007539979
0.003082104
0.7527128
0.6030567
0.5384216
0.4963419
0.4696407
0.4502678
0.4348129
0.4214628
0.4093894
0.39819
0.3876451
0.3776186
0.3680171
0.3587728
0.3498347
0.3411641
0.3327304
0.3245099
0.3164831
0.3086347
0.3009519
0.2934235
0.2860401
0.2787938
0.2716767
0.2646824
0.2578048
0.2510381
0.2443768
0.2378162
0.2313517
0.2249792
0.2186951
0.2124951
0.2063757
0.2003339
0.1943662
0.1884696
0.1826412
0.1768784
0.1711788
0.1655401
0.1599602
0.1544364
0.1489668
0.1435496
0.1381828
0.1328648
0.1275938
0.1223682
0.1171863
0.1120469
0.1069486
0.1018904
0.09687111
0.09188921
0.08694363
0.0820333
0.07715708
0.07231435
0.06750396
0.06272511
0.05797701
0.05325891
0.04856997
0.04390961
0.03927714
0.03467182
0.03009327
0.02554088
0.02101413
0.01651227
0.01203319
0.007579081
0.003170509
0.679351
0.6009675
0.5407346
0.5004962
0.4728391
0.4524406
0.4362476
0.4224675
0.4101571
0.398819
0.3881818
0.3780859
0.3684284
0.3591371
0.3501589
0.3414537
0.3329905
0.3247441
0.3166944
0.3088255
0.3011247
0.2935804
0.2861826
0.2789231
0.2717943
0.2647894
0.2579026
0.2511275
0.2444586
0.2378905
0.2314193
0.225041
0.2187516
0.2125471
0.2064234
0.2003778
0.1944067
0.188507
0.1826756
0.1769098
0.1712076
0.1655668
0.1599852
0.1544598
0.1489886
0.1435698
0.1382016
0.1328825
0.1276106
0.1223842
0.1172012
0.1120605
0.1069611
0.1019022
0.09688231
0.09189983
0.08695369
0.08204274
0.07716587
0.07232263
0.06751162
0.06273226
0.05798373
0.05326519
0.04857587
0.04391513
0.03928224
0.03467659
0.03009769
0.025545
0.02101781
0.01651558
0.01204142
0.007618142
0.003228003
0.6455377
0.5931628
0.5407124
0.5034525
0.4762138
0.4554712
0.4386659
0.4243391
0.4116226
0.3999989
0.389157
0.378908
0.3691304
0.3597423
0.3506845
0.341913
0.3333938
0.3250998
0.3170084
0.3091037
0.3013724
0.2938008
0.2863786
0.2790971
0.2719488
0.2649271
0.258025
0.2512366
0.2445555
0.2379754
0.2314934
0.2251056
0.2188085
0.2125967
0.2064661
0.2004142
0.1944378
0.1885331
0.1826967
0.176926
0.1712197
0.165576
0.1599918
0.154464
0.14899
0.1435684
0.138198
0.1328773
0.127604
0.122376
0.117191
0.1120484
0.1069476
0.1018876
0.09686709
0.09188427
0.08693728
0.08202505
0.07714702
0.07230302
0.06749128
0.06271122
0.05796208
0.05324295
0.04855307
0.04389186
0.03925846
0.03465245
0.03007305
0.02552001
0.02099258
0.01649147
0.01202119
0.007605442
0.003231169
0.6252952
0.5856129
0.5395525
0.5048105
0.4781411
0.4574039
0.4403947
0.4258173
0.4128692
0.4010536
0.3900575
0.3796841
0.369805
0.3603328
0.3512049
0.3423748
0.3338086
0.3254737
0.3173438
0.309407
0.3016505
0.2940569
0.2866124
0.2793092
0.2721435
0.2651062
0.2581901
0.2513908
0.2446984
0.2381048
0.2316113
0.2252148
0.2189115
0.212693
0.2065542
0.2004956
0.1945141
0.1886044
0.1827611
0.1769843
0.1712738
0.1656273
0.1600418
0.1545118
0.1490338
0.1436074
0.1382346
0.1329123
0.1276391
0.1224093
0.1172204
0.1120748
0.1069721
0.1019108
0.09689053
0.09190881
0.08696049
0.08204506
0.07716536
0.07232097
0.06750827
0.06272719
0.05797733
0.05325746
0.04856679
0.04390489
0.0392709
0.0346641
0.03008427
0.02553071
0.02100329
0.01650338
0.01203659
0.007623875
0.003249374
0.6143414
0.5816636
0.5390788
0.5057475
0.4793323
0.4585058
0.4413266
0.4265888
0.4135127
0.4015999
0.390528
0.3800926
0.3701612
0.3606442
0.3514751
0.3426057
0.3340309
0.3256746
0.3175246
0.3095729
0.3018076
0.2942053
0.2867487
0.2794146
0.2722463
0.2651956
0.2582665
0.2514823
0.2447814
0.2381805
0.231682
0.2252826
0.2189812
0.2127548
0.2066071
0.2005432
0.1945588
0.1886498
0.1828008
0.1770221
0.1713099
0.1656625
0.1600816
0.1545486
0.1490687
0.1436178
0.1382479
0.1329176
0.1276655
0.1224313
0.117239
0.1120931
0.1069902
0.1019283
0.09690997
0.09193194
0.08698332
0.08203739
0.07717074
0.07232331
0.06751053
0.06272915
0.05797872
0.05325856
0.04856745
0.04390519
0.03927063
0.03466345
0.03008323
0.0255294
0.02100219
0.01650345
0.0120399
0.007624607
0.003270107
0.6120675
0.5811343
0.5391985
0.50617
0.47976
0.4588451
0.4415686
0.4267555
0.4136302
0.4016877
0.3905975
0.3801493
0.3702085
0.3606834
0.3515037
0.3425857
0.3340496
0.3256857
0.3175498
0.3095891
0.3018318
0.2942213
0.28679
0.279435
0.2722641
0.2652112
0.2582526
0.2515074
0.2447892
0.238205
0.2316942
0.2252926
0.2189949
0.2127751
0.2066144
0.200546
0.1945584
0.1886559
0.1828196
0.1770295
0.1713165
0.1656676
0.160088
0.1545529
0.1490902
0.1436197
0.1382541
0.132902
0.1276859
0.1224303
0.1172539
0.1120968
0.106993
0.1019318
0.09691121
0.09193671
0.08702518
0.08197237
0.07717201
0.07232261
0.06751131
0.06273018
0.05797999
0.05325977
0.0485687
0.04390632
0.03927138
0.03466407
0.03008344
0.02552929
0.02100209
0.01650392
0.01204089
0.007627751
0.003282929
0.6122561
0.5810763
0.5390761
0.5060262
0.4796298
0.4587403
0.4414873
0.4266929
0.4135814
0.401649
0.3905671
0.3801268
0.3701934
0.3606765
0.3515155
0.3426596
0.3340127
0.3256798
0.3175429
0.3095885
0.3018279
0.2942143
0.2867483
0.279494
0.2722998
0.2652503
0.2583216
0.2514578
0.2447887
0.2381983
0.2316946
0.2252965
0.2189972
0.2127685
0.2066183
0.200554
0.194567
0.1886656
0.18282
0.1770349
0.1713225
0.1656766
0.1600959
0.1545611
0.1490825
0.1437084
0.138312
0.1329733
0.1276446
0.1224411
0.1172568
0.112105
0.107001
0.1019397
0.09692088
0.09193995
0.08699712
0.08214516
0.07723342
0.07237793
0.06756489
0.0627833
0.05803288
0.05331255
0.04862134
0.04395854
0.03932359
0.03471591
0.03013512
0.02558099
0.02105362
0.01655511
0.01209227
0.007683173
0.003206006
0.6184864
0.5831525
0.5392962
0.5054004
0.4788687
0.4580661
0.4409411
0.4262535
0.4132188
0.4013395
0.3902955
0.3798849
0.3699763
0.3604801
0.3513334
0.3424882
0.333904
0.3255637
0.3174332
0.3094917
0.3017276
0.2941208
0.2866689
0.2793655
0.2721964
0.2651544
0.2582344
0.2514279
0.2447406
0.2381524
0.2316598
0.2252635
0.2189579
0.2127331
0.206591
0.20053
0.1945475
0.1886424
0.1828022
0.1770262
0.1713165
0.1656704
0.1600836
0.1545482
0.1490698
0.1436458
0.1382708
0.1329438
0.1276652
0.1224421
0.117257
0.1121115
0.1070086
0.1019479
0.0969268
0.09194119
0.08698881
0.08207704
0.0771956
0.07234659
0.06753284
0.06275137
0.05800109
0.05328077
0.04858965
0.04392689
0.03929196
0.0346843
0.03010345
0.02554904
0.0210211
0.01652158
0.01205664
0.00764505
0.003263018
0.6344624
0.5894355
0.540472
0.5044077
0.4773464
0.456527
0.4395495
0.4250439
0.4121791
0.4004443
0.389521
0.3792116
0.3693887
0.3599652
0.3508795
0.3420858
0.3335488
0.3252419
0.3171411
0.3092268
0.301485
0.2939023
0.2864697
0.2791804
0.272026
0.2649985
0.2580919
0.2513001
0.2446182
0.238039
0.2315566
0.2251684
0.2188692
0.212654
0.2065202
0.2004659
0.1944888
0.1885852
0.1827502
0.1769807
0.1712757
0.1656324
0.1600472
0.154517
0.1490406
0.1436175
0.1382461
0.132924
0.1276503
0.1224235
0.1172398
0.1120972
0.1069961
0.1019359
0.09691437
0.09192914
0.08697904
0.08206445
0.07718491
0.07233847
0.06752545
0.06274414
0.05799405
0.05327404
0.04858317
0.04392068
0.03928603
0.03467861
0.03009784
0.02554332
0.02101471
0.01651313
0.01204318
0.007626123
0.003249192
0.6595869
0.5973275
0.5412543
0.502527
0.4748818
0.4541023
0.4374514
0.4233169
0.4107719
0.3992859
0.3885527
0.3783908
0.3686845
0.3593554
0.3503466
0.3416159
0.3331312
0.3248667
0.3168015
0.3089188
0.3012046
0.2936475
0.2862383
0.2789692
0.2718325
0.2648214
0.2579296
0.2511512
0.2444804
0.237912
0.2314405
0.2250622
0.2187722
0.2125668
0.2064422
0.200396
0.1944253
0.1885266
0.1826968
0.176933
0.1712323
0.1655928
0.1600113
0.1544854
0.1490133
0.1435935
0.1382248
0.1329055
0.1276339
0.1224079
0.1172256
0.1120851
0.1069856
0.101926
0.09690493
0.09192082
0.08697266
0.08205941
0.0771806
0.07233537
0.0675228
0.06274194
0.0579921
0.05327249
0.04858194
0.04391978
0.03928539
0.03467833
0.03009771
0.0255432
0.02101431
0.01651134
0.01203858
0.007620406
0.003247165
0.7071879
0.6036146
0.5397582
0.4978166
0.4703342
0.4504595
0.4347629
0.4213399
0.4092708
0.3980983
0.3875798
0.3775728
0.3679839
0.3587467
0.3498119
0.341142
0.3327078
0.3244857
0.316457
0.3086062
0.3009207
0.2933898
0.286004
0.2787562
0.2716387
0.264645
0.257769
0.2510049
0.2443469
0.2377901
0.2313299
0.2249618
0.2186817
0.2124854
0.2063695
0.2003311
0.194367
0.1884743
0.18265
0.1768911
0.1711952
0.1655598
0.1599823
0.1544603
0.148992
0.1435756
0.1382098
0.1328931
0.1276236
0.1223993
0.1172186
0.1120798
0.1069819
0.1019236
0.0969038
0.09192094
0.08697424
0.0820624
0.07718471
0.0723405
0.06752879
0.06274855
0.05799923
0.05328007
0.04858999
0.04392835
0.03929445
0.03468769
0.03010759
0.02555349
0.0210249
0.01652127
0.01204178
0.007599649
0.003187166
0.8040516
0.5972272
0.5322363
0.4909184
0.4654544
0.447218
0.4325989
0.419813
0.4081126
0.3971635
0.3867926
0.376892
0.3673849
0.3582135
0.3493329
0.3407084
0.3323125
0.3241235
0.3161238
0.3082987
0.3006363
0.2931263
0.28576
0.2785296
0.2714281
0.2644488
0.2575859
0.2508337
0.2441869
0.2376404
0.2311898
0.2248306
0.2185587
0.2123702
0.2062618
0.2002301
0.1942721
0.1883848
0.1825655
0.1768114
0.1711198
0.1654882
0.1599143
0.1543958
0.1489309
0.1435177
0.1381547
0.1328404
0.1275728
0.1223503
0.1171714
0.1120343
0.106938
0.1018812
0.09686268
0.09188123
0.08693589
0.08202539
0.0771489
0.07230571
0.06749486
0.06271542
0.05796681
0.05324827
0.0485588
0.04389772
0.03926438
0.0346581
0.03007846
0.02552487
0.0209969
0.01649431
0.01201397
0.00755126
0.003086907
0.8041284
0.5966088
0.5318366
0.4907422
0.4654896
0.4473736
0.432791
0.4199951
0.4082649
0.397281
0.3868774
0.3769492
0.3674208
0.358234
0.3493436
0.3407136
0.3323159
0.3241278
0.3161309
0.3083102
0.3006528
0.2931481
0.2857867
0.2785604
0.2714618
0.2644843
0.2576219
0.2508691
0.2442205
0.2376716
0.2312178
0.224855
0.2185794
0.2123872
0.2062749
0.2002394
0.1942774
0.188386
0.1825626
0.1768044
0.1711089
0.1654738
0.159897
0.1543761
0.1489093
0.1434946
0.1381301
0.1328141
0.127545
0.1223212
0.1171412
0.1120036
0.1069069
0.1018502
0.09683197
0.09185117
0.08690672
0.08199748
0.07712242
0.0722807
0.06747134
0.06269342
0.05794622
0.05322892
0.04854069
0.04388097
0.03924906
0.03464427
0.03006621
0.02551428
0.02098795
0.01648665
0.01200723
0.007544717
0.003077257
0.6890394
0.5986301
0.5389468
0.4986056
0.4716141
0.4517922
0.435961
0.4223516
0.4100997
0.3987677
0.3881174
0.3780043
0.3683314
0.3590284
0.3500424
0.3413329
0.3328682
0.3246226
0.3165762
0.3087125
0.3010176
0.2934799
0.2860893
0.2788372
0.2717157
0.2647179
0.2578374
0.2510684
0.2444053
0.2378432
0.2313777
0.2250044
0.2187194
0.2125187
0.2063986
0.200356
0.1943876
0.1884903
0.1826614
0.1768982
0.1711982
0.165559
0.1599785
0.1544541
0.1489839
0.1435662
0.1381988
0.1328802
0.1276087
0.1223825
0.1172003
0.1120605
0.106962
0.1019034
0.0968836
0.09190125
0.08695523
0.08204449
0.07716807
0.07232507
0.06751441
0.06273525
0.05798689
0.05326847
0.04857919
0.04391847
0.03928564
0.03467989
0.0301009
0.02554805
0.02102062
0.01651736
0.01203666
0.007593688
0.003192464
0.6322218
0.5883286
0.539871
0.5041347
0.4773757
0.4568326
0.4400457
0.4256079
0.4127199
0.4009129
0.389902
0.3795091
0.3696148
0.3601338
0.3510026
0.3421733
0.3336084
0.325279
0.3171613
0.3092365
0.3014895
0.2939065
0.2864765
0.2791898
0.2720378
0.2650132
0.2581089
0.2513188
0.2446368
0.2380578
0.231577
0.2251899
0.2188927
0.2126807
0.2065505
0.2004986
0.1945218
0.1886166
0.1827806
0.1770108
0.1713048
0.1656601
0.1600747
0.1545456
0.1490712
0.1436494
0.1382781
0.132956
0.1276812
0.1224519
0.1172667
0.1121241
0.107023
0.1019621
0.0969402
0.09195592
0.08700796
0.08209523
0.07721685
0.07237205
0.0675597
0.06277895
0.05802903
0.05330915
0.04861847
0.0439564
0.03932222
0.03471523
0.03013493
0.02558098
0.02105272
0.0165511
0.01208063
0.007665684
0.003285134
0.5832812
0.560968
0.5271782
0.4981788
0.4754556
0.4565062
0.4400425
0.4255486
0.4125447
0.4006127
0.3894812
0.3789818
0.3689957
0.3594342
0.3502312
0.341338
0.3327164
0.3243365
0.3161743
0.3082104
0.3004294
0.2928173
0.285362
0.2780536
0.2708832
0.2638437
0.2569271
0.2501268
0.2434366
0.236851
0.230365
0.223975
0.2176761
0.2114637
0.2053341
0.1992832
0.1933079
0.1874052
0.1815715
0.1758045
0.1701022
0.1644617
0.1588807
0.1533564
0.1478868
0.1424691
0.1371028
0.1317862
0.1265169
0.1212927
0.1161119
0.1109739
0.1058776
0.100822
0.09580534
0.09082648
0.08588352
0.08097501
0.07610114
0.07126143
0.06645375
0.06167748
0.05693202
0.05221644
0.0475301
0.04287226
0.03824205
0.03363923
0.02906286
0.02451349
0.01998914
0.0155027
0.01103062
0.006689563
0.001958657
0.5697904
0.5528234
0.5242698
0.4978934
0.4764359
0.4580809
0.4417797
0.4272292
0.4140925
0.4020077
0.3907235
0.3800825
0.3699702
0.3602981
0.3509993
0.3420235
0.3333309
0.3248907
0.3166757
0.3086662
0.3008455
0.2931986
0.2857123
0.2783758
0.2711802
0.2641183
0.2571817
0.2503635
0.2436571
0.2370558
0.2305556
0.2241528
0.2178425
0.2116194
0.2054795
0.1994192
0.1934354
0.1875245
0.1816833
0.1759093
0.1702007
0.164555
0.1589695
0.1534408
0.1479664
0.1425433
0.1371725
0.1318523
0.1265806
0.1213537
0.1161698
0.1110288
0.1059299
0.1008722
0.09585415
0.09087399
0.0859289
0.08101706
0.07614055
0.07129925
0.06648983
0.06171206
0.05696517
0.0522482
0.04756045
0.04290124
0.03826976
0.03366568
0.02908813
0.02453838
0.02001445
0.01553113
0.01105931
0.006722084
0.001965836
0.5609568
0.5469092
0.521905
0.4974123
0.4767693
0.4588524
0.4427655
0.4282656
0.415097
0.402949
0.3915906
0.3808734
0.3706882
0.3609491
0.3515895
0.3425609
0.3338228
0.3253427
0.3170909
0.3090484
0.3011992
0.293527
0.2860157
0.2786544
0.2714401
0.2643605
0.2574082
0.2505787
0.2438571
0.2372418
0.2307301
0.224317
0.2179973
0.2117646
0.2056153
0.1995469
0.1935561
0.1876388
0.1817908
0.1760104
0.1702962
0.1646463
0.159057
0.1535249
0.1480436
0.1426109
0.1372406
0.1319201
0.1266488
0.1214133
0.1162246
0.1110823
0.1059818
0.1009224
0.09590344
0.09092299
0.08597387
0.08105408
0.07618173
0.07134025
0.06652742
0.06174704
0.05699867
0.05228018
0.04759088
0.04293015
0.03829726
0.03369181
0.02911315
0.02456256
0.02003811
0.0155548
0.01107736
0.006739881
0.001940874
0.5563965
0.5437874
0.5206157
0.4971657
0.4769838
0.4593139
0.443356
0.4288916
0.4157063
0.40352
0.392114
0.3813454
0.3711094
0.3613225
0.3519179
0.3428394
0.334078
0.3255729
0.3172977
0.3092354
0.3013713
0.2936888
0.2861748
0.2787786
0.2715578
0.2644686
0.2574969
0.2506898
0.2439572
0.2373313
0.2308135
0.2243963
0.2180738
0.2118359
0.2056802
0.1996073
0.1936143
0.1876963
0.1818457
0.1760621
0.1703454
0.1646945
0.1591068
0.1535812
0.1481012
0.1426197
0.1372542
0.1319354
0.126708
0.1214573
0.1162573
0.1111124
0.1060111
0.1009515
0.0959346
0.09096452
0.08601556
0.08104455
0.07619031
0.07135833
0.06654542
0.06176409
0.05701524
0.05229624
0.04760631
0.04294492
0.03831125
0.03370504
0.02912566
0.02457435
0.02004901
0.0155625
0.0110709
0.006716909
0.001949871
0.5550894
0.5429159
0.5202694
0.497116
0.4770628
0.4594557
0.4435273
0.429069
0.4158778
0.4036808
0.392262
0.3814794
0.3712298
0.3614303
0.3520171
0.342932
0.3341593
0.325645
0.3173636
0.3092946
0.3014246
0.2937302
0.2862192
0.2788282
0.2716013
0.2645172
0.2575279
0.2507088
0.2439849
0.2373636
0.2308435
0.2244237
0.218101
0.2118631
0.2057053
0.1996305
0.1936355
0.1877184
0.1818693
0.1760838
0.1703653
0.1647114
0.159122
0.1535814
0.1481289
0.1426652
0.1372983
0.1319392
0.1266962
0.1214666
0.1162758
0.1111283
0.1060246
0.1009621
0.09594239
0.09095521
0.08603768
0.08108365
0.07621023
0.07136896
0.06655562
0.06177412
0.05702453
0.05230491
0.04761471
0.04295282
0.03831867
0.03371206
0.02913233
0.02458077
0.0200565
0.01557018
0.01109386
0.006686762
0.001918401
0.5563737
0.5437792
0.5206069
0.4971551
0.4769737
0.4593044
0.4433464
0.4288818
0.4156967
0.4035107
0.3921048
0.3813362
0.3711004
0.3613143
0.3519154
0.3428585
0.3340828
0.3255716
0.3172955
0.3092317
0.3013629
0.2936674
0.2861351
0.278782
0.2715554
0.2644717
0.2575145
0.2506548
0.2439403
0.2373268
0.2308096
0.2243919
0.2180691
0.2118319
0.2056779
0.1996062
0.1936141
0.1876975
0.1818486
0.1760653
0.1703485
0.1646957
0.1591029
0.1535579
0.1480815
0.1426869
0.137305
0.1319646
0.126655
0.1214468
0.1162682
0.1111215
0.1060177
0.1009554
0.09593246
0.09093718
0.08599464
0.08111537
0.07621587
0.07136207
0.06655005
0.06176986
0.05702027
0.05230079
0.04761084
0.0429491
0.03831502
0.03370848
0.02912889
0.0245776
0.02005423
0.01557286
0.01110788
0.00674409
0.001906234
0.5609856
0.5469392
0.5219322
0.4974329
0.4767839
0.4588623
0.4427713
0.4282682
0.4150972
0.4029471
0.3915865
0.380867
0.3706797
0.3609384
0.3515781
0.3425459
0.3338045
0.3253201
0.3170676
0.3090243
0.3011719
0.2934943
0.2859832
0.2786275
0.2714126
0.2643342
0.257381
0.250547
0.2438327
0.2372237
0.230714
0.2243023
0.2179832
0.2117509
0.2056026
0.1995357
0.1935475
0.1876339
0.18179
0.1760127
0.1703005
0.1646505
0.1590599
0.1535245
0.1480485
0.1426276
0.137251
0.1319235
0.1266461
0.1214252
0.1162428
0.1110986
0.105997
0.1009361
0.09591394
0.09092769
0.08598212
0.08107394
0.07618973
0.07134372
0.06653375
0.06175441
0.05700551
0.05228703
0.04759779
0.04293665
0.03830311
0.03369703
0.02911776
0.02456642
0.02004223
0.01556039
0.01108672
0.006745323
0.001934968
0.5698275
0.5528549
0.5242964
0.4979146
0.476452
0.4580926
0.4417872
0.4272331
0.4140931
0.4020051
0.3907175
0.3800727
0.3699564
0.3602802
0.3509775
0.3419979
0.3333027
0.3248595
0.3166429
0.3086313
0.3008073
0.2931567
0.2856684
0.2783318
0.2711372
0.264076
0.257141
0.2503248
0.2436222
0.2370259
0.2305302
0.224131
0.2178226
0.2116011
0.2054632
0.1994057
0.1934256
0.1875193
0.1816829
0.1759135
0.1702078
0.1645635
0.1589784
0.1534494
0.147976
0.1425557
0.1371869
0.1318672
0.1265951
0.12137
0.1161891
0.1110497
0.1059513
0.1008927
0.09587281
0.09089062
0.08594483
0.08103478
0.07615803
0.07131468
0.06650433
0.06172537
0.0569776
0.05226042
0.04757229
0.04291184
0.03827941
0.03367418
0.02909561
0.02454426
0.02001957
0.01553635
0.01106467
0.006726224
0.001965743
0.5833219
0.5610047
0.5272112
0.4982084
0.4754807
0.4565267
0.4400578
0.4255589
0.4125503
0.4006134
0.3894766
0.3789715
0.3689793
0.3594117
0.350203
0.3413042
0.3326775
0.3242936
0.316128
0.308161
0.3003761
0.2927603
0.2853037
0.2779956
0.2708259
0.2637872
0.256873
0.2500758
0.2433901
0.2368093
0.2303295
0.2239453
0.2176503
0.2114409
0.2053145
0.1992674
0.1932963
0.1873976
0.1815695
0.1758088
0.1701106
0.1644725
0.1588933
0.1533701
0.1479017
0.1424849
0.1371204
0.131806
0.1265379
0.121315
0.1161365
0.1109999
0.1059041
0.100847
0.09582939
0.09085078
0.08590718
0.08099786
0.07612277
0.07128092
0.06647179
0.0616934
0.05694689
0.05223206
0.04754534
0.04288574
0.03825431
0.03364988
0.02907202
0.02452008
0.0199942
0.01550835
0.01103577
0.006692883
0.001959367
0.6147756
0.5835079
0.5396795
0.5056166
0.4793287
0.4586707
0.4415528
0.4267887
0.4136313
0.4016075
0.3904243
0.3798967
0.3698979
0.360336
0.3511422
0.3422646
0.3336624
0.3253039
0.3171638
0.3092215
0.3014598
0.2938651
0.2864269
0.2791355
0.2719805
0.2649539
0.2580498
0.2512611
0.2445816
0.238005
0.2315276
0.2251455
0.2188524
0.2126441
0.2065177
0.2004701
0.1944975
0.188596
0.1827638
0.1769993
0.1712976
0.1656558
0.1600726
0.1545457
0.1490732
0.143652
0.1382818
0.1329625
0.12769
0.1224619
0.1172778
0.1121359
0.1070349
0.1019727
0.09694945
0.09196524
0.08701695
0.08210288
0.07722315
0.07237688
0.0675633
0.06278015
0.05802818
0.0533081
0.04861677
0.04395289
0.03931704
0.03470832
0.03012652
0.0255699
0.02103932
0.01654005
0.0120705
0.007665496
0.003235073
0.6558118
0.594857
0.540337
0.5020681
0.474897
0.4544906
0.4380419
0.4239485
0.4113471
0.399763
0.3889252
0.3786685
0.3688827
0.3594894
0.3504299
0.3416595
0.3331435
0.3248553
0.3167728
0.3088781
0.3011569
0.2935968
0.2861885
0.2789219
0.2717887
0.2647817
0.2578946
0.2511209
0.2444549
0.2378912
0.2314258
0.2250537
0.2187697
0.2125701
0.2064517
0.200411
0.1944447
0.1885493
0.1827233
0.1769633
0.1712656
0.165628
0.1600486
0.1545251
0.1490555
0.1436376
0.1382707
0.1329531
0.1276817
0.1224554
0.1172731
0.1121328
0.1070331
0.1019727
0.09695139
0.09196779
0.08702001
0.0821069
0.07722802
0.07238257
0.06756934
0.06278725
0.05803663
0.05331667
0.04862525
0.04396196
0.03932669
0.03471848
0.03013683
0.02558084
0.02105096
0.01654684
0.01206939
0.007642775
0.00326701
0.743443
0.6002957
0.5377161
0.4967091
0.4703854
0.4510653
0.4355333
0.4220671
0.4098745
0.3985664
0.3879279
0.3778229
0.3681567
0.3588594
0.3498782
0.3411724
0.3327107
0.324468
0.3164246
0.3085639
0.3008725
0.293339
0.2859536
0.2787073
0.2715925
0.2646021
0.2577298
0.2509696
0.2443157
0.2377634
0.2313078
0.2249443
0.2186688
0.2124772
0.2063659
0.2003317
0.1943713
0.1884816
0.1826601
0.1769038
0.1712099
0.1655762
0.1600003
0.15448
0.1490133
0.1435985
0.1382338
0.1329176
0.1276479
0.1224232
0.1172422
0.1121033
0.107005
0.1019463
0.09692605
0.09194301
0.08699595
0.08208388
0.07720589
0.07236113
0.06754865
0.06276757
0.05801744
0.05329727
0.04860606
0.04394331
0.03930837
0.03470052
0.03011926
0.02556409
0.02103461
0.01652987
0.01204627
0.007585652
0.003175338
0.8523155
0.5910691
0.5264992
0.4869766
0.4632622
0.4460013
0.4318242
0.4192498
0.4076635