/*--------------------------------*- C++ -*----------------------------------*\
| =========                 |                                                 |
| \\      /  F ield         | OpenFOAM: The Open Source CFD Toolbox           |
|  \\    /   O peration     | Version:  v1912                                 |
|   \\  /    A nd           | Website:  www.openfoam.com                      |
|    \\/     M anipulation  |                                                 |
\*---------------------------------------------------------------------------*/
FoamFile
{
    version     2.0;
    format      ascii;
    class       surfaceScalarField;
    location    "2.5";
    object      phi;
}
// * * * * * * * * * * * * * * * * * * * * * * * * * * * * * * * * * * * * * //

dimensions      [0 3 -1 0 0 0 0];
oriented        oriented;


internalField   nonuniform List<scalar> 
25162
(
0.0004263615045
0.9162236385
0.0005216085353
0.916604753
0.000606611209
0.9165649973
0.0002976514628
0.9165887082
0.0003702514992
0.4583379887
0.0003096627867
0.4583070928
0.0003832755348
-0.0003903683525
-0.0004875637398
0.4582821226
0.0005554411012
-0.0006213324482
0.4582293253
0.0007270071234
-0.0008430065254
0.4582034673
0.0009695392525
-0.001115394073
0.4581770978
0.001273296309
-0.001434244404
0.458173134
0.001596110434
-0.001755369941
0.4582009962
0.001885873712
-0.001990313478
0.4582668423
0.002056971179
-0.002079789057
0.4583552979
0.002059491143
-0.001998690823
0.4584306021
0.001898088757
-0.001777217148
0.4584726492
0.001639567971
-0.001483246574
0.4584819642
0.001336282373
-0.001188801213
0.4584874618
0.001016339369
-0.0009419066906
0.4584595488
0.0008323578615
-0.000689138569
0.458466743
0.0005723956252
-0.001609119213
0.918691577
9.09369547e-05
-0.0005233947145
-0.001005659567
0.9187465404
3.385436367e-05
0.9158104861
0.9138338544
0.001171457525
0.915052181
0.001846674436
0.9159295361
0.002084575348
0.9163270964
0.0005851444172
0.9171248878
0.0009632513961
0.4580755169
0.0007056102372
-0.4581959827
-0.458176525
-0.0008746662837
0.4579629279
0.001088263332
-0.4580260593
-0.001354581336
0.457703113
0.0007888717524
0.0008886558509
-0.2289486093
-0.0009646903352
0.2288626324
0.001050667241
-0.001422441726
-0.2288811572
0.2287666684
0.001536930554
-0.002011235375
-0.2288214771
0.2286707733
0.002161939167
-0.00271498031
-0.2288026431
0.2286335268
0.002884096699
-0.003425499036
-0.2288531727
0.2287488089
0.003529761622
-0.003384750489
-0.2290051213
0.2288196673
0.003570374721
-0.004162193778
-0.2291958672
0.2291648448
0.004193216188
-0.003999881618
-0.2293270823
0.2294052407
0.003921723255
-0.003524168896
-0.2294101012
0.2295622001
0.003372070008
-0.002884402548
-0.2294262329
0.2296015904
0.002709045043
-0.002242656265
-0.2293954904
0.2295566412
0.002081505436
-0.4588918781
-0.003213483046
0.4603431939
0.001762167172
-0.0004343787263
0.4609781305
-0.001269586222
-0.4592741656
-0.001400754113
0.9183152859
0.000266797535
0.001510247652
-0.0008545145951
0.9182003008
0.0004199381522
0.9145360333
0.9142537925
0.001475338059
0.9135768429
0.003982119079
0.913422755
0.006761094983
0.9135481205
0.002762606192
0.9149203825
0.00620299406
-0.4580250634
0.4578543296
0.00293334007
-0.4577730978
-0.002918436416
0.4584143388
0.00227719545
-0.4572636696
-0.002371849871
0.4570142431
0.001269143946
0.001352132406
-0.2284457721
-0.001588377874
0.2282647131
0.001769436832
-0.2281906885
-0.002423816438
0.2279349075
0.00267959742
-0.2280125297
-0.002782863283
0.2317135136
-0.0009292093342
-0.235128631
0.01369975771
0.2385755626
-0.01719660386
-0.2338409872
0.02481202883
0.2353396052
-0.0263470605
-0.2276101551
0.02797911938
0.2271784028
-0.02754119505
-0.2222590098
0.02327762743
0.2199386081
-0.02091308922
-0.2235950663
0.01110494782
0.2195686208
-0.007033183817
-0.2302662435
-0.005811236175
0.2297537226
0.006325886607
-0.2303658991
-0.005331660641
0.2307080726
0.004989487141
-0.003731192893
-0.2302982119
0.2309808805
0.003048524325
-0.4629976585
-0.000351700777
0.461873585
0.001475774331
-0.4601076268
-0.001569267382
0.460142195
0.001534699229
0.000535329054
0.9202714391
-0.001437688868
-0.001053793327
0.001848697053
0.9168869328
0.0008639452513
0.9155207851
0.9151177378
0.0004596706746
0.9131171722
0.001021024295
0.9128614014
0.002192855952
0.9123762889
0.003088790398
0.9119873328
0.002037115291
-0.4571016379
0.4566805073
0.00350992095
-0.4599517226
-0.004716718209
0.4569008124
0.007767628459
-0.4584738057
-0.009035426639
0.460013536
0.002066112064
0.005429584309
-0.2276004477
-0.002062303437
0.2273907216
0.002272029608
-0.2291205999
-0.001677938643
0.233900893
-0.003129956272
-0.2452122185
0.01684276111
0.2490275877
-0.02078089422
-0.2470298164
0.02973611823
0.2488537945
-0.0316890747
-0.2382552925
0.03479936144
0.2384924454
-0.03510603596
-0.225898028
0.03476119503
0.225516005
-0.03436428036
-0.2144938542
0.0322437091
0.2134510711
-0.03110636771
-0.2091361152
0.02557525925
0.2065829139
-0.02288393831
-0.2157158527
0.01220254808
0.2115467307
-0.007925513785
-0.2343209257
-0.001281224643
0.2367590025
-0.001152096098
-0.004048236641
-0.2318937146
0.2319298378
0.004012113476
-0.4619319357
-0.006161600609
0.4632295582
0.004863978126
-0.4609238964
-0.003573996039
0.4619869354
0.002510956986
0.003463199859
0.9204805168
-0.001936837642
-0.001735439968
0.002378505655
0.9179716271
0.001102645979
0.9167966448
0.9162203838
5.406691834e-05
0.9130631053
0.0001685681656
0.9127469002
0.0004534984239
0.9120913586
0.001140978071
0.910975903
0.0003239501706
-0.4564173378
0.4556125901
0.001945725793
-0.4554707862
-0.002372266772
0.4548364932
0.003006559744
-0.4539065572
-0.003881670751
0.4531121181
0.002484268961
0.002191840921
-0.2280081471
-0.004330023835
0.2266384735
0.005697841687
-0.2473803795
0.002405144927
0.2530115236
-0.008185454966
-0.2570673323
0.0202692207
0.2585091625
-0.02192778244
-0.2502071314
0.02281622138
0.2491214217
-0.02190230779
-0.2361988017
0.01688868056
0.2342203387
-0.01498570355
-0.22460366
0.01098932693
0.2243434665
-0.01071200106
-0.2135915772
0.01278513782
0.2150753893
-0.01415746691
-0.2029898753
0.01803525319
0.2034638425
-0.01831041627
-0.2127842828
0.02664780881
0.2051587117
-0.018808266
-0.2176566373
0.00572523328
0.2140983684
-0.002047867648
-0.005883261463
-0.2334013629
0.2339895673
0.005295057071
-0.4649934654
-0.007216147668
0.4666982796
0.005511333453
-0.4630097661
-0.004260857726
0.4640696607
0.003200963172
0.004288671319
0.9226516674
-0.003604312082
-0.002855509779
0.002389201974
0.9198710964
0.001089758267
0.9180960885
0.917310142
-0.000247217908
0.9133103232
-0.0003883700705
0.9128880524
-0.0002691255389
0.9119721141
7.687952376e-05
0.9105860554
4.384252874e-05
-0.45474437
0.454439344
0.0003819055031
-0.4543221055
-0.001342702988
0.4535516607
0.002113147779
-0.4522671236
-0.002675470646
0.4512286896
0.001829533027
0.00188437163
-0.2345184942
0.000158661956
0.2370181867
-0.002736572146
-0.2562143195
0.009306016543
0.2574659353
-0.01080031339
-0.2588430313
0.01006360499
0.2560955555
-0.007581830663
-0.2410561775
-0.00261258429
0.2407424426
0.002772392336
-0.2242803467
-0.01729214736
0.2207210104
0.02081526971
-0.2232025555
-0.03108081204
0.2228130285
0.03147380073
-0.2259490435
-0.02083115528
0.2299969376
0.01684693702
-0.2163636009
0.002043646317
0.2178336311
-0.003314138153
-0.1997259939
0.005870070811
0.2005285383
-0.006399655113
-0.2067679863
0.004550600206
0.2055171775
-0.003079063172
-0.00333464095
-0.2329431361
0.231477549
0.004830017821
-0.4682168365
-0.007480814766
0.4697585469
0.005939104308
-0.464742598
-0.004784096524
0.4653724688
0.004154225733
0.003625924186
0.9252184461
-0.00299051742
-0.003202185481
0.002006437816
0.9214905828
0.0008456282358
0.9192568981
0.9181557703
-0.0006871812623
0.9139975045
-0.00123520717
0.9134360783
-0.001612037309
0.9123489442
-0.0003129898215
0.9103671382
-0.001080130292
-0.4543239844
0.4540284886
-1.749404021e-05
-0.4524998402
-0.0002100960413
0.4521293341
0.0005806021411
-0.4508212477
-0.001564985354
0.4505301156
0.0009563073634
0.0008988114201
-0.2415072536
0.001757133981
0.2426149056
-0.003011492026
-0.2608460276
0.005315493994
0.2574883783
-0.002262213747
-0.2498860831
0.0003507127457
0.2478157533
0.001455568428
-0.22352038
-0.01132593309
0.2175123234
0.01724426387
-0.208979788
-0.0366393109
0.1061092876
0.1003519619
0.01741777822
0.02174007121
-0.02681613461
-0.1087834276
0.1081942858
0.02740527643
-0.02180643941
-0.2486450037
0.04149656733
-0.02221978975
0.1251600994
0.1260145661
-0.02484251618
-0.228862229
0.2345798064
0.01925703462
-0.206378727
-0.008457223233
0.2104348614
0.004688843768
-0.2055393609
0.0009940736933
0.2056641846
-0.0008370630559
-0.001452035781
-0.2255101344
0.2244520289
0.002618553425
-0.4713049485
-0.006397429609
0.4723121941
0.005390184089
-0.4664420178
-0.004112687778
0.4674909194
0.003063786211
0.002177190368
0.9270673557
-0.001875139792
-0.002150960226
0.001057566928
0.9226102062
0.0004085663399
0.9199058987
0.9185643366
-0.001149536248
0.9151470408
-0.002236921538
0.9145234636
-0.003111235267
0.913223258
-0.001645731069
0.911143415
-0.002241780955
-0.4540240242
0.4540483012
-0.001670008134
-0.4519677616
0.00174097752
0.4518799241
-0.001653139996
-0.449656118
0.001487153903
0.4499661524
-0.0006492538675
-0.001164314441
-0.2435534936
0.0002618793569
0.2431670805
-5.78919988e-05
-0.2553092229
-0.001235002523
0.2544834358
0.001740914247
-0.2415991135
-0.004428952599
0.2401451642
0.005628701208
-0.2073714752
-0.00976466761
0.2058700422
0.0112359554
-0.09325976549
-0.007353916174
0.09319879302
0.007414888639
-0.02921061997
-0.1376655988
0.1403995297
0.02647668908
-0.02912997416
-0.2527329911
0.2577734698
0.02415988636
-0.2184572483
-0.01401359138
0.2210853321
0.01166415422
-0.2085634461
-0.006617734634
0.2100535686
0.005442045703
-0.0007901681906
-0.2237320382
0.2235912202
0.001089602284
-0.473664959
-0.003851747626
0.4747642439
0.002752462723
-0.4683188498
-0.001990750136
0.468998378
0.001311221942
-0.0001558388677
0.9279348232
-4.177053127e-05
-0.0006698581312
-0.0003619114718
0.9228162788
-0.0002429459068
0.9197869331
0.9183213907
-0.00160819301
0.9167552338
-0.003137398498
0.9160526691
-0.004723063498
0.914808923
-0.002770587972
0.9125529278
-0.003361988355
-0.454289026
0.4545198637
-0.003001425648
-0.4519773383
0.00326287716
0.4522165879
-0.003502126737
-0.4501266521
0.003713323153
0.4505868793
-0.002001106244
-0.002208129602
-0.2427611763
0.002360651529
0.2424005439
-0.002206339741
-0.2512313414
0.0008974619644
0.2502490819
-0.0002518815962
-0.2363765566
-0.001791338961
0.2355580234
0.002357726579
-0.2050461182
-0.003019743741
0.2054454999
0.002606808356
-0.09683937292
0.0004227392972
0.09740101006
-0.0009843764411
-0.01304926685
-0.1534153278
0.1540412368
0.0124233579
-0.01611204726
-0.2691927716
0.2712613307
0.01408390765
-0.2287767808
-0.008639332174
0.2306316387
0.007058936539
-0.2142922395
-0.003084006656
0.2155539126
0.002157322052
-0.0004013554482
-0.2247506355
0.225133251
0.0002007463276
-0.4760474652
-0.0002182621418
0.4770287429
-0.0007630155614
-0.4693265079
0.001195714307
0.469477726
-0.001346932502
-0.002956317689
0.927306503
0.002078496069
0.00150614182
-0.002090387751
0.9219503489
-0.00108729367
0.918783839
0.917234097
-0.002030901365
0.9187861352
-0.004167365639
0.9181891333
-0.006230066359
0.9168716237
-0.003895963992
0.9147176616
-0.004498836186
-0.4549733649
0.4554221925
-0.004344791634
-0.4525493183
0.004854463198
0.45312201
-0.005427154882
-0.4511854716
0.005970198835
0.4521423568
-0.003288208151
-0.003693787518
-0.2413360495
0.003784224966
0.2410475342
-0.003719434531
-0.2476569577
0.002885570898
0.2469000108
-0.002480105887
-0.2338165424
0.001361332777
0.2333602715
-0.001159898171
-0.2072027943
0.001529852939
0.2078301777
-0.002165099627
-0.1000873586
0.002425702905
0.100360369
-0.001334311788
-0.00136440148
0.004520313459
-0.1520897818
0.151173966
-0.00360449766
0.0009904426346
-0.271488031
0.2701501145
0.0003915462682
-0.2333093223
-0.001822264773
0.2337185885
0.001694003712
-0.2189488862
-0.000477694535
0.2198371494
-6.97648595e-05
0.001523726604
-0.2271508429
0.2276996297
-0.001888732252
-0.4769522352
0.004736683376
0.4763338713
-0.004118319471
-0.4692227216
0.003874654898
0.4694462462
-0.004098179523
-0.006037826908
0.9251154117
0.00447241057
0.003756507643
-0.003954968615
0.9198674906
-0.001995432194
0.9168243026
0.9152386648
-0.002537095945
0.9213232311
-0.005060218667
0.9207122561
-0.007716984811
0.9195283898
-0.00498801489
0.9175580199
-0.005569328199
-0.4560795768
0.4567333519
-0.005641790011
-0.4537791973
0.006431342299
0.4545128277
-0.007164972691
-0.4534476295
0.008008674186
0.4550023127
-0.004714557075
-0.004931657038
-0.2402923226
0.005090713819
0.2400681889
-0.005110227739
-0.2448593362
0.004641875856
0.2442433264
-0.004393039862
-0.2322891171
0.003838452525
0.2320138177
-0.003819372604
-0.2097872233
0.004576640208
0.2104611361
-0.005253597169
-0.1019471764
0.003685106868
0.1021252745
-0.001916577083
-0.001946627854
0.01420127911
-0.1429736453
0.1416689614
-0.01289659515
0.01317706084
-0.2629543347
0.2596913864
-0.009836989794
-0.232744846
0.00311366433
0.2334948871
-0.003570741659
-0.2219252179
0.003313463685
0.2224876785
-0.003534096498
0.004532623896
-0.2298897136
0.2303565722
-0.004834482885
-0.4753027267
0.009386504197
0.4739121748
-0.007995952356
-0.4694895538
0.006775498628
0.4683898338
-0.005675778637
-0.008878901818
0.9216214852
0.006439447369
0.005933380987
-0.005750113642
0.9167387024
-0.002823785518
0.9138979745
0.9124148793
-0.002998120609
0.9243213517
-0.006012617209
0.9237267527
-0.009149762245
0.9226655349
-0.005979156513
0.9207208577
-0.006333443553
-0.4575623635
0.4583751088
-0.006791901789
-0.455460037
0.007729271173
0.456461678
-0.008730912131
-0.4565541706
0.009819986364
0.4579182768
-0.005742646067
-0.005558529172
-0.2394578689
0.006230592399
0.2392819939
-0.006320103034
-0.2425509741
0.006104453825
0.2420314293
-0.0059675562
-0.2313878242
0.005750611254
0.2312302743
-0.005848539535
-0.2126268083
0.006922590504
0.2134197809
-0.007715853229
-0.1032806434
0.004967908467
0.1034517862
-0.00254978403
-0.002589267282
0.01766514092
-0.132816648
0.131539881
-0.01638837387
0.01868164583
-0.250199441
0.24704117
-0.01539241984
-0.2312364521
0.01041390611
0.2288009352
-0.007656459103
-0.2234660715
0.005262092505
0.2235280431
-0.004995309276
0.007054339127
-0.231711177
0.2320048799
-0.007219045209
-0.4722276274
0.0131330937
0.4702769635
-0.01118242979
-0.4671957143
0.009493798047
0.4657477514
-0.008045835209
-0.01137184786
0.9186395568
0.007473628775
0.006880147524
-0.007298956212
0.9126658108
-0.003541232372
0.9101402507
0.908873647
-0.007099774049
0.9314211258
-0.0143709662
0.9309979449
-0.0217327391
0.9300273078
-0.007039569792
0.9284978215
-0.02247013303
-0.4593832711
0.4603940233
-0.008050321917
-0.4575050253
0.009152818205
0.4587384436
-0.01038623644
-0.4600179662
0.01161054776
0.4615305382
-0.006724101473
-0.006598877431
-0.2385465803
0.007673627163
0.2385899635
-0.008009233209
-0.2405395523
0.007275741546
0.2398855298
-0.007017389777
-0.2309013358
0.006511704801
0.2313077106
-0.007173768266
-0.2160880601
0.008659298474
0.2170593864
-0.004788266536
-0.004842358275
-0.05253648598
0.003168343793
0.05259834516
-0.003230202971
-0.05817598862
0.006503818347
0.05768593555
-0.01266366122
0.006649895941
0.01620064823
-0.1239474338
0.2443840118
-0.02855438091
0.01581686684
-0.1238997121
-0.2392032945
0.01848862001
0.2358082147
-0.01490001818
-0.2260848062
0.01103402731
0.2256594397
-0.01025259748
-0.2243431481
0.009541062402
0.2246643709
-0.009548649806
0.009566813721
-0.2330657457
0.2329901747
-0.009419490324
-0.4679957324
0.01552068362
0.4657206374
-0.01324558857
-0.4642468678
0.01147981784
0.4626288893
-0.009861839292
-0.01328524277
0.9144641143
0.008959751583
0.008500933784
-0.008534662997
0.907915231
-0.004190864291
0.905796452
0.9046827827
-0.00356665116
0.934987777
-0.007224226738
0.9346555205
-0.01106892395
0.933872005
-0.007510578309
0.9326382762
-0.007698800301
-0.4634303502
0.4645024767
-0.008582704816
-0.4617687444
0.009773435292
0.4630429302
-0.01104762103
-0.463560338
0.01242940598
0.4638829543
-0.006511580215
-0.006471666254
-0.238044744
0.006359945692
0.2375703013
-0.006192444306
-0.2386700833
0.005647919238
0.2381925111
-0.005570028848
-0.2308781231
0.00614695097
0.2312089468
-0.006716569769
-0.2205817521
0.009805901642
0.2216706857
-0.005433807534
-0.005461027722
-0.05441560212
0.007508389449
0.1092279118
-0.0543600259
-0.003969021787
-0.003991651422
-0.1120375315
0.008865173546
0.1119483108
-0.01739731803
0.008621365173
0.02814659786
-0.2374438962
0.2351137204
-0.02580766887
-0.2299655471
0.01477618917
0.2290171749
-0.01357133723
-0.2256578745
0.0117836287
0.224920201
-0.01068225697
-0.2256781454
0.009546165349
0.2269920169
-0.01060233886
0.01048320832
-0.2331212307
0.2327155621
-0.01006700418
-0.4637051052
0.01635513648
0.4618969568
-0.01454698804
-0.4609967231
0.01281061198
0.459134348
-0.01094823685
-0.01284733706
0.9094361194
0.008871815576
0.00900351639
-0.009302078361
0.9043699724
-0.00454665538
0.9010410291
0.9001361273
-0.003745790215
0.9387335672
-0.007582140101
0.9384918703
-0.01160212058
0.9378919855
-0.007883166439
0.9369361076
-0.008016785634
-0.4656682454
0.466818233
-0.00903315402
-0.4643425626
0.01027463173
0.4656576133
-0.0115896824
-0.4641109289
0.01300388341
0.4647048224
-0.006760752452
-0.006921143533
-0.2358661715
0.006369226514
0.2352933893
-0.006055232911
-0.2365875191
0.00508309155
0.236008585
-0.004881888444
-0.232283705
0.005156483252
0.2325118042
-0.00565922846
-0.2257038955
0.008684500705
0.2271816493
-0.01021944649
-0.1123158877
0.01427751304
0.2238882378
-0.0139382767
-0.1119115865
-0.2264577291
0.02011922932
0.2270495731
-0.02071107338
-0.2298909857
0.01886042431
0.228842661
-0.01770897911
-0.226179116
0.01491661179
0.225888183
-0.01431209062
-0.2239126285
0.01342559392
0.2242114213
-0.01335075466
-0.2271363976
0.01329715964
0.2267007934
-0.01266785196
0.0121218976
-0.2321430112
0.2297613803
-0.0097402668
-0.4602992853
0.01790517592
0.4570547361
-0.01466062672
-0.4572633851
0.01307923688
0.4551601127
-0.01097596443
-0.01324625493
0.9045304504
0.009150162411
0.009001761539
-0.009372338206
0.9004960557
-0.004762586146
0.896431277
0.8953735412
-0.003836069899
0.9425696371
-0.007755116868
0.9424109173
-0.01183960324
0.9419764719
-0.008056413891
0.9412739665
-0.008121048158
-0.467988832
0.4691588422
-0.009226424097
-0.4669700724
0.01046875403
0.4682727295
-0.01177141118
-0.4658748618
0.01315887834
0.4673482444
-0.007318941263
-0.007313505651
-0.2339523461
0.00745974566
0.2337163115
-0.007380319219
-0.2342745202
0.006841001441
0.2337769552
-0.006653464987
-0.2325422843
0.006453214028
0.2323789072
-0.006577493579
-0.2298970963
0.007661149662
0.2303167098
-0.008234352093
-0.2232472933
0.01009324971
0.2229783332
-0.009857807082
-0.2278100472
0.01292673288
0.228125788
-0.0131895069
-0.2276110612
0.01316043885
0.2276641499
-0.01302822428
-0.2260462638
0.01270874462
0.2263347029
-0.01268811771
-0.2253795327
0.01286447549
0.2257628902
-0.01295174123
-0.2270105056
0.01301407547
0.2269936049
-0.01289217062
0.011401491
-0.2277527084
0.2271373715
-0.01078615414
-0.4562308704
0.01804614237
0.4534764591
-0.01529173109
-0.4522546725
0.01183943983
0.4506334981
-0.01021826542
-0.0123885264
0.8982116635
0.009606346065
0.009100967219
-0.006940729108
0.8950482584
-0.004809260423
0.8942998083
0.8905642808
-0.003845324891
0.946414962
-0.007762446173
0.9463280386
-0.01181888514
0.9460329109
-0.008053071096
0.9455435264
-0.008035374002
-0.4703074057
0.4714534016
-0.009199067062
-0.4695499339
0.01040258538
0.4707981523
-0.01165080384
-0.4687828939
0.01296313019
0.4701627908
-0.007198610134
-0.007144417039
-0.2339503409
0.007929309881
0.2343546278
-0.008354296165
-0.2329278451
0.009302838832
0.2329484955
-0.009510353766
-0.2318017384
0.009965242009
0.2317085939
-0.01010142811
-0.2308000406
0.01059971492
0.2308576628
-0.01081832268
-0.2217397178
0.01118280025
0.221189208
-0.01067851976
-0.2291777525
0.01292868788
0.229496902
-0.0131727846
-0.2284193344
0.01366450799
0.2287023507
-0.01376036999
-0.2273111969
0.01387435285
0.2275347254
-0.01385944697
-0.226460688
0.01360523315
0.2264455465
-0.01342570057
-0.2262005276
0.01246475033
0.2256978409
-0.01196115182
0.01044989216
-0.2254970909
0.225000242
-0.009953043232
-0.44974996
0.0169231959
0.4480069462
-0.01518018214
-0.4490393378
0.0135179801
0.4474319612
-0.01191060348
-0.01149163622
0.8910657552
0.01019588948
0.008441655079
-0.006502124984
0.8900587471
-0.004424341689
0.8922220251
0.8861399391
-0.00378712351
0.9502020855
-0.007632693041
0.9501736082
-0.01158668111
0.9499868989
-0.007895995739
0.9496628427
-0.007810001683
-0.4725617368
0.4736556493
-0.008989908229
-0.4720060556
0.01012837678
0.4731736148
-0.01129593598
-0.471481132
0.01250607563
0.4727332777
-0.006920986359
-0.006837234946
-0.235442964
0.007571777716
0.2357741884
-0.007903002086
-0.2341420671
0.009153528119
0.2349149601
-0.009959930311
-0.2321777127
0.01204454952
0.2326418688
-0.01262206082
-0.2312446167
0.01403639739
0.231525931
-0.01441958895
-0.2194408598
0.01450370388
0.2189466335
-0.01403966425
-0.2301627357
0.01601693946
0.230262147
-0.01605817157
-0.2291249371
0.01583563789
0.2290536799
-0.01564430873
-0.2274585457
0.01469868492
0.227131672
-0.01426158363
-0.2254243708
0.01259084262
0.224913483
-0.01206792475
-0.2243754692
0.01097976465
0.2239933928
-0.0105976883
0.009427147705
-0.2236903547
0.2232937419
-0.009030534842
-0.4463982093
0.01556541202
0.4449188497
-0.01408605251
-0.4459506523
0.01264054747
0.4445241013
-0.01121399652
-0.01424109918
0.885914614
0.009566296861
0.009825943463
-0.009350990018
0.885168638
-0.001810291685
0.8846813267
0.8843296474
-0.003675070707
0.9538771562
-0.007394167963
0.9538927054
-0.01118943706
0.953782168
-0.007617796306
0.9535739697
-0.007482767762
-0.4747052667
0.4757325072
-0.008645036788
-0.4742927192
0.009703959212
0.4753661167
-0.01077735681
-0.4739177164
0.01187456488
0.4750352591
-0.006547382611
-0.006444725017
-0.2366976705
0.007117707243
0.2369833263
-0.007403363017
-0.2360655609
0.008257160656
0.2363477373
-0.008539337037
-0.2349144278
0.00936892046
0.2352513132
-0.009707468151
-0.232948298
0.01189621445
0.2335940097
-0.0125633593
-0.2181770615
0.01299831732
0.2181983078
-0.01302782946
-0.2301852438
0.01448541115
0.2300541912
-0.01433542573
-0.2281329514
0.01329599324
0.2276262615
-0.01276796623
-0.225536548
0.0114979868
0.2253698931
-0.01133133198
-0.2240592785
0.01070437616
0.2238139442
-0.01045904188
-0.2229894834
0.009640868548
0.2226957173
-0.009347102529
0.008426290876
-0.2222457382
0.2219239238
-0.008104476463
-0.4435594666
0.01412663334
0.4423110998
-0.01287826661
-0.443220567
0.01163308407
0.4419697788
-0.01038229585
-0.01330903978
0.8812340691
0.008843856153
0.00914572856
-0.008783397866
0.8806429961
-0.004360706944
0.8802586358
0.8799689405
-0.003523117054
0.9574002733
-0.007076291123
0.9574458795
-0.01067545445
0.9573813314
-0.007255959893
0.9572436095
-0.007089134339
-0.4767120945
0.4776650227
-0.008208888094
-0.4763882656
0.009182197052
0.4773636771
-0.01015760853
-0.4760874989
0.01114099691
0.4770746901
-0.006114399643
-0.006013788445
-0.2377759765
0.00661448731
0.2380206917
-0.006859202508
-0.2371141066
0.00757496581
0.2373452526
-0.007806111877
-0.2359638272
0.008470243612
0.2361743579
-0.008680774266
-0.2344876354
0.009271618043
0.2346454467
-0.009429429403
-0.2186433808
0.009053987478
0.2188333699
-0.009243976505
-0.2298951148
0.010272819
0.2299188495
-0.01029655367
-0.2272621751
0.01024592315
0.2272046802
-0.01018842826
-0.2249305757
0.009903115105
0.2248006435
-0.009773182871
-0.2231693233
0.009289686224
0.2229800106
-0.009100373557
-0.22191441
0.008463191734
0.2216827789
-0.008231560588
0.0074937758
-0.2210766174
0.22081274
-0.007229898391
-0.4411633356
0.01271844883
0.4401066063
-0.01166171954
-0.4408316025
0.01059097021
0.4397393557
-0.009498723345
-0.01228129701
0.8770241947
0.008089885508
0.008401285848
-0.00814225813
0.8765039572
-0.004052982074
0.8761693598
0.8759159584
-0.003344718084
0.9607449914
-0.006706995595
0.960808157
-0.01008880871
0.9607631445
-0.006841921964
0.9606558113
-0.006659088562
-0.4785694708
0.4794476987
-0.0077201499
-0.4782887104
0.008608237841
0.4791691193
-0.009488646687
-0.4780000555
0.01036524143
0.4788671104
-0.005659999447
-0.005572296937
-0.2386991369
0.006100526534
0.2389086715
-0.006310061185
-0.2379747096
0.006911566569
0.2381652682
-0.007102125236
-0.2367383115
0.007640498481
0.2369065178
-0.007808704763
-0.2350228185
0.008262749453
0.2351200415
-0.008359972427
-0.2195902268
0.007965049951
0.2198889361
-0.008263759269
-0.2299560531
0.008972420001
0.2299590487
-0.008975415536
-0.2270370213
0.008898795773
0.2269824874
-0.008844261931
-0.2244490483
0.008600196681
0.2243425238
-0.008493672186
-0.2224731143
0.008104105744
0.2223215051
-0.007952496469
-0.2210592416
0.007440925535
0.220872109
-0.007253792952
0.006651873669
-0.2201200096
0.2199021941
-0.006434058107
-0.4391313665
0.01139882511
0.438230788
-0.01049824656
-0.4387476174
0.009575141698
0.4377942034
-0.008621727772
-0.0112303986
0.8732580114
0.007345315603
0.007651266277
-0.007474101725
0.8727476603
-0.003728696134
0.8724239542
0.8721872622
-0.003150930521
0.9638959219
-0.006308784517
0.963966011
-0.009464545619
0.9639189056
-0.006401653395
0.9638089017
-0.006215982632
-0.4802765678
0.4810821478
-0.007207233389
-0.4800021837
0.008013921487
0.4807940132
-0.008805751
-0.4796792369
0.009585586633
0.4804401276
-0.00521021349
-0.005136263875
-0.2394899911
0.005598480222
0.2396698322
-0.005778321317
-0.2386866031
0.006286612868
0.2388452049
-0.006445214652
-0.2373611838
0.00688805751
0.2374979692
-0.007024842912
-0.2353387598
0.007373859814
0.2353901518
-0.007425251817
-0.2208684935
0.007066871944
0.221211856
-0.007410234463
-0.2299464709
0.007889728233
0.2299363148
-0.00787957218
-0.2268223896
0.007786421354
0.226770113
-0.007734144683
-0.2240485886
0.007518286229
0.223957987
-0.007427684623
-0.2219090752
0.007102829789
0.2217838878
-0.006977642344
-0.2203625933
0.006555973675
0.220208009
-0.006401389388
0.005901220942
-0.2193270374
0.2191444916
-0.005718675174
-0.4373976272
0.01018683497
0.4366258382
-0.009415045923
-0.4369289763
0.008615982908
0.4360953531
-0.007782359674
-0.01020263527
0.8698988955
0.006636701811
0.006925049348
-0.006811782096
0.8693568071
-0.00340474956
0.8690169216
0.8687825127
-0.002951892116
0.966847814
-0.00590201099
0.9669161299
-0.008833350179
0.9668502448
-0.005959189705
0.9667120553
-0.005777314026
-0.4818385849
0.4825753655
-0.006695970369
-0.481542769
0.007427387221
0.4822544272
-0.008139045423
-0.4811533723
0.00883315574
0.4818218716
-0.004782486673
-0.004719168353
-0.2401698453
0.005125277814
0.24032499
-0.005280422436
-0.2392816312
0.005713401424
0.2394151983
-0.005846968522
-0.23787072
0.006217001377
0.2379836817
-0.006329963133
-0.235490205
0.006596732903
0.235507667
-0.006614194902
-0.2222556527
0.006318664787
0.2226010622
-0.006664074329
-0.2298919386
0.006980575433
0.2298732551
-0.006961891955
-0.226616287
0.006858601563
0.2265659958
-0.006808310293
-0.2237043746
0.006613137074
0.2236252062
-0.006533968678
-0.2214388122
0.006255629401
0.2213327796
-0.006149596855
-0.2197827814
0.0057940424
0.2196525133
-0.005663774228
0.005241010718
-0.2186597056
0.2185045433
-0.005085848429
-0.4359090829
0.009096911147
0.4352425531
-0.008430381448
-0.4353383106
0.007734780366
0.4346069297
-0.007003399564
-0.009231018032
0.8669053084
0.005979491245
0.006245113822
-0.006179175807
0.8663049649
-0.003093541271
0.8659312871
0.8656889714
-0.002754825482
0.9696026395
-0.005501005952
0.9696623104
-0.008216102765
0.9695653416
-0.005528572215
0.9693801856
-0.005355660915
-0.4832645059
0.4839376056
-0.006201671893
-0.4829275806
0.006864864582
0.4835678802
-0.007505164185
-0.4824502821
0.008124746906
0.4830414928
-0.004388293022
-0.00432766459
-0.2407573168
0.004688623595
0.2408918813
-0.004823188097
-0.2397849815
0.005195322104
0.239898913
-0.005309253675
-0.2382932667
0.005623155644
0.2383875708
-0.0057174597
-0.2355202418
0.005918980417
0.2355127514
-0.005911490048
-0.2236075735
0.005687521919
0.2239291796
-0.006009128026
-0.2298080079
0.006210975269
0.2297836729
-0.006186640238
-0.2264179211
0.00607737059
0.2263694797
-0.006028929173
-0.2234013007
0.005849793556
0.2233307372
-0.005779230126
-0.2210374139
0.005535676052
0.2209457344
-0.005443996469
-0.2192910793
0.005138435038
0.2191794087
-0.00502676451
0.004664012428
-0.2180902547
0.2179566853
-0.004530443096
-0.4346210827
0.008127481485
0.4340408622
-0.007547260946
-0.4339418888
0.006938078723
0.4332975317
-0.00629372167
-0.008333168658
0.8642355124
0.005381465744
0.005621498902
-0.005589830826
0.8635616271
-0.002802267574
0.8631437239
0.8628867039
-0.00256537836
0.9721680179
-0.005116856545
0.9722137885
-0.007628596689
0.9720770817
-0.005120111113
0.9718318378
-0.004960137747
-0.4845654455
0.4851805385
-0.005735204159
-0.4841740766
0.006337318854
0.4847514145
-0.006914656841
-0.4835983321
0.007469106021
0.4841233977
-0.004024732385
-0.003969439141
-0.2412681042
0.004289373734
0.2413856978
-0.004406967336
-0.2402163225
0.004730024257
0.2403148015
-0.004828503336
-0.2386469521
0.0050983257
0.2387262598
-0.005177633466
-0.2354610644
0.00532693772
0.2354352954
-0.005301168708
-0.2248402325
0.005147932734
0.2251242097
-0.005431909987
-0.2297045502
0.005553645502
0.2296764425
-0.005525537724
-0.2262268617
0.005413047716
0.2261801927
-0.005366378667
-0.2231296884
0.00520027611
0.2230658784
-0.005136466122
-0.2206882461
0.004919906115
0.2206076753
-0.004839335303
-0.2188673811
0.004572646441
0.2187702814
-0.004475546785
0.004160296529
-0.2175983105
0.2174820716
-0.004044057574
-0.4334977148
0.007273004258
0.4329886353
-0.00676392474
-0.4327105706
0.00622707182
0.4321401752
-0.005656676514
-0.007518752875
0.8618495691
0.004845853553
0.005058842628
-0.005051819959
0.8610946942
-0.002535374532
0.8606272784
0.8603513293
-0.00238701752
0.9745550354
-0.004756244956