/*--------------------------------*- C++ -*----------------------------------*\
| =========                 |                                                 |
| \\      /  F ield         | OpenFOAM: The Open Source CFD Toolbox           |
|  \\    /   O peration     | Version:  v1912                                 |
|   \\  /    A nd           | Website:  www.openfoam.com                      |
|    \\/     M anipulation  |                                                 |
\*---------------------------------------------------------------------------*/
FoamFile
{
    version     2.0;
    format      ascii;
    class       volVectorField;
    location    "2.5";
    object      U;
}
// * * * * * * * * * * * * * * * * * * * * * * * * * * * * * * * * * * * * * //

dimensions      [0 1 -1 0 0 0 0];


internalField   nonuniform List<vector> 
12556
(
(99.9994035 0.001513878288 -3.9813504e-21)
(99.99901443 0.005528122707 -2.390893429e-25)
(99.99810251 0.01290747372 -3.980697107e-21)
(99.99639005 0.0262646649 -3.965977847e-21)
(99.99967459 0.0218276635 3.842596875e-21)
(99.99809826 0.037773846 0)
(99.99699947 0.06341821698 0)
(99.99657793 0.09975026763 -6.943802388e-21)
(99.99542186 0.1493828261 8.210169725e-22)
(99.99442916 0.2127205655 -5.565635457e-21)
(99.99411225 0.2848101023 5.95119807e-22)
(99.99524679 0.3533922779 0)
(99.99773629 0.4009412483 0)
(100.0007629 0.413135973 3.239748155e-22)
(100.0036584 0.3876933096 -9.720183931e-22)
(100.0051545 0.3344261589 7.8225086e-22)
(100.0054328 0.2693272829 0)
(100.0051804 0.2055974989 1.434601629e-21)
(100.0049752 0.1488389126 5.922597262e-21)
(100.0026758 0.1064590742 -1.700271881e-21)
(100.0112557 0.1237970293 -1.487151206e-20)
(100.0079405 0.07725446625 0)
(100.005991 0.04166298035 -1.882099912e-21)
(100.0058116 0.01326418238 -1.326951644e-20)
(99.99453273 0.003713600435 1.592656717e-20)
(99.99050323 0.01410502663 3.984278055e-21)
(99.98189169 0.03380118161 2.787618602e-20)
(99.96703772 0.07128920131 -1.194104809e-20)
(99.96780859 0.1026254421 3.868050995e-21)
(99.94388705 0.1801809202 -3.364804291e-23)
(99.91221497 0.3030151587 0)
(99.89411326 0.4188587959 -6.915340982e-21)
(99.85477073 0.6349884724 -6.508520107e-21)
(99.81795406 0.9166989004 -1.164710392e-20)
(99.79789654 1.247246527 -4.986977516e-21)
(99.81640878 1.575149214 -6.993404883e-21)
(99.88400009 1.810798952 -3.998095675e-21)
(99.97296123 1.885427157 -5.288246407e-22)
(100.0632732 1.784897914 -3.543713546e-22)
(100.122799 1.546298992 4.022970368e-21)
(100.1421267 1.244536764 -8.354037357e-21)
(100.1307071 0.9520087454 0)
(100.1439529 0.7300612012 -2.539312724e-20)
(100.1049905 0.5057711012 4.92343873e-20)
(100.1055141 0.3542593943 1.440161828e-20)
(100.0758277 0.2203096432 2.98789342e-20)
(100.0580655 0.1190757883 -2.996736639e-20)
(100.0513453 0.0379077037 1.515241134e-20)
(99.98613163 0.003491371161 -1.589109905e-20)
(99.97485154 0.01516283128 -3.18781809e-20)
(99.95091383 0.0410688222 -7.169086711e-20)
(99.91143358 0.09104638308 9.544814728e-20)
(99.88590702 0.156227548 -7.891307156e-21)
(99.81680447 0.2874465008 -7.740194331e-21)
(99.7195115 0.4952145806 -1.346283028e-20)
(99.65885479 0.7309389166 0)
(99.53280357 1.135320366 2.686335639e-20)
(99.41183501 1.678576187 0)
(99.34872178 2.35412338 -4.020871842e-20)
(99.4303827 3.056400618 0)
(99.6794079 3.560331788 -4.637861588e-19)
(100.0380354 3.723826745 1.454622662e-20)
(100.3536485 3.486910505 -6.630922527e-21)
(100.5414367 2.973849082 -8.728696707e-21)
(100.5882886 2.355424346 -9.063856882e-21)
(100.5311632 1.75588555 -2.217652246e-20)
(100.4788278 1.25388126 -1.523276324e-19)
(100.358141 0.8557298358 -3.42266207e-20)
(100.2938751 0.5389022533 -1.485301497e-20)
(100.213089 0.3337874321 3.379876439e-20)
(100.1638903 0.1802197687 -3.80852645e-21)
(100.1424031 0.05706204114 0)
(99.97965307 -0.0007317597264 -7.992436076e-21)
(99.95810444 0.003558924057 5.599961913e-20)
(99.91254013 0.0261664278 -1.601739209e-20)
(99.83786686 0.07581215384 0)
(99.77549677 0.1650897508 0)
(99.63694784 0.3310939241 -6.225163128e-20)
(99.44191878 0.6021099028 -1.247857959e-19)
(99.27504607 0.9449037746 2.960554579e-20)
(98.98946867 1.523390965 -2.834540302e-19)
(98.69411856 2.378464169 8.001736307e-19)
(98.5256335 3.5299886 -1.486218752e-18)
(98.68472442 4.815863012 2.141060221e-18)
(99.36410067 5.756409748 -5.559005323e-19)
(100.2858385 5.930782541 1.664671202e-19)
(100.9931053 5.373385212 7.662441439e-19)
(101.3205181 4.436472531 1.441400102e-19)
(101.3466606 3.396632833 0)
(101.1960512 2.464190181 0)
(101.0017462 1.671134119 5.611954263e-20)
(100.7426249 1.113399937 -4.375037343e-20)
(100.5588863 0.6547541964 -3.815954814e-20)
(100.4063747 0.3996085232 1.937835066e-20)
(100.3115993 0.2138191883 -3.895501755e-21)
(100.2682142 0.06718488361 0)
(99.98448825 -0.009949857075 0)
(99.95098158 -0.02390637273 0)
(99.88089035 -0.01772230015 8.037820465e-21)
(99.76439662 0.01882038962 1.218823767e-20)
(99.65451747 0.1170102182 2.019258093e-20)
(99.42770895 0.2886552633 0)
(99.10775786 0.5760532627 0)
(98.78727224 0.9946941948 0)
(98.25302202 1.736275409 0)
(97.64110816 2.941830569 1.103254936e-18)
(97.15722515 4.777915983 6.810546029e-20)
(97.43153846 7.044357459 0)
(98.97446104 8.796635003 -1.422772488e-19)
(101.0789356 8.788070611 -2.771017218e-19)
(102.3683716 7.457645916 -2.343932235e-18)
(102.7320081 5.783956956 5.014643426e-20)
(102.5462336 4.257690705 8.753691537e-19)
(102.1250764 2.960213535 -6.388191154e-22)
(101.6895086 1.907427953 -9.449049063e-20)
(101.2338711 1.235740553 7.8927739e-21)
(100.8687108 0.669913783 0)
(100.6269583 0.4034956348 3.992104282e-21)
(100.4760172 0.2117531769 -2.997444057e-21)
(100.4056339 0.06572879153 -9.948738761e-22)
(100.0114279 -0.02451352672 0)
(99.96568231 -0.06802459297 0)
(99.87127292 -0.09228013508 -1.613088878e-20)
(99.7123155 -0.08662302361 3.273804678e-20)
(99.54227064 0.002541301636 0)
(99.22439187 0.1459093046 0)
(98.76206153 0.4068148492 2.565024752e-20)
(98.25289706 0.8427196204 0)
(97.39428353 1.644944902 -4.883421083e-19)
(96.19966994 3.111968044 0)
(94.92445871 5.702086382 5.213037651e-19)
(94.74347649 9.74394133 3.096062881e-20)
(98.11769382 13.58074914 -1.093746921e-19)
(103.0906955 12.8120052 0)
(105.0662514 9.515959054 0)
(104.9980454 6.719962839 0)
(104.2305917 4.677777271 -5.77856806e-19)
(103.3214614 3.13186975 2.638732252e-19)
(102.476682 1.880544428 2.441316436e-20)
(101.7753932 1.17999305 -1.64479015e-20)
(101.1871332 0.5689289199 0)
(100.8419419 0.3344625209 0)
(100.6289425 0.1681620713 -1.013816699e-21)
(100.5291114 0.05112147489 -3.050623753e-21)
(100.0709396 -0.04410682106 3.928350214e-21)
(100.0140915 -0.1277378057 -3.956085895e-21)
(99.89811621 -0.1956863835 8.066375408e-21)
(99.70128765 -0.2378412187 -2.956138274e-20)
(99.47163357 -0.1794035446 8.261225433e-23)
(99.06769384 -0.09852147361 2.516859664e-20)
(98.4744594 0.0842952563 -1.135603504e-19)
(97.76650839 0.4605284422 0)
(96.54217316 1.159243845 1.042732904e-18)
(94.58150299 2.532977651 -1.5144954e-19)
(91.75606597 5.141818749 -3.52273066e-19)
(88.31253945 11.09345205 -1.933773701e-19)
(94.11167511 22.64996157 1.305608522e-19)
(108.7244228 18.6501262 0)
(109.7467727 10.81585402 -8.650472612e-19)
(108.1079379 6.678397171 3.99117328e-19)
(106.2808087 4.325872386 -7.580813782e-19)
(104.6510952 2.779949934 0)
(103.2644651 1.518519363 0)
(102.2940552 0.8970991382 9.137832577e-21)
(101.4624998 0.349458101 2.684258546e-21)
(101.01305 0.1855213924 -3.171175882e-21)
(100.7411271 0.08186048362 -3.61131947e-21)
(100.6127128 0.02326838574 8.670776974e-21)
(100.1720829 -0.06777793069 -3.928764107e-21)
(100.1065629 -0.2000851404 3.957508248e-21)
(99.97432648 -0.3221890125 -5.016116733e-21)
(99.74912924 -0.425717719 -3.365415368e-21)
(99.46641448 -0.4175354186 1.432893936e-20)
(98.99640423 -0.427699153 8.50692433e-21)
(98.30394715 -0.3712849131 -4.398149992e-21)
(97.45379736 -0.1428164524 -5.308439435e-19)
(95.93612 0.2608700963 1.118299113e-18)
(93.409087 1.023456852 8.335276855e-20)
(89.35851064 2.118809329 1.375670852e-20)
(81.95062884 3.756476352 0)
(123.0790421 21.68459086 0)
(116.2048625 9.012506374 1.17849023e-18)
(111.475709 4.891255987 -5.273851203e-19)
(108.2614972 2.957923727 -2.846657177e-20)
(105.8667069 1.785722372 9.251983589e-19)
(103.903304 0.8005829529 -4.907469559e-21)
(102.6872646 0.3972233667 2.071152062e-20)
(101.6350749 0.01819136338 -3.292469864e-21)
(101.1011686 -0.03319965325 2.690206284e-21)
(100.7832326 -0.04148377727 -5.260865814e-22)
(100.6309608 -0.01639484713 -8.178971468e-21)
(100.321603 -0.09404312561 -1.890075063e-21)
(100.2508228 -0.2804382899 -1.419671944e-21)
(100.1095322 -0.4631197199 -4.863971564e-22)
(99.86863213 -0.6361065166 1.46926509e-21)
(99.54617608 -0.6922729602 -2.730719983e-23)
(99.0386281 -0.8107416197 0)
(98.29632523 -0.9074115968 1.059934853e-21)
(97.38147884 -0.8768332626 -1.655789056e-20)
(95.74602917 -0.8531243763 1.414798134e-19)
(93.16243821 -0.8346701519 0)
(89.55142666 -1.270128921 1.797207955e-18)
(85.36658076 -3.137749921 0)
(135.6199323 6.778344461 6.776489209e-20)
(120.7381534 2.6964899 -2.922970183e-18)
(113.7322288 1.257184819 -3.08699638e-19)
(109.5398479 0.6249266053 0)
(106.6239202 0.2568413505 1.596925686e-18)
(104.2369098 -0.189151118 -5.059742537e-21)
(102.8597348 -0.268564304 1.173549861e-20)
(101.6591455 -0.3918800717 1.139693109e-21)
(101.075318 -0.3006995767 0)
(100.7305734 -0.1904257533 4.137843776e-21)
(100.563017 -0.06447686402 4.084959555e-21)
(100.5230289 -0.1210905162 3.723818161e-21)
(100.4508464 -0.3631842115 5.712852361e-23)
(100.3084888 -0.6080803648 0)
(100.0659941 -0.853108189 1.910002167e-22)
(99.7197232 -0.9810716128 -1.962577855e-21)
(99.20597801 -1.211328097 2.08177435e-21)
(98.46666948 -1.463218038 6.895299284e-20)
(97.55771575 -1.631706053 -1.080943619e-18)
(95.96967059 -1.948843529 2.893812062e-19)
(93.61896351 -2.44347932 0)
(90.75105024 -3.401119612 0)
(88.12516252 -4.915710752 8.339894632e-19)
(133.1326068 -8.918259194 -2.201352554e-18)
(120.5413994 -4.795540552 7.6295221e-20)
(113.8268301 -3.07040342 -7.653797792e-20)
(109.6223207 -2.099170568 5.208232067e-19)
(106.6764963 -1.516710418 0)
(104.1606703 -1.300812099 4.301507503e-20)
(102.7566498 -1.013112868 0)
(101.5075643 -0.8325158108 -1.119532167e-21)
(100.9177131 -0.587708382 -4.605979655e-21)
(100.5687025 -0.3499503378 5.134539778e-22)
(100.3966786 -0.1161381214 0)
(100.7762885 -0.1471488784 -1.833583596e-21)
(100.706393 -0.4427301662 1.848619547e-21)
(100.5703026 -0.7466703487 1.802114534e-21)
(100.3408834 -1.061344618 -1.681783683e-21)
(99.98497665 -1.261354765 -1.933696748e-21)
(99.49400196 -1.594199349 0)
(98.80188038 -1.986980755 -6.297824158e-21)
(97.94627723 -2.3294237 0)
(96.48622786 -2.906535244 -2.778715479e-19)
(94.41333516 -3.70314712 6.229631735e-19)
(91.99622914 -4.805535323 7.400905949e-19)
(89.82128389 -5.997789085 7.319121686e-19)
(124.6220851 -17.57119921 -3.255130419e-18)
(116.8918055 -10.32085473 -1.242131505e-18)
(112.0104964 -6.687045592 -2.20092664e-18)
(108.6049193 -4.548709132 0)
(106.020383 -3.187637285 -8.552251757e-19)
(103.6675438 -2.349620594 0)
(102.3776819 -1.728263892 -2.801931676e-20)
(101.1788597 -1.252784246 -1.396424595e-20)
(100.6265072 -0.862221528 1.046700138e-21)
(100.2954892 -0.5036668524 -3.317145348e-21)
(100.1298208 -0.1661306499 4.858576737e-22)
(101.0777845 -0.1706125537 6.733970149e-21)
(101.0135429 -0.5139585424 0)
(100.8894745 -0.8682197529 -1.798595525e-21)
(100.6833497 -1.251443972 0)
(100.3284501 -1.513945725 0)
(99.88759258 -1.930762327 -5.744617294e-21)
(99.27430997 -2.439438007 1.230081441e-19)
(98.50288092 -2.921520502 -1.819667221e-20)
(97.21053166 -3.686691212 2.604730268e-19)
(95.39378598 -4.685050649 1.180330487e-18)
(93.22374474 -5.917484813 -6.61321773e-19)
(91.11752985 -7.097935933 8.929334415e-21)
(115.5833472 -20.65521006 0)
(111.9381439 -13.10722117 5.948758162e-20)
(109.1174736 -8.934402544 1.335642113e-18)
(106.7923518 -6.276932418 -1.607998093e-18)
(104.8125625 -4.467295935 6.798992842e-19)
(102.8421795 -3.189592659 2.23602129e-21)
(101.7676852 -2.326871595 -3.398416143e-20)
(100.6977244 -1.612043352 8.263006222e-21)
(100.2165788 -1.096443265 0)
(99.92077724 -0.6372529758 3.822330008e-21)
(99.77030746 -0.2098477464 0)
(101.421274 -0.1909343187 6.725366381e-21)
(101.3648095 -0.576128227 1.061580724e-19)
(101.2556923 -0.9729459683 -2.137928974e-19)
(101.0757969 -1.40975249 -4.451031428e-22)
(100.7551221 -1.720294821 -1.689093214e-21)
(100.3681665 -2.201649997 0)
(99.85314306 -2.795855573 1.211573229e-19)
(99.18053137 -3.378297965 9.036684232e-19)
(98.08211799 -4.271268323 -1.212691329e-19)
(96.53482696 -5.423025034 0)
(94.62306672 -6.876719447 -1.479814737e-19)
(92.61798641 -8.31988838 4.85327388e-19)
(103.4099717 -29.43674581 1.179787419e-18)
(107.3261939 -19.09964558 2.411331593e-20)
(107.1676509 -13.49662811 3.131209525e-19)
(106.012709 -9.762732075 -6.729582701e-19)
(104.6824256 -7.151271929 6.574495783e-19)
(103.3297856 -5.235929209 2.892073767e-19)
(101.823355 -3.742350805 -6.771780445e-20)
(101.0004248 -2.753562028 0)
(100.111815 -1.884578232 0)
(99.71510075 -1.272899146 1.194232635e-20)
(99.46367038 -0.7413792911 2.203128218e-21)
(99.33411583 -0.2441475871 -7.129821444e-21)
(101.7981347 -0.2061744336 0)
(101.7508672 -0.623347896 0)
(101.6599436 -1.051673328 0)
(101.5089303 -1.521567831 0)
(101.2220101 -1.880921496 0)
(100.8929391 -2.412867887 0)
(100.4750324 -3.0656035 2.157528333e-19)
(99.91982848 -3.703869341 1.015185981e-19)
(99.02584244 -4.664157127 0)
(97.78400721 -5.904834858 -4.447862894e-19)
(96.29382263 -7.569254902 1.205244265e-19)
(94.76246272 -9.87132374 1.187772241e-19)
(96.82385876 -19.0376467 1.833815981e-21)
(102.3908311 -15.66179918 0)
(103.4926092 -12.27722791 0)
(103.3093071 -9.506004477 0)
(102.6730135 -7.300783202 2.964314558e-20)
(101.8028357 -5.518181608 3.53759955e-22)
(100.7437128 -4.016753901 -9.321018393e-20)
(100.1560209 -3.000491094 -3.509708534e-20)
(99.46683253 -2.049630939 -1.942259429e-20)
(99.15259358 -1.38961631 1.910303973e-20)
(98.94832711 -0.8124024536 0)
(98.84201997 -0.2675213414 1.90839409e-20)
(102.1994218 -0.2162216066 0)
(102.1622832 -0.6547001391 0)
(102.0919571 -1.103727682 0)
(101.9721158 -1.589027806 0)
(101.7202396 -1.977773394 0)
(101.4610777 -2.534403961 0)
(101.1429749 -3.195695451 -9.78778319e-20)
(100.715381 -3.85577154 -5.496328938e-19)
(100.0526469 -4.792676145 0)
(99.13420641 -5.985526763 -3.622443593e-19)
(98.1782742 -7.540916375 7.096907924e-19)
(97.44566398 -9.713934333 2.63301052e-20)
(98.41433994 -12.40212478 -6.119304368e-20)
(100.4179721 -12.05378487 9.098033655e-20)
(101.194611 -10.44126061 3.320852274e-19)
(101.2702365 -8.639731032 -3.552696945e-19)
(100.9641554 -6.952025677 -3.679499552e-19)
(100.4198147 -5.453876489 -2.455428105e-20)
(99.69482878 -4.064457882 0)
(99.31227753 -3.096635355 0)
(98.79774737 -2.118235804 -3.595113355e-20)
(98.5581892 -1.448578467 1.773975177e-20)
(98.39963042 -0.8499844926 7.436245715e-22)
(98.31594162 -0.2799179257 -1.313166913e-20)
(102.615401 -0.2212174151 0)
(102.5880242 -0.6701427835 0)
(102.5375933 -1.129032838 0)
(102.4477753 -1.616434268 0)
(102.2300617 -2.020398287 0)
(102.0345729 -2.578525319 0)
(101.8036084 -3.219839613 6.857145774e-22)
(101.4880279 -3.868362647 -3.959414362e-20)
(101.0178272 -4.718333537 -4.624933862e-19)
(100.3513426 -5.748228633 0)
(99.7057744 -6.96697637 1.281001537e-19)
(96.97241302 -8.013380972 0)
(99.30925861 -9.543697585 1.153446098e-19)
(99.7614864 -9.51396649 0)
(99.91681044 -8.731224003 1.474021257e-19)
(99.85178447 -7.598483172 -3.572351955e-19)
(99.61837746 -6.352540184 1.777113036e-19)
(99.24625283 -5.154678091 0)
(98.74632911 -3.943811514 -2.991408342e-20)
(98.51804011 -3.070153777 4.580423588e-20)
(98.13546111 -2.110009974 1.114515196e-20)
(97.95918355 -1.457441389 1.90281518e-20)
(97.84020833 -0.8577803944 -2.160786981e-20)
(97.77615871 -0.2825176312 0)
(103.0367134 -0.2217167854 0)
(103.0179392 -0.6713652389 0)
(102.9845889 -1.130279652 0)
(102.9208108 -1.609004017 0)
(102.7343686 -2.015958961 0)
(102.5925598 -2.557389925 0)
(102.4296508 -3.15925367 0)
(102.1919257 -3.769972344 8.001596231e-20)
(101.8496096 -4.510913143 -2.981807051e-19)
(101.3296323 -5.337287578 1.159006779e-19)
(100.7748075 -6.217827431 5.237354664e-20)
(96.52367648 -6.598193745 3.865285061e-19)
(99.82859451 -7.746206267 0)
(99.51785444 -7.765605572 6.158361009e-21)
(99.18761027 -7.329461727 0)
(98.89227421 -6.584571435 -1.010553069e-19)
(98.59200339 -5.675025699 -1.834362749e-21)
(98.28833167 -4.742324134 0)
(97.92619735 -3.724994626 0)
(97.78890851 -2.952460728 0)
(97.50382908 -2.043789442 3.837022898e-20)
(97.37680362 -1.426029105 -3.588715424e-20)
(97.28859889 -0.8410703196 -2.431078381e-21)
(97.23994776 -0.2774274294 2.439152762e-21)
(103.4550287 -0.2184479673 0)
(103.4434039 -0.6607384574 0)
(103.4236702 -1.111437917 0)
(103.3807366 -1.572780494 0)
(103.2212162 -1.972252003 0)
(103.1203476 -2.48493924 0)
(103.0050966 -3.037293605 0)
(102.8107979 -3.594023076 0)
(102.5285097 -4.222569541 -1.378944159e-20)
(102.0595941 -4.872209469 -2.385520362e-20)
(101.5114629 -5.513500606 -2.202581683e-20)
(95.75828597 -5.469915519 -2.935381003e-20)
(100.1175553 -6.487209725 -5.68882953e-21)
(99.37993432 -6.495510161 -1.161612631e-21)
(98.71736815 -6.209238008 -1.286608849e-21)
(98.21358162 -5.684705889 3.359855265e-23)
(97.82151644 -5.012905163 0)
(97.52220929 -4.290847752 0)
(97.22391328 -3.444549921 0)
(97.13435265 -2.772350734 0)
(96.91580078 -1.935303922 0)
(96.8238836 -1.362842551 0)
(96.75841623 -0.8066145922 0)
(96.72103923 -0.2671623459 0)
(103.8636327 -0.2121666234 0)
(103.8576121 -0.6407203463 0)
(103.8479639 -1.076771321 0)
(103.8203763 -1.514742941 0)
(103.6820318 -1.898862705 0)
(103.6093158 -2.376090517 0)
(103.5220903 -2.875292218 0)
(103.3482887 -3.372132976 0)
(103.0743269 -3.900905693 0)
(102.5992175 -4.414471773 0)
(102.0155244 -4.893203314 4.002914885e-21)
(95.29234111 -4.673502296 -2.235189854e-20)
(100.2583684 -5.541145655 -2.666092194e-21)
(99.25922116 -5.521694609 2.766816417e-21)
(98.37894005 -5.304537865 0)
(97.71651808 -4.916746783 0)
(97.23689602 -4.410607676 0)
(96.90867905 -3.841792272 0)
(96.63076379 -3.138410171 0)
(96.55812833 -2.560587173 0)
(96.37838241 -1.802526772 0)
(96.30857768 -1.279689232 0)
(96.25772101 -0.7594876206 0)
(96.22886923 -0.2521968206 0)
(104.257432 -0.2036367861 0)
(104.2554493 -0.6137680414 0)
(104.2524513 -1.030533385 0)
(104.2349192 -1.441713372 0)
(104.1119995 -1.805314451 0)
(104.0559268 -2.244114182 0)
(103.9810601 -2.692437858 0)
(103.8097296 -3.129162545 0)
(103.5204352 -3.572501244 0)
(103.0141108 -3.983751347 0)
(102.3568284 -4.348132482 0)
(95.44644602 -4.113958922 0)
(100.3238238 -4.790087053 0)
(99.15484687 -4.748199612 0)
(98.12304702 -4.571503129 0)
(97.34107598 -4.272322178 0)
(96.78194977 -3.878051372 0)
(96.41155114 -3.421346054 0)
(96.12999583 -2.833108803 0)
(96.05469912 -2.337919553 0)
(95.89341651 -1.658728548 0)
(95.83525083 -1.185784394 0)
(95.79238202 -0.7054028917 0)
(95.76871942 -0.2347295428 0)
(104.632845 -0.1935918377 0)
(104.633423 -0.5822177995 0)
(104.6339309 -0.9766731968 0)
(104.6217219 -1.35969586 0)
(104.5091254 -1.699828048 0)
(104.4601204 -2.100102261 0)
(104.3849314 -2.502299526 0)
(104.2047267 -2.882462987 0)
(103.8868502 -3.255081914 0)
(103.3424675 -3.588552025 0)
(102.5766252 -3.867113309 0)
(95.88514995 -3.666441885 0)
(100.3456665 -4.176227495 -5.292534028e-35)
(99.05728469 -4.12240411 0)
(97.91832294 -3.971236137 0)
(97.04591212 -3.730103977 0)
(96.41891245 -3.413490811 0)
(96.00448542 -3.040705277 0)
(95.70464721 -2.544179986 0)
(95.61568772 -2.118150914 0)
(95.45904693 -1.513150539 0)
(95.40461725 -1.088062728 0)
(95.36468283 -0.6485346575 0)
(95.34375218 -0.2162561094 0)
(104.9876263 -0.1826776548 0)
(104.9894778 -0.5481266841 0)
(104.9908232 -0.9186428348 0)
(104.9799256 -1.273519356 0)
(104.8736119 -1.58901191 0)
(104.8241326 -1.952615918 0)
(104.7392933 -2.313068658 0)
(104.5431958 -2.643116275 0)
(104.190307 -2.958108992 0)
(103.6071553 -3.232489127 0)
(102.7041084 -3.445230473 0)
(96.45409364 -3.294511941 0)
(100.3384401 -3.66763812 0)
(98.96413659 -3.60658008 0)
(97.74721772 -3.472856166 0)
(96.80580757 -3.271689345 0)
(96.12230752 -3.01060751 0)
(95.6663941 -2.700701063 0)
(95.34116044 -2.278034209 0)
(95.23247747 -1.909494768 0)
(95.07147559 -1.372068409 0)
(95.01526616 -0.9914540499 0)
(94.9746952 -0.5918901365 0)
(94.95463971 -0.1977805287 0)
(105.320702 -0.1714227283 0)
(105.3227663 -0.5131702426 0)
(105.3228438 -0.8592773822 0)
(105.31005 -1.186924617 0)
(105.2068131 -1.477889053 0)
(105.1513045 -1.807620076 0)
(105.0504671 -2.130367566 0)
(104.8343381 -2.417608884 0)
(104.4443249 -2.685971504 0)
(103.8241262 -2.915186063 0)
(102.7624956 -3.076650912 0)
(97.06074886 -2.977516057 0)
(100.3126793 -3.240988769 -6.998404527e-35)
(98.87464204 -3.17563916 0)
(97.59961092 -3.054740699 0)
(96.60494713 -2.882353912 0)
(95.87480075 -2.662172913 0)
(95.38134496 -2.400178904 0)
(95.02850371 -2.037185334 0)
(94.89703759 -1.716494138 0)
(94.72615327 -1.239446955 0)
(94.66458231 -0.8992141244 0)
(94.62101741 -0.5374985093 0)
(94.60051403 -0.1799749148 0)
(105.6319551 -0.1602403463 0)
(105.6333869 -0.4786328889 0)
(105.6306283 -0.8007492338 0)
(105.6135324 -1.102702303 0)
(105.5108373 -1.37007923 0)
(105.4454396 -1.669130361 0)
(105.3245873 -1.957583535 0)
(105.0860894 -2.209485881 0)
(104.6595531 -2.440106173 0)
(104.0043189 -2.634409368 0)
(102.769941 -2.755377037 0)
(97.64599976 -2.701634405 0)
(100.2747551 -2.880117245 0)
(98.78849095 -2.812222782 0)
(97.46930279 -2.701292916 0)
(96.43303399 -2.550469932 0)
(95.66443602 -2.361267607 0)
(95.13769748 -2.136482622 0)
(94.75740619 -1.822047121 0)
(94.60225813 -1.541253048 0)
(94.4184155 -1.117520836 0)
(94.34933147 -0.8133393701 0)
(94.30131957 -0.4866427421 0)
(94.27946939 -0.1632682654 0)
(105.9219661 -0.1494433657 0)
(105.9221105 -0.4454601126 0)
(105.9153968 -0.7446382672 0)
(105.892293 -1.022835842 0)
(105.788197 -1.268071629 0)
(105.7103274 -1.53957642 0)
(105.5675521 -1.797767004 0)
(105.3051805 -2.020094543 0)
(104.8443008 -2.22033998 0)
(104.1552927 -2.387242829 0)
(102.7399679 -2.475922886 0)
(98.17592283 -2.458607375 0)
(100.2287431 -2.573265894 2.391216455e-35)
(98.70551025 -2.50389738 0)
(97.35229828 -2.401041772 0)
(96.28317023 -2.266925279 0)
(95.4828289 -2.101776153 0)
(94.92690915 -1.906404728 0)
(94.52047357 -1.631786659 0)
(94.34201926 -1.384345625 0)
(94.14376487 -1.007325662 0)
(94.06602774 -0.7349294009 0)
(94.01276909 -0.4400629779 0)
(93.9889949 -0.147913712 0)
(106.1918017 -0.1392602579 0)
(106.1901665 -0.4143232372 0)
(106.1787338 -0.6920439571 0)
(106.1484731 -0.9486594415 0)
(106.0415283 -1.173461855 0)
(105.9495308 -1.420487043 0)
(105.783888 -1.652485051 0)
(105.4974222 -1.849822016 0)
(105.0050576 -2.025607603 0)
(104.2826452 -2.170602773 0)
(102.6829174 -2.233351335 0)
(98.63437067 -2.243320094 0)
(100.1773261 -2.311502428 0)
(98.62554912 -2.241404527 0)
(97.2458653 -2.145289059 0)
(96.15054664 -2.024470049 0)
(95.32391067 -1.878393398 0)
(94.74253769 -1.706626684 0)
(94.31176864 -1.464912834 0)
(94.11108848 -1.245422967 0)
(93.89800633 -0.9091118203 0)
(93.81116316 -0.6644591058 0)
(93.75231552 -0.3981116992 0)
(93.72627732 -0.1340383317 0)
(106.4428753 -0.1298490722 0)
(106.4391035 -0.3856744635 0)
(106.4224618 -0.6436926903 0)
(106.3843172 -0.8810076244 0)
(106.2734261 -1.087227804 0)
(106.1663274 -1.31270987 0)
(105.9775745 -1.52221362 0)
(105.6675909 -1.698396144 0)
(105.1467331 -1.854441857 0)
(104.3905608 -1.981605917 0)
(102.6076025 -2.023610284 0)
(99.01719191 -2.052980985 0)
(100.1223982 -2.087975179 0)
(98.54846986 -2.017738332 0)
(97.14805989 -1.927362426 0)
(96.03171074 -1.817342336 0)
(95.18319848 -1.68663666 0)
(94.57965623 -1.534034351 0)
(94.12653005 -1.319689085 0)
(93.90504283 -1.123654474 0)
(93.67729539 -0.8226496706 0)
(93.58133486 -0.6019872261 0)
(93.51685682 -0.360874743 0)
(93.48838099 -0.1216814122 0)
(106.6768476 -0.121311621 0)
(106.6706881 -0.3597950205 0)
(106.6485515 -0.6000254016 0)
(106.6021049 -0.820339891 0)
(106.4864448 -1.009861686 0)
(106.3637388 -1.216552918 0)
(106.1520955 -1.406827609 0)
(105.8196652 -1.565146261 0)
(105.2730634 -1.705221689 0)
(104.4823649 -1.817727198 0)
(102.5208514 -1.843231112 0)
(99.32799292 -1.88566352 0)
(100.0653008 -1.897378796 0)
(98.47410926 -1.827445083 0)
(97.05741023 -1.742011274 0)
(95.92406544 -1.640882366 0)
(95.05725627 -1.522706659 0)
(94.43437844 -1.385788564 0)
(93.96082889 -1.194303269 0)
(93.72006461 -1.017946514 0)
(93.4781336 -0.7474278139 0)
(93.3733083 -0.5473108943 0)
(93.30333956 -0.3282671653 0)
(93.27236181 -0.1108251661 0)
(106.8954873 -0.1137090492 0)
(106.8867706 -0.3368433376 0)
(106.8589999 -0.5612815074 0)
(106.8040515 -0.7668740273 0)
(106.6829966 -0.9415524969 0)
(106.544499 -1.132020666 0)
(106.3103698 -1.305773662 0)
(105.9569505 -1.449275798 0)
(105.3869068 -1.576378292 0)
(104.5607394 -1.676724321 0)
(102.4275144 -1.689122358 0)
(99.57493528 -1.739768068 0)
(100.0069758 -1.735561036 0)
(98.40228815 -1.666252963 0)
(96.97276793 -1.585092039 0)
(95.82560649 -1.491339974 0)
(94.94339855 -1.383441699 0)
(94.30359736 -1.259403505 0)
(93.81141198 -1.087035637 0)
(93.55287465 -0.9271390722 0)
(93.29738145 -0.6828154492 0)
(93.18408356 -0.5000877086 0)
(93.10886084 -0.3001096834 0)
(93.07538568 -0.1014197238 0)
(107.1007117 -0.1070716582 0)
(107.0893188 -0.3168882593 0)
(107.0558676 -0.5275568048 0)
(106.992368 -0.7206441518 0)
(106.8653619 -0.882292523 0)
(106.7111214 -1.058908517 0)
(106.4551107 -1.218270799 0)
(106.0821362 -1.349940467 0)
(105.4905211 -1.466471259 0)
(104.627903 -1.5567178 0)
(102.3310883 -1.558766708 0)
(99.76834817 -1.61426264 0)
(99.94806078 -1.599219498 0)
(98.3327991 -1.530749632 0)
(96.89318485 -1.453276869 0)
(95.73471733 -1.365659135 0)
(94.83944429 -1.266202052 0)
(94.18473269 -1.152712964 0)
(93.67553448 -0.9963193067 0)
(93.40061256 -0.8501065206 0)
(93.13215165 -0.6281328815 0)
(93.01083413 -0.4599099599 0)
(92.93063026 -0.2761742785 0)
(92.89469555 -0.09339719132 0)
(107.2941783 -0.1014178549 0)
(107.2800457 -0.299955516 0)
(107.2409333 -0.4988568896 0)
(107.1689387 -0.6816646646 0)
(107.0356541 -0.8319388316 0)
(106.8658867 -0.9968323214 0)
(106.5888865 -1.143961759 0)
(106.1974768 -1.266204325 0)
(105.5857577 -1.374183769 0)
(104.6857022 -1.456055665 0)
(102.2341169 -1.449917841 0)
(99.91858813 -1.508133002 0)
(99.88897728 -1.48572026 -3.88817733e-36)
(98.26541608 -1.418208414 0)
(96.81785635 -1.343894795 0)
(95.65006458 -1.261361292 0)
(94.74359545 -1.168823082 0)
(94.07556439 -1.064022596 0)
(93.5508321 -0.9208562708 0)
(93.26075 -0.7857992736 0)
(92.97999821 -0.5827747951 0)
(92.85111605 -0.4263578528 0)
(92.76621046 -0.256229442 0)
(92.72788414 -0.08668961014 0)
(107.4785804 -0.09673369895 0)
(107.4615996 -0.2860069507 0)
(107.4168131 -0.4751196436 0)
(107.3363826 -0.6496587531 0)
(107.1958983 -0.7903087213 0)
(107.0108506 -0.9453759365 0)
(106.7141309 -1.082969595 0)
(106.304899 -1.197079816 0)
(105.6741911 -1.29833327 0)
(104.7356794 -1.373342491 0)
(102.1385659 -1.360863096 0)
(100.0348662 -1.420391108 0)
(99.83000824 -1.392980688 0)
(98.19990189 -1.326458103 0)
(96.74608255 -1.254810842 0)
(95.57052411 -1.176442248 0)
(94.65437404 -1.089517749 0)
(93.9745011 -0.9919989482 0)
(93.43504987 -0.8596358122 0)
(93.1310269 -0.7333372889 0)
(92.83805911 -0.5460244561 0)
(92.70203786 -0.3990337552 0)
(92.61265019 -0.2400287716 0)
(92.57194908 -0.08121489815 0)
(107.652703 -0.09307788947 0)
(107.6329793 -0.2751329332 0)
(107.582629 -0.456342024 0)
(107.4939755 -0.6251822961 0)
(107.3479571 -0.7570794664 0)
(107.1478855 -0.9042225852 0)
(106.8322627 -1.035130363 0)
(106.4063395 -1.141794107 0)
(105.7572452 -1.237902646 0)
(104.7792232 -1.307417289 0)
(102.0461288 -1.290243805 0)
(100.12481 -1.350112202 0)
(99.77132558 -1.319322428 0)
(98.13600001 -1.253764097 0)
(96.6772207 -1.184316562 0)
(95.49509054 -1.109277355 0)
(94.57044582 -1.02676434 0)
(93.87998965 -0.9347592734 0)
(93.32635782 -0.8113305135 0)
(93.0092884 -0.6916494602 0)
(92.70610893 -0.5178896579 0)
(92.56338561 -0.3775968692 0)
(92.46977507 -0.2274514202 0)
(92.42686856 -0.07695878315 0)
(107.82987 -0.09026099187 0)
(107.8068443 -0.2670135741 0)
(107.7505641 -0.4423041869 0)
(107.6524437 -0.6052356816 0)
(107.4944687 -0.7322921446 0)
(107.2786431 -0.8735029108 0)
(106.9447279 -0.9993702566 0)
(106.5032215 -1.099805578 0)
(105.8361365 -1.192021013 0)
(104.8175664 -1.257229626 0)
(101.9583245 -1.23687938 0)
(100.1945914 -1.296494297 0)
(99.71306616 -1.263446961 0)
(98.0734578 -1.198788759 0)
(96.61068122 -1.131091697 0)
(95.4228537 -1.058611139 0)
(94.49055627 -0.9794232297 0)
(93.79008823 -0.891390316 0)
(93.22339188 -0.7749590555 0)
(92.89383572 -0.6609386953 0)
(92.57533506 -0.4956987908 0)
(92.42533611 -0.361654361 0)
(92.3273872 -0.2180936145 0)
(92.28188274 -0.07371746313 0)
(107.9675413 -0.08890565217 0)
(107.9425249 -0.2626812135 0)
(107.8817445 -0.4342947835 0)
(107.7782545 -0.5974127778 0)
(107.6337061 -0.7151742778 0)
(107.404353 -0.8524925176 0)
(107.0528704 -0.975186687 0)
(106.5967459 -1.070482586 0)
(105.9119007 -1.15988307 0)
(104.8518489 -1.221859556 0)
(101.8761928 -1.199801822 0)
(100.2490368 -1.258972473 0)
(99.6552998 -1.22440903 0)
(98.01200524 -1.160527723 0)
(96.54589956 -1.094138431 0)
(95.35297732 -1.023499374 0)
(94.4136191 -0.9466634855 0)
(93.70369261 -0.8613815703 0)
(93.12467405 -0.7501011259 0)
(92.78340195 -0.6401775023 0)
(92.47135386 -0.4851160247 0)
(92.31708276 -0.3520079857 0)
(92.21588882 -0.2127235783 0)
(92.16891666 -0.07199086148 0)
(108.2339511 -0.08721074545 0)
(108.2042981 -0.2588584072 0)
(108.1344611 -0.4277397049 0)
(108.0133216 -0.5839422558 0)
(107.7642124 -0.7070868517 0)
(107.5203624 -0.8416970303 0)
(107.1533489 -0.9625839626 0)
(106.6878166 -1.053423142 0)
(105.9853309 -1.140719298 0)
(104.8832629 -1.200548183 0)
(101.8005556 -1.178440122 0)
(100.2915131 -1.237372969 0)
(99.59811595 -1.201547592 0)
(97.95143305 -1.138277448 0)