/*--------------------------------*- C++ -*----------------------------------*\
| =========                 |                                                 |
| \\      /  F ield         | OpenFOAM: The Open Source CFD Toolbox           |
|  \\    /   O peration     | Version:  v1912                                 |
|   \\  /    A nd           | Website:  www.openfoam.com                      |
|    \\/     M anipulation  |                                                 |
\*---------------------------------------------------------------------------*/
FoamFile
{
    version     2.0;
    format      ascii;
    class       volScalarField;
    location    "2.53";
    object      k;
}
// * * * * * * * * * * * * * * * * * * * * * * * * * * * * * * * * * * * * * //

dimensions      [0 2 -2 0 0 0 0];


internalField   nonuniform List<scalar> 
12556
(
36.90869365
36.90873796
36.90879751
36.90885294
36.95437659
36.95464295
36.95512741
36.9563871
36.95902256
36.96402568
36.97219139
36.98270015
36.99176031
36.99560647
36.99266975
36.98446073
36.97457468
36.966124
36.96072463
36.95724182
36.91093296
36.90947664
36.90879917
36.90842394
36.72743544
36.72762091
36.72777688
36.72801677
36.77348962
36.77491883
36.77808141
36.80550449
36.81798717
36.84150566
36.87983708
36.93015029
36.97933795
36.99917082
36.98767646
36.9486448
36.90077799
36.85938159
36.80981647
36.79025861
36.73560496
36.7310066
36.72871423
36.72764467
36.54733578
36.54778118
36.54823722
36.54883839
36.5947965
36.59863843
36.60653541
36.64223701
36.67359151
36.7311153
36.82796277
36.93778185
37.01106298
37.04143865
37.02274754
36.95913664
36.86316756
36.76957103
36.67925179
36.63593294
36.56805061
36.55766322
36.55268209
36.55066776
36.36862381
36.36902893
36.369652
36.37108902
36.41796444
36.42637264
36.44349985
36.4963545
36.56318948
36.69777034
36.87738908
37.04513452
37.14529287
37.16857261
37.12517844
37.03053042
36.89484189
36.7457078
36.58871311
36.50457408
36.4108124
36.39133166
36.38167654
36.3778679
36.1919174
36.19240596
36.19355843
36.19660645
36.2454574
36.26062019
36.29358635
36.37299901
36.51711587
36.76050405
37.04645061
37.30369523
37.46846114
37.46525127
37.3558103
37.19185714
36.9987991
36.78562918
36.56191509
36.40559413
36.26901922
36.23202251
36.21470882
36.20794159
36.01696287
36.0175604
36.01946121
36.02476035
36.07800505
36.104294
36.16328526
36.28709452
36.54289479
36.91555333
37.38737421
37.88013293
38.19484514
38.11926366
37.80967642
37.49651787
37.19693538
36.89544449
36.58199328
36.34608141
36.14329993
36.07881972
36.05024957
36.03892637
35.84458797
35.84565497
35.84912307
35.85814688
35.916383
35.95805457
36.05357249
36.24563747
36.61731548
37.17446626
37.9701824
39.16625186
39.95020711
39.75193794
38.64946323
38.00003145
37.51019067
37.07699519
36.64290638
36.32959743
36.03298761
35.93165231
35.88703368
35.86938179
35.67533532
35.67705342
35.68253702
35.69601975
35.76285444
35.82443365
35.96699509
36.23588384
36.72328059
37.49554058
38.76157262
41.38106287
42.47078078
40.0383627
38.72236116
37.94479719
37.32967265
36.74303929
36.33914703
35.93952171
35.79117925
35.72538632
35.69962365
35.5109382
35.51388361
35.52259138
35.54285026
35.61989015
35.70519928
35.90223243
36.24535642
36.84935984
37.82599468
39.47931135
43.32210715
46.92898415
41.77651593
39.60423476
38.46090113
37.63281632
36.86993874
36.36287424
35.86076018
35.6594741
35.56816384
35.53275455
35.35218297
35.35646991
35.36871421
35.3974855
35.48658761
35.60025776
35.85508247
36.26600573
36.97888274
38.12094691
40.00303145
44.2155388
50.11275306
43.37767307
40.51038288
39.01602157
37.95692726
37.00939285
36.39522788
35.79767724
35.54001895
35.42044359
35.37401307
35.20086506
35.20717368
35.22437911
35.26457077
35.36261696
35.50875638
35.82145085
36.29665026
37.11235608
38.39048408
40.43918855
44.30728787
51.70681852
44.59695236
41.34321047
39.54938625
38.27223138
37.1446122
36.43232364
35.74654189
35.43580484
35.28728689
35.22907516
35.05683668
35.06498878
35.08688972
35.13817546
35.24848952
35.42864204
35.79733439
36.33574284
37.24717178
38.64916978
40.86208947
43.93199366
52.39319628
45.44841618
42.03035221
40.00992449
38.54340068
37.26278725
36.46855746
35.70810545
35.34725928
35.17164844
35.10153497
34.92111165
34.93177812
34.96052776
35.02475827
35.14341666
35.35703304
35.78034182
36.37912116
37.38264804
38.90674121
41.32330196
43.37999369
47.25868208
52.19718091
46.01587006
42.54047636
40.38060038
38.75378574
37.35461305
36.49705571
35.67544726
35.27313174
35.0728077
34.99187009
34.79227565
34.80540611
34.84062626
34.91593584
35.05270089
35.30885688
35.78429905
36.44266319
37.54537063
39.21588723
41.85175528
42.01250642
56.01384212
52.16217367
46.33776893
42.92452641
40.62967262
38.88714829
37.41882757
36.51414132
35.64120914
35.20878802
34.98720789
34.89688699
34.66991754
34.68547654
34.72688796
34.81299511
34.96334825
35.25172806
35.76591844
36.45975868
37.61260067
39.38425982
42.18957572
37.92902998
55.62730723
51.6816271
46.45745365
43.11407446
40.76853434
38.95033555
37.44948642
36.5162759
35.60293906
35.14828155
34.90951946
34.81182907
34.55157014
34.56952047
34.61670599
34.71347126
34.87775231
35.19417231
35.74332992
36.4566789
37.62758709
39.42657752
42.15679398
33.73711697
53.56901293
51.00248644
46.44166379
43.19326846
40.78251829
38.94946408
37.44419064
36.49689902
35.55255745
35.08378186
34.83379311
34.73042445
34.43690364
34.45708747
34.50927752
34.61573095
34.79311924
35.13344681
35.71301211
36.44590487
37.60799841
39.37774314
41.78388351
33.33696119
51.09565837
50.35016705
46.2173721
43.07388429
40.69221177
38.90261275
37.40632196
36.44808716
35.49004403
35.01435895
34.75566661
34.64804391
34.3227681
34.34503453
34.40170185
34.51732126
34.7073582
35.06766893
35.67167989
36.42957863
37.58690454
39.28369281
41.34384694
34.05689705
48.33112714
49.58627353
45.81275701
42.76784405
40.49265876
38.78761514
37.31802374
36.36690199
35.40848366
34.93158491
34.67053363
34.56011368
34.21009334
34.23420072
34.29454458
34.41792258
34.61893166
34.9958134
35.61885502
36.39585214
37.57619044
39.23192545
40.92744463
33.16990924
46.2116155
48.60971088
45.21868149
42.3748461
40.24728001
38.62330455
37.1961212
36.26118028
35.31166184
34.83809523
34.5769701
34.4655314
34.09528989
34.12106863
34.18477232
34.31556148
34.52704641
34.91767448
35.55530689
36.34594657
37.54164205
39.17206452
40.47384586
29.43743449
45.0965991
47.57212913
44.61313231
41.98804102
39.98372363
38.43145562
37.05066961
36.13603227
35.20037968
34.732783
34.47328704
34.36164224
33.9813126
34.00850719
34.07488976
34.21154553
34.43139136
34.83356528
35.48235123
36.28300306
37.48781301
39.06898942
39.9323927
25.89946385
44.08877717
46.62815335
44.05454771
41.61751406
39.71602415
38.22571741
36.88913317
35.99615378
35.07815689
34.61877614
34.36211963
34.25086416
33.86345187
33.89195728
33.96105786
34.10382694
34.33219992
34.7441808
35.40157257
36.20983759
37.41873906
38.92887729
39.31462614
23.00724637
43.1220931
45.76457925
43.53377734
41.26606752
39.45132414
38.01410054
36.71729272
35.84557621
34.9456879
34.49487152
34.24144432
34.13091806
33.74741313
33.77700572
33.84825741
33.9954986
34.22987221
34.65044111
35.31461552
36.12888208
37.33714299
38.75519543
38.64804906
20.77029525
42.20552821
44.96879485
43.04471233
40.93258571
39.19316028
37.80127439
36.53942068
35.68760317
34.80747231
34.3662337
34.11640247
34.0068106
33.62598447
33.65667025
33.73047438
33.88331297
34.12510074
34.55331539
35.22304415
36.04222124
37.24481481
38.54898315
37.94941878
19.37763552
41.3423397
44.23110556
42.58311087
40.61447204
38.94283736
37.58998629
36.35855306
35.52490176
34.6623316
34.22954186
33.98300206
33.87438277
33.50880783
33.54039317
33.61615833
33.77258805
34.01839752
34.45372299
35.12829611
35.95157833
37.14262028
38.31069639
37.22786492
18.61080348
40.53178068
43.5437673
42.14558373
40.30948104
38.70039883
37.38178751
36.17678169
35.35943014
34.5159751
34.09250503
33.84937685
33.74174954
33.38405091
33.41666154
33.49511316
33.65731248
33.91050029
34.35244788
35.03155881
35.85819031
37.03037801
38.0435276
36.48947482
18.0011554
39.76703053
42.89949492
41.72914302
40.01589459
38.46530408
37.17740267
35.99547129
35.19269711
34.3639163
33.94758329
33.70725694
33.60052849
33.26756463
33.30100465
33.38138998
33.54650167
33.80171255
34.25013602
34.93372888
35.76271773
36.90741028
37.75525911
35.73748117
17.53010107
39.04266287
42.29408772
41.33139028
39.73245526
38.23693424
36.97710542
35.8155107
35.0256703
34.21492876
33.80729844
33.56996244
33.46409314
33.13958812
33.17409916
33.25745407
33.42897345
33.69273948
34.14730017
34.83539904
35.66528185
36.77323762
37.45135398
34.9791123
17.21624741
38.35766026
41.72342426
40.95030493
39.45813788
38.01469241
36.78089366
35.63741511
34.85917778
34.05888119
33.65664328
33.42154914
33.31641437
33.0261638
33.06150649
33.1468318
33.3205386
33.58356046
34.0443611
34.73694068
35.56568152
36.62807107
37.13311145
34.22436501
17.07449348
37.71214713
41.18440963
40.58424777
39.19211219
37.79807346
36.58866185
35.46149199
34.69355294
33.91141272
33.51746764
33.28495557
33.18050446
32.89429264
32.93082855
33.01946025
33.20053049
33.47500032
33.94168958
34.63858134
35.46359144
36.47255836
36.80296276
33.47433573
17.09141636
37.10470895
40.6748421
40.23186518
38.93365242
37.58661258
36.40023023
35.28790598
34.52936894
33.75180808
33.36136376
33.13064974
33.02678037
32.78697822
32.82437516
32.91504412
33.09750596
33.3666371
33.8395843
34.54044941
35.35870807
36.30771143
36.46351721
32.72555157
17.23946091
36.53292275
40.19091186
39.89201985
38.68213158
37.37989964
36.2154108
35.11675842
34.36654606
33.61014579
33.22785874
32.99932444
32.89597304
32.64926586
32.68803353
32.78233212
32.97315297
33.25965953
33.73832691
34.442629
35.25081587
36.13442616
36.11640133
31.97936464
17.48904776
35.99500252
39.73004053
39.56375615
38.43701831
37.17758555
36.03402742
34.94811767
34.20575151
33.44456268
33.06408592
32.83712527
32.73424609
32.55225969
32.5919066
32.68833789
32.88006157
33.1530533
33.63816404
34.34512037
35.13982486
35.95378175
35.76271516
31.23696488
17.79974069
35.48922561
39.28993527
39.24622101
38.19782866
36.97933498
35.85584468
34.78209021
34.04652908
33.31515185
32.94235237
32.71705747
32.61455622
32.40502021
32.44625789
32.54661747
32.74678487
33.049018
33.53955923
34.24806461
35.02573949
35.76648917
35.40349443
30.50272089
18.16940865
35.01422356
38.86922979
38.93875979
37.96420126
36.78490363
35.6807604
34.61909686
33.89033037
33.13639725
32.76534051
32.5417018
32.43961216
32.32364648
32.36578861
32.46834107
32.67093269
32.94608742
33.44334401
34.15218959
34.90859964
35.57281716
35.03989353
29.78266836
18.55692543
34.56953486
38.46744435
38.64093382
37.73585501
36.5940929
35.50862125
34.46053655
33.73718788
33.03112944
32.66419829
32.44154299
32.33968953
32.1372981
32.18167673
32.28952701
32.501885
32.84978309
33.3516127
34.06035294
34.78886788
35.37465495
34.67618484
29.08262267
18.93282301
34.1572621
38.08734225
38.35425066
37.51334434
36.40713978
35.33949054
34.31086349
33.59310506
32.80080462
32.43688394
32.21616201
32.11476053
43.16560063
47.42470634
42.83195389
44.14710489
50.9638418
47.87059077
44.33459163
52.65346018
51.26371528
43.99445585
53.33775146
52.767783
43.41871174
42.88504576
46.2846046
53.6315334
53.3778363
42.48264712
52.93467784
43.27850497
55.64614138
54.10253065
53.65559215
41.04209455
39.89727074
42.37207257
39.68279999
50.7266969
44.33521566
46.42512671
42.16985275
40.56248414
39.88463125
43.24087085
42.44816583
55.32320903
56.54870935
49.81637787
44.16118198
42.70923583
40.33483178
43.72198327
43.33204589
44.34595192
46.03065862
46.93940122
54.52080313
53.97358335
51.57707378
45.61525065
44.58682996
40.76753885
43.71145911
43.73815005
44.19412058
42.63087347
44.49592918
55.80009826
55.08279163
41.21594478
43.50108833
43.69677059
43.71025239
38.07153613
40.40961154
39.72020393
56.51629321
56.29494189
41.75111681
43.0081296
43.45994123
43.06443937
32.33214592
34.89955823
40.95830373
54.37025004
53.28411571
47.24927552
48.97355484
43.44556435
46.86620525
56.42645534
51.04853472
45.41204579
50.14085744
55.10154475
47.05082231
47.72664229
43.8307389
48.34654056
47.13201282
49.0619384
48.48594504
54.04037523
55.15069992
49.60148924
56.01257945
55.34837054
55.31876267
56.08307476
49.36110421
44.67448401
45.87678051
44.36121355
45.56244764
43.84470541
47.05358806
45.66848694
54.94725395
54.60114151
52.18789602
55.859455
56.08024446
55.31669034
55.81332506
52.00035376
40.53898239
42.51402092
44.14951874
41.60632768
39.19079529
43.72883147
41.73909506
56.25791828
55.87599098
35.05072387
37.90223998
43.67771747
40.44664584
36.04838166
33.01975118
39.05130781
36.24884778
41.18101758
56.77897185
56.54332723
39.6363812
39.75365552
32.2698749
43.01805828
49.76447773
31.88057672
74.43139466
32.93474336
31.88879857
49.07413983
39.32126617
42.30356348
40.74523394
42.30944235
45.92518018
43.05491635
60.6776393
46.77360698
43.72467981
47.80383239
47.84183761
46.27258742
52.35273983
46.55161299
45.90425644
52.86973343
49.86162148
48.44580047
52.43767892
57.06951111
56.86401685
47.68452773
46.22191382
42.56325198
54.26311188
45.35163813
52.22388182
43.96163869
49.2323955
44.80463089
48.03829429
44.33800454
53.13413019
56.2349945
56.35621472
56.09933086
56.22302602
53.06401048
39.85885478
46.86676786
45.53840722
41.48037597
41.05524447
43.0136007
43.83297918
41.54265532
41.53112552
64.84444465
47.86441632
60.359556
45.97294741
57.18685241
47.04974972
56.52032177
56.6145027
54.18125602
54.14593066
41.08550652
44.18504494
55.53758719
41.4514202
43.00647544
45.57881568
41.55442575
55.44973432
39.34323733
43.27478637
42.93502116
52.53747348
50.63754607
48.10384964
33.94130577
41.12723861
40.63084214
41.75424251
41.30407568
34.09019702
58.23221064
54.6931809
48.1174604
54.96067034
55.89885977
50.90649853
54.64906495
48.35323906
45.01901915
50.00511355
44.77501868
55.17861071
50.72666489
45.55504678
52.88050463
58.05164806
54.39854171
54.01176211
47.77385894
44.05161622
47.69658553
48.94231396
47.29626701
50.38965388
44.42942511
46.88885343
48.84751707
54.68480876
54.78581141
55.68328907
53.47387079
52.8632384
54.08720874
53.64500929
55.63231709
56.25662232
51.51590558
50.49430912
52.63033238
51.81910176
56.29909266
44.78260331
44.67170764
46.45378133
46.36640266
55.08756557
46.12587872
55.02802691
40.65366918
40.48902244
42.79711807
42.66216733
43.49079694
47.30696453
56.06673575
43.66472281
41.11563348
36.80174972
42.31748224
41.90135757
42.81660265
42.44746821
36.94719963
39.61795112
35.17888333
35.04962579
38.07272146
37.93359069
54.10048524
40.94894159
54.35918211
53.06338458
40.44000652
39.973821
31.91762236
33.03577509
41.52418073
41.50090343
32.51199395
67.3997797
41.83747148
59.24410077
32.43322011
46.5040362
44.48643071
40.62073916
59.43860262
39.93650606
40.34574743
42.1262259
42.55262398
42.91798008
41.50171234
33.66363171
41.1419533
56.12920444
53.50850934
54.03016974
53.02908854
40.61593704
43.39323325
55.52693733
54.70543481
41.68009573
57.17901672
57.12014582
52.93793826
43.10244462
42.62368041
44.95479288
45.97239623
42.86472155
43.15569201
55.91016822
58.58966173
57.60234787
56.74510565
54.3075257
45.52042128
45.91704076
48.38781305
47.6592607
53.88510735
43.46666556
44.75412299
44.51100851
45.05600488
44.83202908
43.6023143
43.69282071
43.38161766
39.47906087
32.70933116
37.75338387
37.32936691
66.97354329
50.28224003
53.68004238
55.74850106
59.61000769
58.83829092
52.55775893
48.4282762
47.01049041
50.11501338
48.87494724
52.91675584
54.28203772
49.56692527
48.72159996
54.87928455
45.21463498
45.31876872
45.12598522
40.35208199
40.84664186
44.20610438
46.16179595
46.49844739
54.78371124
55.97132781
54.92231876
54.81847068
55.36978532
54.50683594
54.20595033
54.77495656
54.58337376
55.38615244
41.54156727
44.07506874
43.79153683
44.42698439
44.16573618
41.67400942
41.20818104
35.99061627
36.31060327
33.58109064
33.80166271
39.66619679
43.34095673
39.56396553
40.21245216
36.43916672
36.79997619
42.13532657
56.11440768
47.86576661
51.47449243
57.97127068
39.65017947
35.63531547
33.85627089
38.63537276
33.26746589
33.50737264
32.74886301
37.18764064
48.79669761
38.74854363
38.68112209
37.88498259
37.19181352
36.78648099
32.14282487
40.64876569
41.79436542
51.62615631
31.86989142
85.37797592
43.15786894
41.64887098
46.283894
32.75761685
31.97396054
54.6721752
53.64536304
53.62765711
46.46037116
46.44660175
40.40997819
39.95220585
53.13376508
52.37402591
52.27592828
47.95095633
57.03671285
48.11130769
57.51002164
48.79010933
43.07904974
40.69647854
46.06672463
45.88080718
49.6480814
46.63641725
40.99639729
40.78638384
48.20897094
58.22544989
41.02406318
45.84954519
64.38155222
39.6999795
40.38198678
39.79478157
39.67989493
56.98763671
65.43329602
54.46700987
50.99702242
58.15501154
55.24079912
50.32954585
47.439325
52.32209693
55.76127581
55.15164866
56.1351368
56.74229402
57.27873161
56.17361101
46.37097484
45.69303484
54.24729702
46.75237499
47.12687397
45.26027935
46.49795295
47.26707378
53.93259379
47.53656208
46.62937949
41.35358716
41.65587414
41.61351438
51.2680668
50.45042711
43.0085532
48.72690164
47.36744005
50.12310977
49.16219141
42.46342577
41.66956661
42.22002912
40.86324328
38.34962585
37.88072142
33.04681597
34.43212139
38.87192968
38.4824551
56.94815943
56.4244546
55.98293817
50.9608381
51.51954686
49.95815564
50.73544855
56.27350021
53.18660485
51.71416782
51.5395221
51.6376959
51.7320389
53.45143319
53.581767
48.7736128
49.69718464
56.47201187
56.90642523
59.23595226
58.84135015
55.42530768
60.37993241
61.10334034
61.36194386
59.9981827
59.02554129
61.30498755
59.8785869
52.75272398
58.10212419
59.2815795
42.71105284
47.88083875
47.04631378
48.66540624
48.10648914
43.26542206
45.8838088
45.30569169
46.75517979
46.08261945
48.53754665
50.79868798
50.28756072
51.41522664
50.96226525
48.98121427
45.41754732
49.40143128
48.85344557
50.11305475
49.58148412
45.77580069
50.70343676
49.75773362
54.37829711
54.89307366
52.12513532
51.06018392
39.8950569
39.41111491
40.73462999
40.06480408
38.6413499
38.16915512
39.25839025
38.78185526
44.37766636
43.82859036
45.11875927
44.56580756
42.73103469
41.16721094
43.62786883
43.07612693
45.09855044
44.36834496
46.96908038
45.57834245
46.63494728
44.11796486
44.91973229
44.15420437
43.90209822
35.55031234
35.863698
41.07426841
33.99419374
33.77509835
34.29915974
34.08476704
33.66603948
39.86887742
33.88843781
35.26976385
37.60462111
39.27939748
43.20965897
37.25895092
35.24560921
38.07246613
37.34608958
34.67199729
34.39892817
35.10161665
34.77961027
42.26665174
36.92865691
37.36014884
49.6345069
42.19190909
48.83819025
45.32762886
48.59857451
41.76699663
60.11649268
39.54989234
58.02595743
51.58127433
35.51714591
34.43323897
32.98107107
33.1966087
38.49670781
37.42654831
32.77428463
32.92429672
53.85376638
32.07830956
36.59628328
35.91686343
67.86166904
75.01534216
31.79945232
79.11817249
58.95521378
41.14071207
32.69062464
67.15344881
44.44076856
76.9776902
46.2750291
32.08950055
42.05446427
40.0658536
38.86035977
52.02448541
51.64927074
52.8144641
47.12592405
46.74166335
51.96096468
41.27848755
40.40181283
39.62782588
56.36489113
56.29551363
53.51165721
44.9097656
44.39337478
47.08401043
51.91844627
44.83721567
44.96262658
41.0125838
41.3525498
43.62919749
49.40200055
52.76390615
55.40242804
46.45187843
45.68058166
45.57388841
45.7684849
45.70846465
46.58060293
44.58464202
42.83712152
40.65866759
52.08000538
53.51553234
56.42597347
39.36725237
38.99497116
34.55047027
56.1604496
57.83270754
52.36449212
45.53003071
45.37649949
45.38619838
45.2299413
42.34168137
42.95928115
43.25843851
44.17555807
45.98547648
35.86946881
39.87724586
39.4896022
45.88999731
43.94071585
40.02700359
32.28230034
32.31563148
33.15076643
42.59775732
55.01330336
49.74379619
39.75704444
47.22986133
45.12470976
31.86637367
32.87340491
32.24151024
32.26471783
31.90453071
61.14044772
46.17070592
41.43967372
42.61886667
52.23803905
40.32318857
40.99495686
50.10265513
53.55914823
46.51897317
45.00203791
46.865874
46.604806
40.48653009
40.25086987
61.43647877
63.66204338
65.24816942
55.28537961
62.39788213
42.60811587
42.85624844
45.41103691
62.25371779
58.00962839
55.675922
65.24572689
62.68736047
41.08508609
42.72383436
42.03974272
47.38709601
46.78769659
42.73003083
52.27481193
51.55282703
41.80044019
45.733543
42.19834836
42.39991247
44.68999485
40.12550462
40.57738813
57.95096226
58.69376148
55.31168583
55.32295157
54.2546899
54.09822146
51.44783486
52.38649832
52.02677856
53.93040323
53.72362724
54.23860645
47.36477177
48.47502592
53.06895595
54.32791367
59.48222933
56.00739798
59.71782631
60.05732309
57.47005158
41.14554465
43.23317143
42.72260592
46.75368319
46.52747001
43.8215765
40.69086979
40.45887947
42.30153175
41.96566919
47.70452072
49.78333408
49.46964913
51.69137942
51.36942383
49.90268801
44.71569275
47.3417778
47.07514972
49.15343938
48.84527485
46.51060689
41.6671837
42.16894132
45.12217905
44.32017849
41.00568924
41.50335047
45.08206665
45.56734637
46.7199602
39.09270001
38.94982023
40.25391936
40.06953975
36.8965959
38.73243787
38.61326531
46.08073536
44.40223415
44.91342608
46.21417633
46.10195845
42.73002178
43.05978858
46.04035454
46.1630806
46.60339107
54.84212926
46.67414544
48.00524887
40.36149875
40.00159645
36.19984999
37.34719854
40.79378152
40.46941568
33.31061713
33.37845738
35.29154394
34.91114127
33.14154309
33.23472311
54.27366938
32.02911382
32.8373214
32.21291404
108.1438169
32.26018372
41.19980316
54.2060165
48.82331818
32.01297117
32.04541998
32.56005752
66.11496287
71.40248191
69.10016126
53.01001396
32.38807779
31.96583376
31.99043017
41.36751367
40.81697293
39.94988321
51.92581323
51.34626683
43.76324112
42.63230273
40.14735071
54.3678854
53.76923467
58.24098617
41.24850724
50.3788767
46.55431659
50.61764067
49.78754042
42.11931074
44.01288672
44.64809649
48.45759221
53.88006233
54.21876512
53.35754798
53.62439796
58.30644888
57.51015038
57.74484062
57.01467155
57.25893946
57.92859847
48.1214517
48.38842688
48.61256996
48.03468905
48.16977868
48.00408127
59.30745612
58.25680923
58.24767145
57.97028522
58.15498569
59.07719819
49.15855928
49.36948931
49.6234662
48.86193777
49.10551376
48.91979741
52.68600224
52.86590608
52.02701701
52.21464252
36.07704963
38.29213521
38.16594864
33.66844739
35.06779158
34.97143913
35.37260203
35.1828293
33.73869388
55.44328867
56.65646828
50.53294827
56.25855196
32.68601271
32.64661986
32.78555697
32.74204855
32.44417864
33.39554917
32.36133399
32.48783357
33.3520218
34.72606008
34.63667652
34.89044752
34.80693008
33.42585432
32.9066827
32.83916698
33.55014724
33.06317329
32.86948452
56.00717602
54.29554402
44.75180005
56.55008252
34.14614763
33.36276238
39.32339117
32.17425479
33.67610007
33.52897488
31.84207533
83.48605182
85.07873874
61.87779701
74.58534778
64.36179685
32.16995547
32.21020871
32.81954468
31.93550063
58.38406084
63.5400611
58.71488709
60.28916093
56.65883882
49.39190257
62.38676697
57.36270655
46.73389095
46.85203048
53.2029282
44.16620981
47.41304717
53.21739392
50.59114743
54.13311463
49.59232819
52.56028813
58.89660095
60.38494669
53.43573212
57.75452051
61.3146653
49.43233201
50.57990871
48.89177277
52.80149654
61.02883104
61.14015012
59.1649192
42.09020141
53.94143645
48.38333656
59.79420941
60.77491768
43.8847293
46.35587722
49.65188709
63.18876595
51.91017704
42.55713274
43.95901224
61.67482496
58.45676774
61.96208623
57.04468653
59.55012497
61.93456941
63.12207302
62.47407212
55.27120679
55.41190593
55.65542559
54.8222469
54.96485807
55.00243733
56.89183186
56.49973497
56.7513231
55.96258865
56.21315785
56.53119762
46.1411679
48.81477202
48.80413053
46.85615903
47.0895453
45.68950159
46.84903701
46.60384339
46.32617776
47.64402756
48.00460207
47.07855743
48.18482743
48.00247503
48.73427685
48.51652109
46.82757616
46.78391214
44.42901031
41.1785665
48.04748346
47.92369953
47.70948373
42.10012421
46.96856106
46.55880063
42.19743438
42.13676022
44.08574839
57.49840005
55.8195713
53.11963467
52.76280009
51.96698381
53.94550279
53.54799633
53.29778653
60.67175551
60.33916163
55.59456858
60.85584415
62.92621159
57.31441493
60.50045112
60.65477213
59.12047334
57.93355035
57.81936076
58.08970299
58.07822277
58.99135065
60.74046765
60.87479163
59.78191588
62.55180073
62.5120846
62.35626429
62.50430534
59.60415731
61.41882836
62.0587946
63.76510099
61.42213216
45.42650623
45.2734876
42.6513003
43.4187673
46.16152041
46.00088776
41.1670136
40.92015238
41.68282207
41.41673226
50.41373996
50.09621166
48.1055285
49.43746762
51.05134084
50.73252186
47.93715516
47.65329835
45.09888981
46.11968976
48.53480331
48.23932099
50.45612697
50.43525178
50.70852668
49.89176056
50.16147545
50.0676418
51.72067269
51.44263165
51.6304296
50.98291911
51.23203278
51.44746245
39.72810669
37.0170311
37.1651701
36.74863486
36.88758698
39.5709133
40.45770525
37.65124638
37.87107744
37.30986294
37.47441182
40.24939291
38.47187925
35.96266066
36.1051087
35.73224694
35.87217105
38.34853072
39.09755869
36.48068617
36.62243224
36.21203775
36.35910545
38.94811175
39.46906727
39.30508962
44.19647449
42.19993521
42.38351889
41.8192433
41.98653756
44.00455658
39.85801723
39.67813606
37.98232374
37.84680085
42.46858835
40.5147553
40.58092533
38.19461987
38.65600141
41.79056831
43.46277963
41.45121102
41.58968354
41.07655573
41.17706165
43.2336058
38.3815925
38.28578128
45.61731406
45.73521112
46.18680916
43.51898203
44.33644842
44.34526371
46.32922646
46.40653463
46.48554841
46.51977185
44.64863946
43.96090125
44.83831998
44.24434893
46.0014296
45.88444966
43.85499697
35.62680356
37.73170524
37.59991959
38.02018969
37.90133951
35.79062435
33.93688667
33.8350707
34.23106641
34.13844305
33.64137281
33.63122773
34.06447162
36.41515735
35.7400142
37.33063562
37.06528057
34.98212279
35.76596758
34.80555492
35.16810816
35.44603124
37.85450803
35.50600697
35.6559625
35.26386785
35.43643638
37.77474727
34.58290078
34.47872743
34.99003591
34.8766586
48.1828472
41.44368839
42.07518195
40.71216196
40.97704421
48.59026253
47.69884998
47.43610344
42.91926149
44.8951774
48.92185525
56.90102787
44.3676668
46.44663195
41.22142962
42.68260133
57.76133982
32.52158741
32.46964971
32.60361635
32.56875476
32.76122302
33.02690483
34.71024776
32.29480592
32.24375034
32.41734904
32.35336704
33.05277907
34.37461774
34.28039782
34.55222164
34.45896621
33.11704428
32.82275538
33.99299063
33.85641133
34.19462931
34.09819461
32.86976248
53.25477153
33.45089806
33.15803407
32.01384221
66.06311661
91.62593283
97.06790045
90.85910833
91.96735207
71.21303135
32.01743282
69.50744983
51.03447376
54.64959995
32.62596012
32.06997224
32.12464357
67.29051037
74.37997445
72.51428365
58.79375773
65.24813492
79.26671805
74.69532015
49.33397882
70.56499191
61.93145279
32.24187381
31.89640603
32.17732468
36.68175026
36.69934804
36.81384344
36.7071013
36.74035167
36.83399334
36.75393039
36.808905
36.86831206
36.82990755
36.9054949
36.91648948
36.92678701
36.98444145
36.96723687
36.99620658
37.02172577
36.99581424
37.02480888
37.01719414
36.99544779
37.00939004
36.96877445
36.96084209
36.95155428
36.88662658
36.91311027
36.86461071
36.80330098
36.86913729
36.53088854
36.56887258
36.66389687
36.58635004
36.66105029
36.71405771
36.69614773
36.81441829
36.79990394
36.85533139
36.97452463
36.91296001
37.0073178
37.08266652
36.99774551
37.09963567
37.12609956
37.03892945
37.1245215
37.10399559
37.03153535
37.0903427
37.03089268
36.97854616
37.00569096
36.91492253
36.88824894
36.88099771
36.77732873
36.78909638
36.40172275
36.48152473
36.54187305
36.52100616
36.6773777
36.65706105
36.73632133
36.92620188
36.8316459
36.99043768
37.16743725
37.00796818
37.21649994
37.34467684
37.12725094
37.36532113
37.37641261
37.17076322
37.36068705
37.30827186
37.14136109
37.28098996
37.18060799
37.05822319
37.14135575
37.01124284
36.93229751
36.96475435
36.8193779
36.78138102
36.30425492
36.46074288
36.46903434
36.53076932
36.77376951
36.69444793
36.86664712
37.17595229
36.97391495
37.28248642
37.60154687
37.24575396
37.69310139
37.92069098
37.4375724
37.95547015
37.95519563
37.46735269
37.87658528
37.72801234
37.38949904
37.66640696
37.47058175
37.23750818
37.40364981
37.20378467
37.04942046
37.13624018
36.9335808
36.84026292
36.25196497
36.4960308
36.46571389
36.59562542
36.95857659
36.81192081
37.10109467
37.60541526
37.26301741
37.79907584
38.48097255
37.75589948
38.72963016
39.58982587
38.13655236
39.61612833
39.39506149
38.13012276
39.06037473
38.556344
37.88886674
38.39213378
37.97381478
37.57308411
37.85119861
37.52401962
37.27075621
37.41991326
37.12386844
36.97263371
36.23651696
36.56353256
36.5103258
36.69819
37.20611051
37.01400326
37.41605557
38.213283
37.7434791
38.55763838
40.45984156
38.79224254
39.79672611
40.4248174
39.45147479
41.03479662
41.10997388
39.95323663
40.5292135
39.85904969
39.40959309
39.64046341
38.74905771
38.13951827
38.52671098
37.97664386
37.62532239
37.81910186
37.39505754
37.18267976
36.24178694
36.64635887
36.57991098
36.81742296
37.47071635
37.26800531
37.74642735
38.83283756
38.37598706
38.96129293
39.47663247
39.2295246
41.7108484
42.36390555
41.94684307
44.15610506
42.85810558
41.61376863
41.33700276
39.7529348
38.97589672
39.39639523
38.55914335
38.11696291
38.33109818
37.73337621
37.47263983
36.25985609
36.74134353
36.66960517
36.94598618
37.72342856
37.53597458
38.0500751
39.32236294
38.96767376
39.62453751
40.2812522
40.11083156
43.46701253
44.52725085
44.36637393
48.33734478
45.79581223
44.72561542
43.00617091
40.81032351
40.00207022
40.32263882
39.18754874
38.70424146
38.88423882
38.10541443
37.82267035
36.28817971
36.84348222
36.7663656
37.07833662
37.95923593
37.78383557
38.32441162
39.7214235
39.42755519
40.11694226
40.84357355
40.7140336
44.27278737
45.3172653
45.33471462
50.86610765
47.90443587
47.23489988
44.31979275
41.75478757
41.03906919
41.16804937
39.7993186
39.33152523
39.42584083
38.47373071
38.19661018
36.3241297
36.94999282
36.87032149
37.21238928
38.18533999
38.01689388
38.5841273
40.09644976
39.81434943
40.54925951
41.34169061
41.21427404
44.27378125
44.74901866
44.90614355
52.05311425