/*--------------------------------*- C++ -*----------------------------------*\
| =========                 |                                                 |
| \\      /  F ield         | OpenFOAM: The Open Source CFD Toolbox           |
|  \\    /   O peration     | Version:  v1912                                 |
|   \\  /    A nd           | Website:  www.openfoam.com                      |
|    \\/     M anipulation  |                                                 |
\*---------------------------------------------------------------------------*/
FoamFile
{
    version     2.0;
    format      ascii;
    class       surfaceScalarField;
    location    "1.04";
    object      meshPhi;
}
// * * * * * * * * * * * * * * * * * * * * * * * * * * * * * * * * * * * * * //

dimensions      [0 3 -1 0 0 0 0];
oriented        oriented;


internalField   nonuniform List<scalar> 
25162
(
0
0
0
0
0
0
0
0
0
0
0
0
0
0
0
0
0
0
0
0
0
0
0
0
0
0
0
0
0
0
0
0
0
0
0
0
0
0
0
0
0
0
0
0
0
0
0
0
0
0
0
0
0
0
0
0
0
0
0
0
0
0
0
0
0
0
0
0
0
0
0
0
0
0
0
0
0
0
0
0
0
0
0
0
0
0
0
0
0
0
0
0
0
0
0
0
0
0
0
0
0
0
0
0
-2.579704484e-09
1.143884116e-07
-1.280971696e-06
0
6.768943817e-09
1.089027296e-06
0
0
0
0
0
0
0
0
0
0
0
0
0
0
0
0
0
0
0
0
0
0
0
0
0
0
0
0
0
0
0
0
0
0
0
0
0
0
0
0
0
0
0
0
0
0
0
0
0
0
0
0
0
0
0
0
0
0
0
0
0
0
0
0
0
0
1.238885679e-08
-1.801177368e-06
-1.030811249e-06
1.137650276e-05
3.849322435e-06
-0.0001005321903
-8.566269552e-06
0.0001421632485
6.170786916e-06
-0.0002639819427
-1.189789924e-05
0.00029596036
1.016822204e-06
-0.0003436577848
-3.625609673e-06
0.0003404748792
-5.739773546e-06
-0.000274256435
9.581064034e-06
0.0002366007257
-3.071426357e-06
-0.0001058141911
8.758922266e-06
6.595251011e-05
0
-1.945028442e-06
1.766885779e-07
0
0
0
0
0
0
0
0
0
0
0
0
0
0
0
0
0
0
0
0
0
0
0
0
0
0
0
0
0
0
0
0
0
0
0
0
0
0
0
0
0
0
0
0
0
0
0
0
0
0
0
5.711539668e-07
-3.678950603e-06
-2.553161098e-06
2.622390904e-05
1.420918071e-05
-0.0002269229513
-2.015211443e-05
0.0003238221365
3.36475372e-05
-0.0006472537302
-4.626852176e-05
0.0007537785416
4.77459084e-05
-0.001026563032
-6.706017966e-05
0.001093773655
2.915399406e-05
-0.001200150464
-4.497488536e-05
0.001200364249
-1.668880635e-05
-0.001089852299
1.498182698e-05
0.001017285286
-4.104858119e-05
-0.000714765016
5.47413499e-05
0.0005959504056
-1.744093727e-05
-0.0002490661641
3.085098213e-05
0.0001545452129
0
-3.74722927e-06
4.328489059e-07
0
0
0
0
0
0
0
0
0
0
0
0
0
0
0
0
0
0
0
0
0
0
0
0
0
0
0
0
0
0
0
0
0
0
0
0
0
0
0
0
0
0
0
0
0
-1.934338362e-07
1.325265104e-06
1.34940739e-05
-0.0001594498461
-1.549062646e-05
0.0002724417912
3.968868581e-05
-0.0007187643649
-4.699320854e-05
0.0008857119297
9.850794571e-05
-0.001374361303
-0.0001199206925
0.001519446511
0.0001416310385
-0.001860335749
-0.0001682253413
0.001937604532
0.0001083507133
-0.002057503154
-0.0001304766581
0.002061164425
8.008198719e-06
-0.001958583444
-2.098125544e-05
0.001882939519
-9.198893387e-05
-0.001521862672
0.00010034119
0.0013610629
-7.660277997e-05
-0.000837095147
9.799575655e-05
0.0006607274292
-1.887937819e-05
-0.0001980753313
3.173062325e-05
9.801535558e-05
0
0
0
0
0
0
0
0
0
0
0
0
0
0
0
0
0
0
0
0
0
0
0
0
0
0
0
0
0
0
0
0
0
0
0
0
0
0
0
0
0
0
4.63925705e-06
-1.806757621e-05
-6.805724042e-06
7.760792519e-05
2.501409542e-05
-0.0004633655951
-2.623753974e-05
0.0006417349635
6.264439539e-05
-0.001258041273
-8.168733816e-05
0.001468469724
0.0001901927847
-0.001985082016
-0.000196005866
0.0021002219
0.0002324688543
-0.002344903446
-0.0002435391831
0.002380750596
0.0001770031194
-0.002415099823
-0.0001814577449
0.002415987919
7.252952726e-05
-0.002395586075
-8.797890293e-05
0.002361119777
-5.812631136e-05
-0.002155821757
5.282031123e-05
0.002010755022
-0.0001826503032
-0.001412567213
0.0002014174493
0.001191761128
-8.422673234e-05
-0.0005418981285
0.0001034873037
0.0003602854288
-2.422164417e-05
-1.506928464e-06
2.777238626e-06
3.662122593e-07
0
0
0
0
0
0
0
0
0
0
0
0
0
0
0
0
0
0
0
0
0
0
0
0
0
0
0
0
0
0
0
0
0
0
0
-1.71086883e-07
1.276640779e-08
4.783431848e-07
1.213779649e-05
-8.618094068e-05
-1.348966584e-05
0.0001931880204
1.953035941e-05
-0.0007062509157
-2.862757114e-05
0.0009374549244
0.0001236692058
-0.001605395835
-0.0001316354957
0.001805377127
0.0002492829671
-0.002260255496
-0.0002816039379
0.0023573861
0.0002232170921
-0.00244036961
-6.005489435e-05
-0.0001134944319
0.001185376561
0.001205325284
-0.001180039972
9.343969172e-05
-9.383198035e-05
0.001180432261
-0.001213176433
0.0001597260242
0.002429747481
-0.001227608403
-5.98166068e-05
-8.887206186e-05
-0.002313221592
-6.797402152e-05
5.406858969e-05
0.002228812382
-0.0002326694432
-0.001753824076
0.0002324170296
0.001541258334
-0.0001566580602
-0.0008285794916
0.000175943315
0.0006080761168
-0.0001206492968
-1.518334572e-05
2.047447342e-05
3.81222061e-05
0
0
0
0
0
0
0
0
0
0
0
0
0
0
0
0
0
0
0
0
0
0
0
0
0
0
0
0
0
0
0
0
0
7.172658535e-07
0
-1.541435908e-06
4.254548101e-06
6.398445396e-06
1.554571081e-05
-0.0001383682741
-1.573133334e-05
0.0002704563733
2.970292472e-05
-0.0008555325241
-2.980144282e-05
0.001086590761
0.0001555975988
-0.001757220726
-0.0001598503342
0.001944471837
0.0003183732344
-0.002294123352
-0.0003251164266
0.002322491167
0.0001286511051
-0.001179221839
-0.0001268560642
0.001177426798
-0.001169003812
5.717089537e-05
-5.533967929e-05
0.001167172596
-0.002305609873
-2.271170727e-05
1.556996213e-05
0.002262229969
-0.0002525382124
-0.001870312762
0.0002531933979
0.001670029587
-0.0002141394868
-0.0009736871221
0.000218939115
0.0007437915143
-0.0002027144341
-3.371955235e-05
3.975895623e-05
8.859023264e-05
0
0
0
0
0
0
0
0
0
0
0
0
0
0
0
0
0
0
0
0
0
0
0
0
0
0
0
0
0
0
0
0
0
2.010979352e-06
0
-2.5283644e-06
1.106591856e-05
1.23146759e-05
1.682858698e-05
-0.0001648039877
-1.701407887e-05
0.0003033967647
3.183678762e-05
-0.0008923185073
-3.217791114e-05
0.001119131159
0.0001707178353
-0.00176179158
-0.0001725871454
0.001933624681
0.0003339142538
-0.002223099809
-0.0003350440501
0.002233339036
0.0001331582187
-0.001119568579
-0.000133139513
0.001119549873
-0.00112612584
5.158157637e-05
-5.099777428e-05
0.001125542038
-0.002242258344
-5.790689483e-06
4.099268665e-06
0.002216616046
-0.0002494496386
-0.001882854465
0.0002480554106
0.001699611662
-0.0002396346901
-0.001036197136
0.0002432063026
0.00080853035
-0.0002403715783
-4.775137226e-05
5.038105848e-05
0.0001167316197
0
0
0
0
0
0
0
0
0
0
0
0
0
0
0
0
0
0
0
0
0
0
0
0
0
0
0
0
0
0
0
0
0
3.0150602e-06
0
-3.672552752e-06
1.595690832e-05
1.754559228e-05
1.743497731e-05
-0.0001778012362
-1.758778324e-05
0.0003172762212
3.270975442e-05
-0.0008962209489
-3.299721925e-05
0.001115923425
0.000176566548
-0.0017299047
-0.0001783238887
0.001891033229
0.0003372647341
-0.002151017908
-0.0003379313376
0.00215656197
0.0001330619621
-0.001079785531
-0.000132683534
0.0005400312022
0.0005393759009
-0.001085753393
4.951855943e-05
-4.917818326e-05
0.001085413017
-0.002161570286
-6.601536211e-06
8.657767365e-06
0.002131403186
-0.0002465656305
-0.001795781512
0.0002457462585
0.001617013783
-0.000240044647
-0.0009797607227
0.0002379581872
0.0007636807338
-0.0002265184739
-4.861803902e-05
4.777797273e-05
0.0001096360381
0
0
0
0
0
0
0
0
0
0
0
0
0
0
0
0
0
0
0
0
0
0
0
0
0
0
0
0
0
0
0
0
0
4.379304554e-06
0
-5.171237097e-06
2.264481936e-05
2.450109394e-05
1.801014609e-05
-0.0001935788474
-1.813973009e-05
0.0003344160389
3.394609704e-05
-0.0009045348487
-3.428784838e-05
0.001117434099
0.0001838419449
-0.001703528905
-0.000185807473
0.001854088227
0.0003399385438
-0.002084633365
-0.0003404720141
0.002086892452
0.0001326092898
-0.001045346356
-0.0001324711705
0.0005231075466
0.00052210069
-0.001048328269
4.847835035e-05
-4.821218682e-05
0.001048062106
-0.002079396005
-2.088595755e-05
2.669576459e-05
0.00202724869
-0.0002456074833
-0.001639719507
0.0002354797582
0.001471044644
-0.0002188197696
-0.0008558331077
0.0002121187351
0.0006545120495
-0.0001720104002
-3.649637557e-05
3.38928082e-05
7.405398963e-05
0
0
0
0
0
0
0
0
0
0
0
0
0
0
0
0
0
0
0
0
0
0
0
0
0
0
0
0
0
0
0
0
0
6.090697574e-06
0
-6.42299041e-06
3.108286508e-05
3.182192597e-05
1.849987583e-05
-0.0002108850225
-1.861768131e-05
0.0003527269914
3.551911436e-05
-0.0009122641668
-3.605804131e-05
0.001117737485
0.0001923541702
-0.001674475291
-0.000195004718
0.001814267422
0.0003417245609
-0.002015202214
-0.0003418283381
0.002015443155
0.000131959572
-0.001009852612
-0.0001319214767
0.000505271624
0.0005045428924
-0.001009165253
4.765398653e-05
-4.7692751e-05
0.001009204017
-0.001969894885
-4.308866835e-05
4.971693339e-05
0.001889836532
-0.0002301232951
-0.001473048349
0.0002394449648
0.001280768489
-0.000183730309
-0.00068610717
0.0001708755909
0.0005045335924
-0.0001069183943
-2.13475038e-05
1.78084409e-05
3.502390639e-05
0
0
0
0
0
0
0
0
0
0
0
0
0
0
0
0
0
0
0
0
0
0
0
0
0
0
0
0
0
0
0
0
0
8.562510958e-06
0
-1.016009206e-05
4.534319398e-05
5.115205198e-05
1.955880847e-05
-0.0002342840223
-1.943097658e-05
0.0003742750889
3.815306135e-05
-0.0009257591393
-4.125810488e-05
0.001124039592
0.0002044484475
-0.001653234869
-0.0002000407726
0.001776723872
0.0003422457917
-0.001943825392
-0.0003417461126
0.0009739478625
0.0009693778503
6.650271273e-05
-0.0004871107621
-6.637025974e-05
0.0004869783091
3.94438182e-05
-0.0002423423581
-3.904862767e-05
0.0004842067542
-0.0002422595866
-0.0009692160046
4.82411035e-05
-9.27198556e-05
0.001935137808
-0.0009645179469
4.307489533e-05
-6.41985564e-05
-0.001822838375
7.625417554e-05
0.001708499159
-0.0002285384764
-0.001252167243
0.0002212055285
0.001068567951
-0.0001361881236
-0.00051925028
0.0001258096367
0.0003602524767
-4.144323582e-05
-6.440280349e-06
4.902316157e-06
4.112764384e-06
0
0
0
0
0
0
0
0
0
0
0
0
0
0
0
0
0
0
0
0
0
0
0
0
0
0
0
0
0
0
0
0
0
1.193221834e-05
0
-1.020982782e-05
5.831385168e-05
5.283481088e-05
1.920575066e-05
-0.0002635617823
-1.932204698e-05
0.0004124457389
4.311971184e-05
-0.000965690237
-4.201323304e-05
0.00115872344
0.0002213203183
-0.00164789133
-0.0002146707881
0.001757666947
0.0003413821609
-0.001872564687
-0.0003413821608
0.0009387199026
0.0009338447839
6.709825966e-05
-0.0009387199027
-0.0001329383809
6.584012122e-05
0.0004696972244
0.0004690226783
9.267974335e-05
-0.000469697304
-9.267962395e-05
0.0009387199027
-0.0004690227181
-0.001872564687
9.921083586e-05
-9.700415848e-05
0.001866156131
-8.980916452e-05
-0.001637964434
9.176798907e-05
0.00151043137
-0.0001925444034
-0.001014215128
0.0001936110387
0.0008301215902
-8.846363562e-05
-0.0003369628744
7.301388062e-05
0.0002177112885
-5.387064208e-06
-8.250245685e-07
3.645478023e-07
0
0
0
0
0
0
0
0
0
0
0
0
0
0
0
0
0
0
0
0
0
0
0
0
0
0
0
0
0
0
0
0
0
0
6.796421967e-06
0
-2.666717361e-06
2.553806194e-05
1.577098315e-05
1.949286056e-05
-0.0001818051182
-1.901411381e-05
0.0003080540549
3.750632997e-05
-0.0008136071137
-3.616222874e-05
0.0009991345306
0.0001738967832
-0.001492574501
-0.0001564273281
0.001613519239
0.0003189620444
-0.00180034822
-0.0002967683419
0.001808081667
0.0001329383809
-0.001801930528
-0.0002608496797
0.001801930528
0.0001279112988
0.0001803259808
-0.001801930528
-0.0001803259809
0.001801930528
8.185918297e-05
-0.001765540245
-7.328352482e-05
0.001711001578
-0.0001058162198
-0.001394655069
0.0001070948696
0.001248224885
-0.0001619917288
-0.0007547751513
0.0001490494695
0.0005912690751
-4.128493707e-05
-0.0001828749297
3.398835924e-05
9.546730815e-05
0
0
0
0
0
0
0
0
0
0
0
0
0
0
0
0
0
0
0
0
0
0
0
0
0
0
0
0
0
0
0
0
0
0
0
0
0
6.755533802e-08
0
0
1.3244892e-07
0
1.393230514e-05
-5.842224444e-05
-1.092715789e-05
0.0001327677744
3.298294328e-05
-0.0005019254591
-3.161021855e-05
0.0006559478028
0.0001053233379
-0.001118493752
-9.065608531e-05
0.001252367875
0.0002175313001
-0.001540722093
-0.0001894493008
0.001597129069
0.0002364373552
-0.001674085756
-0.0002157887008
0.00167806128
0.0001675373003
-0.001641492225
-0.0001523421247
0.001609569987
3.843548081e-05
-0.001428229614
-2.528217993e-05
0.001336347341
-0.0001021700083
-0.0009827121845
9.636229375e-05
0.0008484275381
-0.0001000259243
-0.0004474458894
8.193957604e-05
0.0003272614418
-1.216732793e-05
-6.134098619e-05
6.782554872e-06
1.701138065e-05
0
0
0
0
0
0
0
0
0
0
0
0
0
0
0
0
0
0
0
0
0
0
0
0
0
0
0
0
0
0
0
0
0
0
0
0
0
0
0
0
0
0
1.664534124e-06
-1.225859484e-07
-3.006948766e-07
9.326998059e-06
2.295420909e-05
-0.0001669516917
-1.8228146e-05
0.000256543915
5.522780586e-05
-0.0005796353683
-4.552584258e-05
0.0006896031751
0.000110989907
-0.0009697515769
-8.869112273e-05
0.001038017197
0.0001352743431
-0.001153747577
-0.0001077372549
0.001162946934
8.770662435e-05
-0.001108289048
-6.564536521e-05
0.001064241882
-7.609021893e-06
-0.0008650055807
1.384399335e-05
0.0007805836115
-6.621503954e-05
-0.0005004540513
5.338052684e-05
0.0004060006808
-3.233467944e-05
-0.0001550305614
1.981697513e-05
9.126095495e-05
-7.785795979e-08
-4.064695653e-07
0
0
0
0
0
0
0
0
0
0
0
0
0
0
0
0
0
0
0
0
0
0
0
0
0
0
0
0
0
0
0
0
0
0
0
0
0
0
0
0
0
0
0
0
0
0
0
0
3.123724572e-06
-3.906510189e-06
-5.485149869e-07
1.832792976e-05
1.973945817e-05
-0.0001304305888
-1.239979656e-05
0.0001822942547
3.722627094e-05
-0.0003409426388
-2.525937463e-05
0.0003861841897
4.160771648e-05
-0.0004737103388
-2.709076275e-05
0.0004838408338
1.733623096e-05
-0.0004559313584
-8.818702625e-06
0.0004291080069
-1.551962499e-05
-0.0003109229838
1.205180914e-05
0.0002637005466
-1.741849786e-05
-0.0001218109764
9.013559154e-06
8.062818729e-05
-7.644517019e-07
-4.768822863e-06
2.002826066e-09
5.171889191e-08
0
0
0
0
0
0
0
0
0
0
0
0
0
0
0
0
0
0
0
0
0
0
0
0
0
0
0
0
0
0
0
0
0
0
0
0
0
0
0
0
0
0
0
0
0
0
0
0
0
0
0
0
0
0
8.745459166e-08
0
0
6.027646116e-07
3.359770731e-06
-1.667911978e-05
-5.49700441e-07
2.586142329e-05
4.022494005e-06
-5.018145344e-05
-1.255103293e-06
5.432304774e-05
9.669692543e-08
-4.993530468e-05
4.987021929e-08
4.341811508e-05
-1.43748264e-06
-1.720629673e-05
1.163754078e-07
9.505708455e-06
0
0
0
0
0
0
0
0
0
0
0
0
0
0
0
0
0
0
0
0
0
0
0
0
0
0
0
0
0
0
0
0
0
0
0
0
0
0
0
0
0
0
0
0
0
0
0
0
0
0
0
0
0
0
0
0
0
0
0
0
0
0
0
0
0
0
0
0
0
0
0
0
0
0
0
0
0
0
0
0
0
0
0
0
0
0
0
0
0
0
0
0
0
0
0
0
0
0
0
0
0
0
0
0
0
0
0
0
0
0
0
0
0
0
0
0
0
0
0
0
0
0
0
0
0
0
0
0
0
0
0
0
0
0
0
0
0
0
0
0
0
0
0
0
0
0
0
0
0
0
0
0
0
0
0
0
0
0
0
0
0
0
0
0
0
0
0
0
0
0
0
0
0
0
0
0
0
0
0
0
0
0
0
0
0
0
0
0
0
0
0
0
0
0
0
0
0
0
0
0
0
0
0
0
0
0
0
0
0
0
0
0
0
0
0
0
0
0
0
0
0
0
0
0
0
0
0
0
0
0
0
0
0
0
0
0
0
0
0
0
0
0
0
0
0
0
0
0
0
0
0
0
0
0
0
0
0
0
0
0
0
0
0
0
0
0
0
0
0
0
0
0
0
0
0
0
0
0
0
0
0
0
0
0
0
0
0
0
0
0
0
0
0
0
0
0
0
0
0
0
0
0
0
0
0
0
0
0
0
0
0
0
0
0
0
0
0
0
0
0
0
0
0
0
0
0
0
0
0
0
0
0
0
0
0
0
0
0
0
0
0
0
0
0
0
0
0
0
0
0
0
0
0
0
0
0
0
0
0
0
0
0
0
0
0
0
0
0
0
0
0
0
0
0
0
0
0
0
0
0
0
0
0
0
0
0
0
0
0
0
0
0
0
0
0
0
0
0
0
0
0
0
0
0
0
0
0
0
0
0
0
0
0
0
0
0
0
0
0
0
0
0
0
0
0
0
0
0
0
0
0
0
0
0
0
0
0
0
0
0
0
0
0
0
0
0
0
0
0
0
0
0
0
0
0
0
0
0
0
0
0
0
0
0
0
0
0
0
0
0
0
0
0
0
0
0
0
0
0
0
0
0
0
0
0
0
0
0
0
0
0
0
0
0
0
0
0
0
0
0
0
0
0
0
0
0
0
0
0
0
0
0
0
0
0
0
0
0
0
0
0
0
0
0
0
0
0
0
0
0
0
0
0
0
0
0
0
0
0
0
0
0
0
0
0
0
0
0
0
0
0
0
0
0
0
0
0
0
0
0
0
0
0
0
0
0
0
0
0
0
0
0
0
0
0
0
0
0
0
0
0
0
0
0
0
0
0
0
0
0
0
0
0
0
0
0
0
0
0
0
0
0
0
0
0
0
0
0
0
0
0
0
0
0
0
0
0
0
0
0
0
0
0
0
0
0
0
0
0
0
0
0
0
0
0
0
0
0
0
0
0
0
0
0
0
0
0
0
0
0
0
0
0
0
0
0
0
0
0
0
0
0
0
0
0
0
0
0
0
0
0
0
0
0
0
0
0
0
0
0
0
0
0
0
0
0
0
0
0
0
0
0
0
0
0
0
0
0
0
0
0
0
0
0
0
0
0
0
0
0
0
0
0
0
0
0
0
0
0
0
0
0
0
0
0
0
0
0
0
0
0
0
0
0
0
0
0
0
0
0
0
0
0
0
0
0
0
0
0
0
0
0
0
0
0
0
0
0
0
0
0
0
0
0
0
0
0
0
0
0
0
0
0
0
0
0
0
0
0
0
0
0
0
0
0
0
0
0
0
0
0
0
0
0
0
0
0
0
0
0
0
0
0
0
0
0
0
0
0
0
0
0
0
0
0
0
0
0
0
0
0
0
0
0
0
0
0
0
0
0
0
0
0
0
0
0
0
0
0
0
0
0
0
0
0
0
0
0
0
0
0
0
0
0
0
0
0
0
0
0
0
0
0
0
0
0
0
0
0
0
0
0
0
0
0
0
0
0
0
0
0
0
0
0
0
0
0
0
0
0
0
0
0
0
0
0
0
0
0
0
0
0
0
0
0
0
0
0
0
0
0
0
0
0
0
0
0
0
0
0
0
0
0
0
0
0
0
0
0
0
0
0
0
0
0
0
0
0
0
0
0
0
0
0
0
0
0
0
0
0
0
0
0
0
0
0
0
0
0
0
0
0
0
0
0
0
0
0
0
0
0
0
0
0
0
0
0
0
0
0
0
0
0
0
0
0
0
0
0
0
0
0
0
0
0
0
0
0
0
0
0
0
0
0
0
0
0
0
0
0
0
0
0
0
0
0
0
0
0
0
0
0
0
0
0
0
0
0
0
0
0
0
0
0
0
0
0
0
0
0
0
0
0
0
0
0
0
0
0
0
0
0
0
0
0
0
0
0
0
0
0
0
0
0
0
0
0
0
0
0
0
0
0
0
0
0
0
0
0
0
0
0
0
0
0
0
0
0
0
0
0
0
0
0
0
0
0
0
0
0
0
0
0
0
0
0
0
0
0
0
0
0
0
0
0
0
0
0
0
0
0
0
0
0
0
0
0
0
0
0
0
0
0
0
0
0
0
0
0
0
0
0
0
0
0
0
0
0
0
0
0
0
0
0
0
0
0
0
0
0
0
0
0
0
0
0
0
0
0
0
0
0
0
0
0
0
0
0
0
0
0
0
0
0
0
0
0
0
0
0
0
0
0
0
0
0
0
0
0
0
0
0
0
0
0
0
0
0
0
0
0
0
0
0
0
0
0
0
0
0
0
0
0
0
0
0
0
0
0
0
0
0
0
0
0
0
0
0
0
0
0
0
0
0
0
0
0
0
0
0
0
0
0
0
0
0
0
0
0
0
0
0
0
0
0
0
0
0
0
0
0
0
0
0
0
0
0
0
0
0
0
0
0
0
0
0
0
0
0
0
0
0
0
0
0
0
0
0
0
0
0
0
0
0
0
0
0
0
0
0
0
0
0
0
0
0
0
0
0
0
0
0
0
0
0
0
0
0
0
0
0
0
0
0
0
0
0
0
0
0
0
0
0
0
0
0
0
0
0
0
0
0
0
0
0
0
0
0
0
0
0
0
0
0
0
0
0
0
0
0
0
0
0
0
0
0
0
0
0
0
0
0
0
0
0
0
0
0
0
0
0
0
0
0
0
0
0
0
0
0
0
0
0
0
0
0
0
0
0
0
0
0
0
0
0
0
0
0
0
-0.001125726345
0.001125760898
0.0001331236652
-5.797475486e-05
0.001128880199
5.862627583e-05
-0.0005651730119
-0.0005643587081
6.913734068e-05
-0.001174037666
-6.410348676e-05
-0.001084267539
0.0001333422477
0.000542849826
0.0005411374269
-5.391911655e-05
0.001091560727
5.441655926e-05
-0.0005453871949
-0.0005466709748
-5.607679992e-05
-0.0005635204119
-0.0005645033832
-0.001049676414
0.0001327909056
0.0005254240131
0.0005240707854
-5.333721319e-05
0.001051882023
5.258231948e-05
-0.0005248049601
-0.0005263221687
-5.358204441e-05
-0.0005417827926
-0.0005443076725
-0.001013996312
0.0001321860987
0.0005074834758
0.0005062863098
-5.163944167e-05
0.001013183837
5.220919577e-05
-0.001013753591
-0.001048736618
-5.29288642e-05
-0.0004886782
0.0004886814068
6.649950588e-05
0.0002431504657
-2.031586614e-05
2.039980308e-05
-0.0002432344026
-0.000243409793
0.0004860395853
3.996449157e-05
-5.239855574e-05
0.0009747454739
5.220264125e-05
-0.0009745495594
-0.001009236211
-5.156848338e-05
-0.0004712448137
0.0004712448137
6.709825967e-05
0.000471245035
-4.822762937e-05
4.822826085e-05
-0.0004712456665
-0.0002426588949
-1.999932937e-05
0.0009431621103
-0.0004281406154
2.14584824e-05
2.744480104e-05
-0.000102680659
0.001868536608
-0.000940298608
-0.0009392266472
5.981984712e-05
5.384945943e-05
-0.0009689801436
-5.263441666e-05
-0.001183493356
0.001183057527
0.0001290869347
9.727573769e-05
-0.001180250871
-9.706483908e-05
0.001179251324
6.741885754e-05
-0.001177532841
7.899759199e-05
-0.001204435306
-8.773871915e-05
-1.852764104e-05
0.0002898789518
1.867407537e-05
-0.0002900253861
0.0005942082659
4.600607849e-05
-0.0005959229739
-4.429137048e-05
0.001128439052
5.202272299e-05
-3.782207671e-05
0.002256483581
4.054644745e-05
-0.002259792404
4.142852574e-05
-0.002317783365
-3.786534397e-05
-0.002168036667
0.002174488765
0.000336647448
-0.0001380550809
0.0001381286476
-0.001084341105
0.0001381713312
-0.001119478886
-0.0001382610243
-2.075255348e-05
0.000277290441
2.055228293e-05
-0.0002770901705
1.802588988e-05
0.0002823991397
-0.0002822438188
-1.81812108e-05
0.001091319705
4.975958125e-05
-3.487187971e-05
0.002184219405
3.568905554e-05
-0.002185163125
-0.002243443079
-3.683245e-05
-0.002101836142
0.002104769666
0.0003393666523
-0.0001377348159
0.0001378086961
-0.001049750294
-0.001079864884
-0.0001379757279
-0.0001326911021
-0.001067838257
0.0001327796434
0.0005343338428
0.000533415873
-5.841806194e-05
0.0002666659508
5.822741482e-05
-0.0005334594382
0.0002669841345
5.837710437e-05
0.0002697187243
-0.0005397793366
-5.813556885e-05
0.0002698190768
-1.773521682e-05
0.0002678866469
1.783946212e-05
-0.0002679908922
1.925841793e-05
0.000272023216
-0.0002714598691
-1.982176484e-05
0.001052041265
4.831910839e-05
-2.852080696e-05
0.00209968497
3.128731336e-05
-0.002106641415
-0.002162916117
-3.392416926e-05
-0.002032145102
0.002032924131
0.000341376492
-0.0001373105572
0.00013738607
-0.001014071825
-0.001045378001
-0.0001377031706
-0.0001326447072
-0.001032114728
0.0001324903348
0.0005167588007
0.0005155103
-2.912590522e-05
0.0002573998242
2.92585517e-05
-0.0002575324707
5.767277878e-05
0.0002615461179
-0.0005230445153
-5.767580666e-05
0.0002615014252
-3.467842857e-05
0.0005155130917
3.484860339e-05
-0.0005156832665
3.550107432e-05
0.0005247618576
-3.439175766e-05
-0.0002630607921
-0.0002628103822
-0.001961886797
0.0003419247558
0.0009833096414
0.0009788981916
-0.0001369839083
0.0004902091385
0.0001370574213
-0.0009789608515
-0.001009921949
-0.0001372412195
-6.656438626e-05
-0.0004980153592
0.0004980530221
6.652672336e-05
-3.162306822e-05
0.0002497707968
3.113074845e-05
-0.000249278477
3.047269095e-05
0.000251965662
-0.000252254611
-3.018374198e-05
-0.0002505255208
-2.153602282e-05
0.0002496538087
2.240773498e-05
-3.416296364e-05
0.0004969063542
3.398715811e-05
-0.0004967305486
3.451350231e-05
0.0005050817374
-0.0005050508615
-3.454437818e-05
-0.001891152737
0.0003448596861
0.0009445131016
0.0009431621103
-0.0001379770652
0.0004719172966
0.0001379770652
-0.0009431621103
0.0004869282278
-0.0009740235899
-0.0001369993082
-6.65307324e-05
-0.0004797360745
0.0004796908411
6.657596584e-05
-2.937980911e-05
0.0002364260056
3.057219439e-05
-0.0002376183909
3.237249665e-05
0.0002414366067
-0.0002421535859
-3.16555174e-05
-0.0009076285756
0.0009076285756
0.0001329383809
0.0009076285756
-9.771246801e-05
9.7712468e-05
-0.0009076285756
-0.0004696976508
-4.822728257e-05
5.718725474e-05
-0.0005718404465
-5.676264719e-05
0.0002855222647
0.0002858935743
-5.782634728e-05
-0.000561890077
5.763449372e-05
0.0002816459077
0.0002804360229
-0.0005939896839
4.62601456e-05
-4.509872169e-05
0.0005928282599
-0.0005745509922
0.0005749960238
5.674222316e-05
0.0002828767588
1.787226486e-05
-0.0002827231338
0.0002887539722
-0.0002890059186
-1.827569468e-05
6.07198024e-05
0.001147419094
-5.94450138e-05
-0.0005748195817
-0.0005738743007
3.869222081e-05
-0.000287665462
-3.764509782e-05
0.0005753723113
-1.791564378e-05
0.0002829584113
1.783399126e-05
0.0002698681741
5.865964974e-05
-0.0005408847364
0.0002707340169
0.000549542819
5.834719828e-05
-0.0005496091023
-5.828091499e-05
0.0001332160088
-0.001098872489
-0.0001331440135
0.001098800494
5.71104629e-05
-5.669089408e-05
0.0002747374191
0.0002743858311
-2.894849835e-05
0.0002698528196
2.896385291e-05
-0.0005599947551
-5.75578442e-05
0.0002800136025
0.0002797126495
-0.0005511899681
5.707980729e-05
0.0002759071653
0.0002753134585
0.0002718388947
1.864018779e-05
-0.0002712206645
0.0002778146233
-0.0002774350882
-2.113208857e-05
2.705017025e-05
0.0005545284446
-0.0005546338329
-2.694478189e-05
1.996254773e-05
-2.006815218e-05
0.0002779202277
-1.847915395e-05
0.0002721963113
1.81217373e-05
-1.798187944e-05
0.0002824653754
0.0002774729548
1.978003397e-05
0.0005548965064
2.70513994e-05
-0.0005548977356
0.0002616926027
5.796383253e-05
-0.000523830141
0.0002618464845
0.000266694609
-0.0005327459115
-5.868656104e-05
0.0002663198016
-0.001063795827
-0.0001329099511
0.000532662098
0.0005313525776
2.945464054e-05
-2.955275346e-05
0.0002667927219
-2.819101712e-05
0.0002615616111
2.83220087e-05
-2.885681749e-05
0.0002696270434
0.0002669812253
2.913936605e-05
0.000525212567
3.537507604e-05
-0.0002624025989
-0.0002626839698
0.0002674993126
-0.0002674294319
-1.780509753e-05
5.240877461e-05
0.001065695458
-5.262358865e-05
-0.0005317599306
-0.0005337207131
3.462257417e-05
-0.0002664456398
-3.421861259e-05
0.0005335409908
-3.419263357e-05
0.0005251615744
3.424362619e-05
-1.883004052e-05
0.0002723741026
-0.0002677821907
0.0005351820961
1.755639797e-05
1.755291768e-05
0.001070689963
5.330208739e-05
-0.0005351236497
-0.0005364596262
0.0002523007807
3.068183987e-05
-0.0002525099296
0.0002570750638
-0.0002571696512
-2.903131781e-05
-0.001026930465
-0.0001322728843
0.0005140660456
0.0005124925961
2.922596511e-05
-2.891204954e-05
0.0002567611482
-3.127667278e-05
0.0002518821694
3.169528413e-05
-2.814936597e-05
0.0002615044668
0.000257182414
2.944337532e-05
0.0005065383902
3.452635571e-05
-0.0005065512436
0.0005147449983
-0.0005147214032
-3.470202361e-05
0.0002433168809
3.282512815e-05
-0.0002437695124
0.0002484272805
-0.0002485932848
-3.145706397e-05
-0.0004967661428
-6.656162789e-05
0.0004967633844
2.007618663e-05
0.0002481951123
-0.0002472010992
-2.107019976e-05
3.234880048e-05
-3.198404859e-05
0.0002480625286
-3.135143164e-05
0.0002423953384
3.227297408e-05
-3.077713104e-05
0.0002514661203
0.0002501660555
3.195354174e-05
2.172143932e-05
-0.0002521707735
-7.05621187e-05
0.0009735559008
7.011876862e-05
-0.0004856922362
-0.0004874203145
0.0004953420056
-0.0004951377627
-3.436720653e-05
-2.152935694e-05
0.0002481884464
0.0004752999115
-5.686124262e-05
-0.0004728819375
2.703360337e-05
2.740966523e-05
0.0002360449487
-0.0002368489936
-2.857576418e-05
-0.0004784253656
-6.644756884e-05
0.0004783422021
3.745180669e-05
0.0004708735299
-0.0004710974402
-3.72278964e-05
2.437817826e-05
-2.401678947e-05
0.0002356835599
-5.689870711e-05
0.0004756476723
2.695497656e-05
2.959596978e-05
-3.045231374e-05
0.0002405374888
2.520593475e-05
0.0002355982491
0.0004722746045
3.800538091e-05
-0.0004728281787
-0.00224116262
0.002254017028
0.0003318949979
0.0001380859197
-0.001125640933
0.0001340559592
-0.001177571477
-0.0001357063211
-0.0001318696312
-0.001151036277
0.001150952525
0.0001319533832
-5.818247189e-05
5.80994546e-05
-0.000574467975
5.499935963e-05
-0.000595635919
-5.335312444e-05
-5.243039368e-05
0.0002891110221
4.183072908e-06
-0.0002408637013
0.000305825876
2.8707259e-05
-0.0003100793122
-2.445382279e-05
-0.00110392521
0.001104001273
0.0001331399454
5.838279425e-05
-0.0005512255641
5.853256442e-05
-0.0005599943473
-5.85329723e-05
-8.994451828e-05
0.000262877688
4.178266863e-05
-0.0002147158383
0.00101297339
4.786443298e-05
-1.327311122e-05
0.002001475802
1.858746953e-05
-0.002032082195
-0.002088892705
-2.657025907e-05
-8.974030239e-05
0.0002517291445
4.183338532e-05
-0.0002038222274
-3.86467305e-05
0.0005014692929
3.896886618e-05
-0.0002507360761
-0.0002510553525
1.938310866e-05
0.0002526718123
-0.0002526195894
-1.943533158e-05
-3.841544376e-05
0.0004721194567
3.857059157e-05
-7.636629835e-05
0.0009523401055
7.398320201e-05
-0.0009499570092
0.0009681358967
-7.109416124e-05
-0.0004830397419
-0.0004845641123
5.849147198e-05
-0.0005618489845
-0.0005718698306
-5.815308781e-05
-0.001139569095
-0.0001325887759
0.00114028824
2.273201228e-05
-0.0002815947221
-2.314946139e-05
0.0002820121713
-0.0003067118813
1.462763489e-05
-1.871150899e-05
0.0003107957554
-0.0002941871326
-2.257533138e-05
0.0002943232577
2.24392063e-05
4.829425936e-05
-4.334465425e-05
0.0005892586608
-0.0002891965939
0.000577818378
3.994938849e-05
0.001151410316
5.865092902e-05
-0.000574408532
-0.0005749329104
0.0002534097325
1.958461615e-05
-0.00025361124
2.249553525e-05
0.000255658897
-0.000256481886
-2.167254628e-05
5.265926234e-05
0.001027172314
-0.00102742427
-5.240730544e-05
3.385218157e-05
-3.369022363e-05
0.0005145830403
-3.352266414e-05
0.0005064445909
3.361646337e-05
-3.386224385e-05
0.0005244314679
0.000515543282
3.382199123e-05
0.001033165213
5.267464044e-05
-0.001033180591
2.316006112e-05
0.0002461221959
-0.0002471071297
-2.217512732e-05
-0.0002383319407
-2.733439788e-05
0.0002385060104
2.716032824e-05
-3.864891104e-05
0.0004793657188
3.8763252e-05
-0.0002393435731
-0.0002401364866
0.0005822896296
4.685165424e-05
-0.000582280402
-4.686088191e-05
-0.001241501509
8.592906094e-05
-2.475852205e-05
-4.131894373e-05
0.0006067148693
0.0006149350448
-0.0005900616535
0.000601840377
3.44814221e-05
0.0005941647857
4.69356321e-05
-0.0005950943393
0.001220857804
0.0001188820548
-0.0006116938515
-0.0005896109466
-5.782863972e-05
-8.06064207e-05
5.730562247e-05
-5.820656e-05
0.0005831905672
0.0003662840269
-0.0004187144206
4.106402654e-05
0.0005852654687
-3.981575526e-05
-0.000292867615
-0.0002936461249
2.702477713e-05
4.299301864e-05
0.0002962662311
2.494516706e-05
-2.280697428e-05
0.0003036876832
0.000296023095
2.011270421e-05
0.0005844924979
3.933926537e-05
-0.000291650787
-0.0002911169497
1.816250823e-05
0.0002796936966
-0.0002797296695
-1.812653537e-05
0.0002803641421
1.822656801e-05
-0.0002804282019
1.740264756e-05
0.0002704888139
-0.0002703874318
-1.750402967e-05
0.0002715767616
1.778318368e-05
-0.0002719572978
0.0002571705761
-2.256908734e-05
2.054323331e-05
-0.000255144722
0.0002668689841
-0.0003411299284
-1.568357394e-05
3.508358271e-05
0.0005187808159
-0.0005187514772
-3.511292141e-05
2.474909697e-05
-2.076883321e-05
0.0002628887203
-2.205094393e-05
0.0002577294286
2.149209138e-05
2.21373658e-05
-4.083123609e-05
0.0002595386469
-0.0002408447766
0.0002612658877
2.636089719e-05
0.0005203243004
3.512065628e-05
-0.0002599554554
-0.0002604059185
0.0002502132803
2.795383508e-05
-0.0002504835941
-2.768352128e-05
6.120946624e-05
-0.0005007828313
-6.11395621e-05
0.0005007129272
-6.111289977e-05
-0.0004979310869
0.0004979647226
6.107926402e-05
-3.789770111e-05
0.0004964843266
3.802247349e-05
-0.0004966090989
0.0005001553177
-3.830928424e-05
-0.0002501855927
-0.0002503071713
-0.0003282004959
-1.775448417e-05
0.0002562146776
2.573503939e-05
0.000240367498
-0.0002411646407
-2.493789669e-05
6.053335721e-05
-0.0004829105663
-6.051461793e-05
0.000482891827
-6.052554674e-05
-0.0004796348056
6.077521488e-05
0.0002398413107
0.0002395438268
6.088489169e-05
-0.0004868586393
-6.069866445e-05
0.0004866724121
-0.0004839680638
0.0004838840617
6.061735936e-05
0.0002395030902
2.665938783e-05
-0.0002404274386
-0.0002966120574
2.042765361e-05
-0.0001026856894
0.0003788700932
-0.0002805710931
2.30852553e-05
0.0002802178501
-5.686776835e-05
-0.0005678266786
5.712977787e-05
0.0002835096225
0.0002840550466
-2.588548091e-05
2.677737615e-05
-0.0002814629883
2.614544538e-05
-0.0002924245122
-3.033299055e-05
-2.900278068e-05
4.760539217e-05
-0.0002819991056
0.0002633964941
-0.0002823222608
-2.515794221e-05
-0.0005671931504
-5.745750293e-05
0.0002843563772
0.0002834265078
-5.536513678e-05
-0.000590225432
0.000590653323
5.493724576e-05
-2.538248195e-05
2.568358348e-05
-0.0002944882341
8.70034446e-06
-0.0002975833025
-1.782892329e-05
0.0002923166533
2.460505766e-05
-0.0002907762656
0.0002938884194
-0.0002936745163
-2.559638503e-05
-0.0005843894912
-5.577458321e-05
0.0005847989377
-2.454659517e-05
0.0002958596831
0.0002916100564
2.113425057e-05
1.896385698e-05
0.0002858824323
-0.0002852239386
-1.962235075e-05
0.0002854908092