/*--------------------------------*- C++ -*----------------------------------*\
| =========                 |                                                 |
| \\      /  F ield         | OpenFOAM: The Open Source CFD Toolbox           |
|  \\    /   O peration     | Version:  v1912                                 |
|   \\  /    A nd           | Website:  www.openfoam.com                      |
|    \\/     M anipulation  |                                                 |
\*---------------------------------------------------------------------------*/
FoamFile
{
    version     2.0;
    format      ascii;
    class       surfaceScalarField;
    location    "2.01";
    object      meshPhi;
}
// * * * * * * * * * * * * * * * * * * * * * * * * * * * * * * * * * * * * * //

dimensions      [0 3 -1 0 0 0 0];
oriented        oriented;


internalField   nonuniform List<scalar> 
25162
(
0
0
0
0
0
0
0
0
0
0
0
0
0
0
0
0
0
0
0
0
0
0
0
0
0
0
0
0
0
0
0
0
0
0
0
0
0
0
0
0
0
0
0
0
0
0
0
0
0
0
0
0
0
0
0
0
0
0
0
0
0
0
0
0
0
0
0
0
0
0
0
0
0
0
0
0
0
0
0
0
0
0
0
0
0
0
0
0
0
0
0
0
0
0
0
0
0
0
0
0
0
0
0
0
4.341361288e-09
1.17427055e-07
-1.314962637e-06
0
-7.015043648e-09
1.117916006e-06
0
0
0
0
0
0
0
0
0
0
0
0
0
0
0
0
0
0
0
0
0
0
0
0
0
0
0
0
0
0
0
0
0
0
0
0
0
0
0
0
0
0
0
0
0
0
0
0
0
0
0
0
0
0
0
0
0
0
0
0
0
0
0
0
0
0
-2.006208837e-08
-1.973621067e-06
1.901566827e-06
1.245016831e-05
-7.448500062e-06
-0.000109279532
1.736205598e-05
0.0001544177934
-8.415012161e-06
-0.000286711546
1.3071346e-05
0.0003215845716
3.287432799e-06
-0.0003741835627
-8.014304003e-06
0.0003710093347
9.491730592e-06
-0.0002995114781
-1.811365649e-05
0.0002585387995
4.145437755e-06
-0.0001157674413
-1.094839928e-05
7.218451381e-05
0
-2.13163384e-06
-2.750473349e-07
0
0
0
0
0
0
0
0
0
0
0
0
0
0
0
0
0
0
0
0
0
0
0
0
0
0
0
0
0
0
0
0
0
0
0
0
0
0
0
0
0
0
0
0
0
0
0
0
0
0
0
-9.935267719e-07
-4.299856256e-06
5.336398124e-06
3.05220364e-05
-4.016684497e-05
-0.0002626459583
6.366186683e-05
0.000374501174
-6.400930613e-05
-0.0007478594831
8.11286074e-05
0.0008710064456
-1.637175632e-05
-0.001187422539
1.039928956e-05
0.001265818135
4.690250317e-05
-0.001391481242
-6.976504665e-05
0.001392639347
6.725119022e-05
-0.001266887317
-9.253648598e-05
0.001183233919
4.705578083e-05
-0.0008325355042
-6.397195945e-05
0.0006943418804
1.746485916e-05
-0.0002902633553
-2.727404538e-05
0.0001801090227
0
-4.408240895e-06
-7.986577294e-07
0
0
0
0
0
0
0
0
0
0
0
0
0
0
0
0
0
0
0
0
0
0
0
0
0
0
0
0
0
0
0
0
0
0
0
0
0
0
0
0
0
0
0
0
0
3.261186067e-07
1.662746389e-06
-4.887214183e-05
-0.0001989258737
7.411804526e-05
0.0003385948222
-0.0001532259276
-0.0008880799547
0.0001849137889
0.001093997905
-0.0001194479249
-0.001696822639
0.0001252202277
0.001875865698
3.108849811e-05
-0.002296924926
-4.996075666e-05
0.00239251082
0.0001590984872
-0.002541311555
-0.0001898566372
0.002546122666
0.0001912917058
-0.002420488025
-0.0002284683011
0.002327588773
0.0001296239363
-0.001883992401
-0.0001562770726
0.001685677691
8.23211657e-05
-0.001045172487
-9.730754897e-05
0.000822769497
1.719043381e-05
-0.0002459153828
-2.464250204e-05
0.0001217393
0
0
0
0
0
0
0
0
0
0
0
0
0
0
0
0
0
0
0
0
0
0
0
0
0
0
0
0
0
0
0
0
0
0
0
0
0
0
0
0
0
0
-1.105738821e-05
-2.39449634e-05
1.863836254e-05
0.00010273795
-0.0001634116557
-0.0006134773797
0.0001942003653
0.0008496922494
-0.0002883004005
-0.001668079754
0.000297343206
0.001948571274
-0.0001216247577
-0.002628730702
0.0001396108252
0.002775870855
0.0001009624079
-0.003092078132
-0.0001084219015
0.003136900342
0.0002540179243
-0.003181040371
-0.0002600946415
0.003182044071
0.0003427189294
-0.003156602106
-0.000370317915
0.003110511918
0.000323332511
-0.002850137205
-0.0003518437837
0.002653444484
0.0001124687051
-0.001859900518
-0.0001261246242
0.001569324989
4.419522026e-05
-0.0007142785122
-4.951375537e-05
0.0004751998004
-3.208081248e-05
2.179025887e-06
-3.683524341e-06
4.881140147e-07
0
0
0
0
0
0
0
0
0
0
0
0
0
0
0
0
0
0
0
0
0
0
0
0
0
0
0
0
0
0
0
0
0
0
0
2.862520705e-07
1.810518553e-08
6.893095237e-07
-4.538662839e-05
-0.0001215459679
5.581114416e-05
0.0002725785703
-0.0002823520256
-0.0009977337241
0.000291994174
0.001323113817
-0.0003231719281
-0.002265265648
0.0003312041401
0.002546397613
-0.0001088787124
-0.003184385816
7.037682131e-05
0.003320387818
6.979360441e-05
-0.003438588572
3.623992069e-05
-2.986795425e-05
0.001658408217
0.001704014784
-0.001649430459
0.0001263839513
-0.0001269407407
0.001649987248
-0.001700418061
0.0004810547113
0.003420325515
-0.001735476949
-0.0002188965156
-0.0002465887004
-0.003248920135
0.0003765520432
-0.0004043103745
0.003128944375
0.0001767209637
-0.002462606467
-0.0001968749132
0.002162978211
6.20761914e-05
-0.001161281555
-6.388632146e-05
0.0008525742245
-0.0001695742287
1.375658207e-05
-1.699939195e-05
5.366201724e-05
0
0
0
0
0
0
0
0
0
0
0
0
0
0
0
0
0
0
0
0
0
0
0
0
0
0
0
0
0
0
0
0
0
-1.199775037e-06
0
2.565398144e-06
6.379491103e-06
9.766640489e-06
-7.801150635e-05
-0.0002075683368
8.075406799e-05
0.000405781012
-0.0003368481263
-0.001283823133
0.000342425185
0.001630253869
-0.0003351815693
-0.002635923923
0.000333552574
0.00291667837
-2.906261927e-05
-0.003439803964
2.033484972e-05
0.003481544964
5.162615107e-05
-0.001760946882
-4.877510702e-05
0.001758095838
-0.001744987629
0.0002005522608
-0.0001978456266
0.001742280995
-0.003454480853
0.0004593210579
-0.0004704324519
0.003387875606
0.0002222206795
-0.002797158529
-0.0002288728036
0.002496809037
7.007972975e-05
-0.001455140419
-7.272631504e-05
0.001111743156
-0.0003029130758
2.35263951e-05
-2.616992819e-05
0.0001325146139
0
0
0
0
0
0
0
0
0
0
0
0
0
0
0
0
0
0
0
0
0
0
0
0
0
0
0
0
0
0
0
0
0
-3.323430386e-06
0
4.204437993e-06
1.767462882e-05
1.997991888e-05
-9.458414513e-05
-0.0002632023156
9.755790382e-05
0.0004846482232
-0.0003603887474
-0.001425881589
0.0003640531301
0.001788363154
-0.0003309918296
-0.002815014799
0.0003307167673
0.003089318136
-9.210910544e-06
-0.003550712244
7.795112514e-06
0.003566832253
5.843588912e-05
-0.001781158507
-5.84297848e-05
0.001781152403
-0.001791563028
0.000192307772
-0.0001913738667
0.001790629122
-0.003580999593
0.0004840549551
-0.0004860873938
0.003538983166
0.0002540299233
-0.00300227363
-0.0002594470002
0.002708814612
7.698793956e-05
-0.001649872492
-7.863423076e-05
0.001287099258
-0.000382797342
2.90160025e-05
-2.992985764e-05
0.0001859805939
0
0
0
0
0
0
0
0
0
0
0
0
0
0
0
0
0
0
0
0
0
0
0
0
0
0
0
0
0
0
0
0
0
-5.075155746e-06
0
6.279044566e-06
2.715036476e-05
3.032391219e-05
-0.0001049792979
-0.0003025639148
0.000107986967
0.000540054096
-0.0003733567469
-0.00152612724
0.0003769475215
0.001900277951
-0.0003306210981
-0.002945276106
0.0003303723771
0.003219210039
-4.949888305e-06
-0.00366010114
4.152624175e-06
0.003669317764
5.856019355e-05
-0.001830182567
-5.795954135e-05
0.0009135360587
0.0009160458566
-0.001840907196
0.0001886697476
-0.0001880210164
0.001840258465
-0.003678468811
0.0004814124267
-0.0004780551572
0.003627678714
0.0002571548955
-0.003056692182
-0.0002555205613
0.002752196307
7.788488439e-05
-0.001666829034
-7.781889622e-05
0.001298972917
-0.0003850265529
2.923068067e-05
-2.895566257e-05
0.0001863097729
0
0
0
0
0
0
0
0
0
0
0
0
0
0
0
0
0
0
0
0
0
0
0
0
0
0
0
0
0
0
0
0
0
-7.597582996e-06
0
9.125365683e-06
4.104301823e-05
4.511962072e-05
-0.0001174156021
-0.0003511287421
0.0001207422597
0.0006067911002
-0.0003877652683
-0.001642024361
0.0003914589002
0.002028509756
-0.0003293234605
-0.003091397496
0.0003288555428
0.003363947146
-1.593223214e-06
-0.003779495858
9.181530743e-07
0.003783382383
5.817779027e-05
-0.001887864672
-5.799583767e-05
0.0009428783109
0.0009448044086
-0.001894194055
0.0001861306443
-0.0001855054942
0.001893568904
-0.003772012163
0.0004581043163
-0.0004483706967
0.003680257612
0.0002346916866
-0.002986417092
-0.0002371993392
0.002676094579
7.176358096e-05
-0.001556666194
-7.084845804e-05
0.001189928115
-0.0003120363486
2.447330566e-05
-2.343948182e-05
0.0001342110375
0
0
0
0
0
0
0
0
0
0
0
0
0
0
0
0
0
0
0
0
0
0
0
0
0
0
0
0
0
0
0
0
0
-1.100226376e-05
0
1.170745996e-05
6.007047529e-05
6.236093334e-05
-0.0001316266142
-0.0004080453315
0.0001358868667
0.0006828107821
-0.0004030023414
-0.00176699563
0.0004073125576
0.00216486115
-0.0003269439454
-0.003240904194
0.0003259923954
0.003510182604
6.650606761e-07
-0.003894078304
-6.764242253e-07
0.003894385322
5.753020875e-05
-0.001943666908
-5.753093279e-05
0.0009705972515
0.0009730703803
-0.00194347486
0.0001834175493
-0.0001832735019
0.001943330813
-0.003811442611
0.0004187411891
-0.0004060399945
0.003660964063
0.0002100703142
-0.002856339425
-0.0001868169798
0.002492853162
6.349984573e-05
-0.001339925678
-5.87164448e-05
0.0009850848484
-0.0002070783367
1.715020986e-05
-1.509800868e-05
6.765398951e-05
0
0
0
0
0
0
0
0
0
0
0
0
0
0
0
0
0
0
0
0
0
0
0
0
0
0
0
0
0
0
0
0
0
-1.673685817e-05
0
2.28364835e-05
9.367407354e-05
0.0001072644488
-0.0001481259093
-0.0004858068926
0.0001594605089
0.000777401977
-0.0004214225206
-0.001917126377
0.0004244223774
0.002325431026
-0.0003219128093
-0.003409175535
0.0003290554037
0.003668175783
1.173507561e-06
-0.004005832512
7.860188912e-09
0.001998926265
0.00200572488
2.777134402e-05
-0.0009976312909
-2.749927382e-05
0.0009973592207
5.006710938e-05
-0.0004968355029
-4.917336532e-05
0.0009934990985
-0.0004975573397
-0.001989653415
0.0001828502666
-0.0003747970211
0.003987432425
-0.001995961412
0.0001901291558
0.000373241408
-0.003767549469
-0.0003475465917
0.003540342155
0.0001545997547
-0.002603297823
-0.0001469576503
0.002222503888
5.100508047e-05
-0.00107860946
-4.964384216e-05
0.0007472799305
-8.538766236e-05
6.925192591e-06
-5.575070674e-06
8.438274728e-06
0
0
0
0
0
0
0
0
0
0
0
0
0
0
0
0
0
0
0
0
0
0
0
0
0
0
0
0
0
0
0
0
0
-2.535236333e-05
0
2.057802817e-05
0.0001277124066
0.0001174016831
-0.0001765829858
-0.0005760671378
0.0001707272318
0.0009007573904
-0.000440000497
-0.002106881952
0.0004337831291
0.002528590295
-0.0003077199703
-0.003604579939
0.0003112233708
0.003849638896
5.694960939e-06
-0.004118653739
-5.694960945e-06
0.002056308444
0.002062345295
3.015866468e-05
-0.002056308444
-6.229899295e-05
3.214032825e-05
0.001026802075
0.001029506369
0.0001257180927
-0.001026802177
-0.0001257179399
0.002056308444
-0.001029506419
-0.004118653739
0.000385286054
-0.0003818359628
0.004106272056
0.000304931311
-0.003615436044
-0.000292960546
0.00333866487
0.0001266884353
-0.002248836304
-0.0001078699655
0.001851932225
4.063051986e-05
-0.0007521305934
-4.1099791e-05
0.0004826535909
-1.178766719e-05
1.20548262e-06
-5.556733995e-07
0
0
0
0
0
0
0
0
0
0
0
0
0
0
0
0
0
0
0
0
0
0
0
0
0
0
0
0
0
0
0
0
0
0
-1.248747776e-05
0
4.445548302e-06
5.937637702e-05
3.725801511e-05
-0.0001300268552
-0.0004190768247
0.0001110089757
0.0007073887624
-0.0003833653671
-0.001855359161
0.0003560632138
0.002277274093
-0.0003238838146
-0.003416635188
0.0003239422638
0.003705549926
-1.925763108e-05
-0.004190814275
4.142360233e-05
0.00422966053
6.229899293e-05
-0.004231549733
-0.0001325278776
0.004231549733
7.022888468e-05
0.0002593623741
-0.004231549733
-0.0002593623741
0.004231549733
0.0003559817324
-0.004151644131
-0.0003393113996
0.004030740012
0.0002363090497
-0.003310436227
-0.0002171643109
0.002970081583
7.908235706e-05
-0.001803190268
-7.374232489e-05
0.00141219047
2.870584734e-05
-0.0004340209254
-2.275843861e-05
0.0002268127837
0
0
0
0
0
0
0
0
0
0
0
0
0
0
0
0
0
0
0
0
0
0
0
0
0
0
0
0
0
0
0
0
0
0
0
0
0
-1.065526403e-07
0
0
3.287957738e-07
0
-5.126658672e-05
-0.0001435014013
3.407898478e-05
0.0003237886323
-0.0002491274127
-0.001204674259
0.0002086256007
0.001569789744
-0.0002935867122
-0.002674406601
0.0002716820927
0.003000911854
-9.747649626e-05
-0.003734709991
0.0001089321624
0.003889764145
0.0001093886259
-0.00412983263
-9.171154456e-05
0.004152928042
0.0002399984455
-0.004091540341
-0.0002186282236
0.004021516737
0.0002625555913
-0.003603896659
-0.0002299439714
0.003386376925
0.0001512014237
-0.00252263758
-0.0001289588303
0.002185206263
5.480472792e-05
-0.001155629649
-4.778744706e-05
0.0008434142332
1.128012182e-05
-0.000155610461
-7.177839112e-06
4.278732043e-05
0
0
0
0
0
0
0
0
0
0
0
0
0
0
0
0
0
0
0
0
0
0
0
0
0
0
0
0
0
0
0
0
0
0
0
0
0
0
0
0
0
0
-3.110119392e-06
-3.254077198e-07
4.876121661e-07
2.458531388e-05
-9.346742752e-05
-0.0004297296572
6.239899124e-05
0.0006562750562
-0.0001789777447
-0.001468181425
0.0001439602367
0.001745839665
-0.0001130270034
-0.002468456574
0.0001045306755
0.00265179228
3.069857868e-05
-0.002988934037
-1.328924135e-05
0.003028744323
0.0001287590418
-0.002935964254
-9.79612269e-05
0.002836382126
0.0001291680764
-0.002348866046
-9.952297443e-05
0.002132211307
7.026101689e-05
-0.00138504347
-5.443949847e-05
0.001125574733
2.513947318e-05
-0.0004271374743
-1.751551413e-05
0.0002499073331
1.215452457e-07
-1.079741411e-06
0
0
0
0
0
0
0
0
0
0
0
0
0
0
0
0
0
0
0
0
0
0
0
0
0
0
0
0
0
0
0
0
0
0
0
0
0
0
0
0
0
0
0
0
0
0
0
0
-6.301358739e-06
-1.104150434e-05
9.254611706e-07
5.141853702e-05
-5.091756402e-05
-0.0003595069237
2.887974912e-05
0.00050077334
-6.019763393e-05
-0.0009349519944
4.340302207e-05
0.001061037738
-1.462862024e-05
-0.001316590248
1.555022228e-05
0.001351925975
2.899677344e-05
-0.00129761587
-1.613010715e-05
0.001229098511
3.517856213e-05
-0.0009057180856
-2.218520375e-05
0.0007711981897
1.856001894e-05
-0.0003572629776
-1.033600599e-05
0.0002358112545
1.081035404e-06
-1.362575648e-05
-3.153659886e-09
1.470141762e-07
0
0
0
0
0
0
0
0
0
0
0
0
0
0
0
0
0
0
0
0
0
0
0
0
0
0
0
0
0
0
0
0
0
0
0
0
0
0
0
0
0
0
0
0
0
0
0
0
0
0
0
0
0
0
-1.39744559e-07
0
0
1.835400059e-06
-5.884343503e-06
-5.035510825e-05
9.122169997e-07
7.803338222e-05
-5.351888484e-06
-0.000151885129
1.895421244e-06
0.00016479753
9.883830515e-07
-0.0001527099518
-1.879009514e-07
0.0001330797256
2.081209373e-06
-5.281534487e-05
-1.768156719e-07
2.911213613e-05
0
0
0
0
0
0
0
0
0
0
0
0
0
0
0
0
0
0
0
0
0
0
0
0
0
0
0
0
0
0
0
0
0
0
0
0
0
0
0
0
0
0
0
0
0
0
0
0
0
0
0
0
0
0
0
0
0
0
0
0
0
0
0
0
0
0
0
0
0
0
0
0
0
0
0
0
0
0
0
0
0
0
0
0
0
0
0
0
0
0
0
0
0
0
0
0
0
0
0
0
0
0
0
0
0
0
0
0
0
0
0
0
0
0
0
0
0
0
0
0
0
0
0
0
0
0
0
0
0
0
0
0
0
0
0
0
0
0
0
0
0
0
0
0
0
0
0
0
0
0
0
0
0
0
0
0
0
0
0
0
0
0
0
0
0
0
0
0
0
0
0
0
0
0
0
0
0
0
0
0
0
0
0
0
0
0
0
0
0
0
0
0
0
0
0
0
0
0
0
0
0
0
0
0
0
0
0
0
0
0
0
0
0
0
0
0
0
0
0
0
0
0
0
0
0
0
0
0
0
0
0
0
0
0
0
0
0
0
0
0
0
0
0
0
0
0
0
0
0
0
0
0
0
0
0
0
0
0
0
0
0
0
0
0
0
0
0
0
0
0
0
0
0
0
0
0
0
0
0
0
0
0
0
0
0
0
0
0
0
0
0
0
0
0
0
0
0
0
0
0
0
0
0
0
0
0
0
0
0
0
0
0
0
0
0
0
0
0
0
0
0
0
0
0
0
0
0
0
0
0
0
0
0
0
0
0
0
0
0
0
0
0
0
0
0
0
0
0
0
0
0
0
0
0
0
0
0
0
0
0
0
0
0
0
0
0
0
0
0
0
0
0
0
0
0
0
0
0
0
0
0
0
0
0
0
0
0
0
0
0
0
0
0
0
0
0
0
0
0
0
0
0
0
0
0
0
0
0
0
0
0
0
0
0
0
0
0
0
0
0
0
0
0
0
0
0
0
0
0
0
0
0
0
0
0
0
0
0
0
0
0
0
0
0
0
0
0
0
0
0
0
0
0
0
0
0
0
0
0
0
0
0
0
0
0
0
0
0
0
0
0
0
0
0
0
0
0
0
0
0
0
0
0
0
0
0
0
0
0
0
0
0
0
0
0
0
0
0
0
0
0
0
0
0
0
0
0
0
0
0
0
0
0
0
0
0
0
0
0
0
0
0
0
0
0
0
0
0
0
0
0
0
0
0
0
0
0
0
0
0
0
0
0
0
0
0
0
0
0
0
0
0
0
0
0
0
0
0
0
0
0
0
0
0
0
0
0
0
0
0
0
0
0
0
0
0
0
0
0
0
0
0
0
0
0
0
0
0
0
0
0
0
0
0
0
0
0
0
0
0
0
0
0
0
0
0
0
0
0
0
0
0
0
0
0
0
0
0
0
0
0
0
0
0
0
0
0
0
0
0
0
0
0
0
0
0
0
0
0
0
0
0
0
0
0
0
0
0
0
0
0
0
0
0
0
0
0
0
0
0
0
0
0
0
0
0
0
0
0
0
0
0
0
0
0
0
0
0
0
0
0
0
0
0
0
0
0
0
0
0
0
0
0
0
0
0
0
0
0
0
0
0
0
0
0
0
0
0
0
0
0
0
0
0
0
0
0
0
0
0
0
0
0
0
0
0
0
0
0
0
0
0
0
0
0
0
0
0
0
0
0
0
0
0
0
0
0
0
0
0
0
0
0
0
0
0
0
0
0
0
0
0
0
0
0
0
0
0
0
0
0
0
0
0
0
0
0
0
0
0
0
0
0
0
0
0
0
0
0
0
0
0
0
0
0
0
0
0
0
0
0
0
0
0
0
0
0
0
0
0
0
0
0
0
0
0
0
0
0
0
0
0
0
0
0
0
0
0
0
0
0
0
0
0
0
0
0
0
0
0
0
0
0
0
0
0
0
0
0
0
0
0
0
0
0
0
0
0
0
0
0
0
0
0
0
0
0
0
0
0
0
0
0
0
0
0
0
0
0
0
0
0
0
0
0
0
0
0
0
0
0
0
0
0
0
0
0
0
0
0
0
0
0
0
0
0
0
0
0
0
0
0
0
0
0
0
0
0
0
0
0
0
0
0
0
0
0
0
0
0
0
0
0
0
0
0
0
0
0
0
0
0
0
0
0
0
0
0
0
0
0
0
0
0
0
0
0
0
0
0
0
0
0
0
0
0
0
0
0
0
0
0
0
0
0
0
0
0
0
0
0
0
0
0
0
0
0
0
0
0
0
0
0
0
0
0
0
0
0
0
0
0
0
0
0
0
0
0
0
0
0
0
0
0
0
0
0
0
0
0
0
0
0
0
0
0
0
0
0
0
0
0
0
0
0
0
0
0
0
0
0
0
0
0
0
0
0
0
0
0
0
0
0
0
0
0
0
0
0
0
0
0
0
0
0
0
0
0
0
0
0
0
0
0
0
0
0
0
0
0
0
0
0
0
0
0
0
0
0
0
0
0
0
0
0
0
0
0
0
0
0
0
0
0
0
0
0
0
0
0
0
0
0
0
0
0
0
0
0
0
0
0
0
0
0
0
0
0
0
0
0
0
0
0
0
0
0
0
0
0
0
0
0
0
0
0
0
0
0
0
0
0
0
0
0
0
0
0
0
0
0
0
0
0
0
0
0
0
0
0
0
0
0
0
0
0
0
0
0
0
0
0
0
0
0
0
0
0
0
0
0
0
0
0
0
0
0
0
0
0
0
0
0
0
0
0
0
0
0
0
0
0
0
0
0
0
0
0
0
0
0
0
0
0
0
0
0
0
0
0
0
0
0
0
0
0
0
0
0
0
0
0
0
0
0
0
0
0
0
0
0
0
0
0
0
0
0
0
0
0
0
0
0
0
0
0
0
0
0
0
0
0
0
0
0
0
0
0
0
0
0
0
0
0
0
0
0
0
0
0
0
0
0
0
0
0
0
0
0
0
0
0
0
0
0
0
0
0
0
0
0
0
0
0
0
0
0
0
0
0
0
0
0
0
0
0
0
0
0
0
0
0
0
0
0
0
0
0
0
0
0
0
0
0
0
0
0
0
0
0
0
0
0
0
0
0
0
0
0
0
0
0
0
0
0
0
0
0
0
0
0
0
0
0
0
0
0
0
0
0
0
0
0
0
0
0
0
0
0
0
0
0
0
0
0
0
0
0
0
0
0
0
0
0
0
0
0
0
0
0
0
0
0
0
0
0
0
0
0
-0.001776818324
0.001776892516
5.836169768e-05
-0.0001867521686
0.001781689899
0.0001877554505
-0.000893778251
-0.0008889149296
0.0002032628172
-0.001752502256
-0.00019574819
-0.001823287249
5.898706141e-05
0.0009110667102
0.0009117936709
-0.0001799070119
0.00183607639
0.0001808127566
-0.0009192380341
-0.0009177441002
-0.0001837242958
-0.0008983039965
-0.0008962869041
-0.001880692424
5.844356007e-05
0.0009395580667
0.0009408685871
-0.0001781829697
0.001885609354
0.0001769448045
-0.0009426940818
-0.0009416771073
-0.0001792649324
-0.0009204704402
-0.0009210788355
-0.001936131454
5.788942362e-05
0.0009671015612
0.0009686706781
-0.0001738209242
0.001935667637
0.0001750679574
-0.00193691467
-0.00189506409
-0.0001773129346
-0.0009968161447
0.0009968229495
2.776453927e-05
0.0004974003806
-2.460002148e-05
2.476513799e-05
-0.0004975654971
-0.0004969426003
0.0009931977244
5.121236578e-05
-0.000173268341
0.001985160755
0.0001731418529
-0.001985034267
-0.001943906663
-0.0001733891208
-0.001026006336
0.001026006336
3.015866468e-05
0.001026006619
-5.988687838e-05
5.988762335e-05
-0.001026007364
-0.0004974430993
-2.399242504e-05
0.00204931163
-0.0009342404921
9.648109543e-06
2.700546505e-05
-0.0003160114991
0.004040311246
-0.002042915321
-0.002023932454
0.0001686096741
0.0001739383545
-0.001989496797
-0.000173424959
-0.001753377123
0.001752585404
5.241787078e-05
0.0001166669992
-0.001649813327
-0.0001162841313
0.001746477978
0.0002004382277
-0.001743653389
0.0002157917972
-0.001687084991
-0.0002291248671
-3.896885339e-05
0.0004444279806
3.916073576e-05
-0.000444619863
0.0008849476454
8.990433873e-05
-0.0008874187724
-8.74332118e-05
0.001780976427
0.0001930212441
-0.0004857308211
0.003546831592
0.0004902119993
-0.003552281193
0.0004925971737
-0.003473987369
-0.0004865318251
-0.003631055785
0.003641702865
-5.719886479e-06
-5.072116174e-05
5.080503904e-05
-0.001823371126
5.064655842e-05
-0.001780995126
-5.080993976e-05
-4.340300895e-05
0.0004531429342
4.308424358e-05
-0.0004528241689
3.847843258e-05
0.0004480589113
-0.0004479243236
-3.861302027e-05
0.00183561139
0.0001891347473
-0.0004801481967
0.003658397807
0.0004817299793
-0.003660174207
-0.003583084934
-0.0004839833945
-0.00375062145
0.003755657684
-2.325071654e-06
-5.055341938e-05
5.063680302e-05
-0.001880775807
-0.001830269187
-5.063454238e-05
-5.811000646e-05
-0.001853468944
5.820586497e-05
0.0009256411683
0.0009277319174
-4.169495218e-05
0.0004641860897
4.154945857e-05
-0.0009277700009
0.0004637294048
4.175823913e-05
0.0004558510329
-0.0009131693316
-4.138709702e-05
0.0004569471566
-3.751337745e-05
0.0004667070163
3.772738255e-05
-0.0004669210214
4.031316512e-05
0.0004597836509
-0.0004587492595
-4.134755652e-05
0.001885756239
0.0001859837592
-0.0004688545105
0.003747997036
0.0004736191169
-0.003759963383
-0.003680893635
-0.0004783616056
-0.003864724265
0.003865878213
3.961027014e-07
-5.024482032e-05
5.032563242e-05
-0.001936212266
-0.001887862251
-5.055584011e-05
-5.851791069e-05
-0.001908952664
5.816360525e-05
0.0009539105898
0.0009553963795
-2.121756674e-05
0.0004777406562
2.137081315e-05
-0.0004778939026
4.092218831e-05
0.0004710676981
-0.0009428471765
-4.097490032e-05
0.0004718321904
-7.202251596e-05
0.0009562014996
7.238692539e-05
-0.000956565909
7.382083481e-05
0.0009465571536
-7.178832321e-05
-0.0004749997532
-0.000473589912
-0.003978230853
6.685552182e-07
0.001985870007
0.001992865798
-4.984535289e-05
0.0009959061603
5.00798445e-05
-0.001992956797
-0.00194374559
-5.016613778e-05
-2.782653091e-05
-0.0009837512417
0.0009838442472
2.773352543e-05
-2.428123879e-05
0.0004932796853
2.361807788e-05
-0.0004926165244
2.279864305e-05
0.000484023185
-0.0004843516967
-2.247013136e-05
-0.0004957266595
-2.8270584e-05
0.0004941520041
2.984523939e-05
-7.016005859e-05
0.000982582789
6.988456385e-05
-0.0009823072942
7.134044256e-05
0.0009711569707
-0.0009711475092
-7.134990404e-05
-0.004036923377
8.769842026e-06
0.001984536866
0.00204931163
-5.437453836e-05
0.001023305293
5.437453835e-05
-0.00204931163
0.00100131922
-0.001998927344
-4.986851994e-05
-2.781020136e-05
-0.001010839595
0.001010746658
2.790313842e-05
-2.159596137e-05
0.0005011083226
2.330576371e-05
-0.0005028181249
2.536100079e-05
0.0004953751441
-0.000496276626
-2.445951881e-05
-0.002105279645
0.002105279645
6.229899294e-05
0.002105279645
-0.0001177907794
0.0001177907794
-0.002105279645
-0.001026802589
-5.988646617e-05
4.371885575e-05
-0.0008795751549
-4.303512831e-05
0.0004387100676
0.0004401813598
-4.450593369e-05
-0.0008886174392
4.430960148e-05
0.0004448632659
0.0004439505055
-0.0008850577399
2.739997307e-05
-2.55525135e-05
0.0008832102804
-0.0008802571646
0.0008809306024
4.304541799e-05
0.000447856617
3.830675321e-05
-0.0004476849376
0.0004435750967
-0.0004439694315
-3.857451858e-05
0.000190895731
0.001768235728
-0.0001889659886
-0.0008875941292
-0.0008825713412
8.318647608e-05
-0.0004428256158
-8.1584695e-05
0.0008847989315
-3.916225672e-05
0.0004479478746
3.907099907e-05
0.0004552279928
4.220525923e-05
-0.0009114282429
0.00045575323
0.000900710835
4.177983419e-05
-0.0009008061843
-4.16844849e-05
5.865957812e-05
-0.001804492826
-5.857322577e-05
0.001804406474
4.379888224e-05
-4.316225559e-05
0.0004499134222
0.0004501607861
-2.184850051e-05
0.0004552154245
2.186106883e-05
-0.0008891855928
-4.408659021e-05
0.0004441108709
0.0004446553784
-0.000899863186
4.369070962e-05
0.0004500423667
0.000449928992
0.0004585500849
3.918680889e-05
-0.0004574237287
0.0004550012233
-0.0004543839575
-4.402027472e-05
9.221605156e-05
0.000908934393
-0.0009091204762
-9.202996832e-05
4.311907929e-05
-4.327338496e-05
0.000455155529
-3.995850821e-05
0.0004592129366
3.929565651e-05
-3.919656563e-05
0.0004480932202
0.000453451156
4.281085754e-05
0.0009059274875
9.222597133e-05
-0.0009059374072
0.0004703799913
4.134574902e-05
-0.0009405535227
0.0004697499706
0.0004650993937
-0.000930264806
-4.209475929e-05
0.0004655652194
-0.0018611614
-5.853879531e-05
0.0009300921639
0.0009314980254
2.239152583e-05
-2.25197315e-05
0.0004652275994
-2.10090145e-05
0.0004702276951
2.116131076e-05
-2.173150428e-05
0.0004557340367
0.0004645276733
2.204994227e-05
0.0009436032243
7.362633071e-05
-0.0004719212081
-0.0004714875121
0.0004669211143
-0.0004668130741
-3.762141762e-05
0.0001769846307
0.001865319736
-0.0001772437361
-0.0009326670931
-0.0009323935371
7.657315333e-05
-0.0004659970525
-7.583905042e-05
0.0009321840639
-7.559305948e-05
0.0009434814199
7.57148639e-05
-4.06091193e-05
0.000460434262
-0.000465581177
0.0009313477321
3.826509299e-05
3.924852148e-05
0.001859248967
0.0001785903734
-0.0009311096256
-0.0009297450843
0.000483631689
2.301160014e-05
-0.0004838446461
0.0004780891809
-0.0004781607161
-2.114603161e-05
-0.00191452691
-5.789499899e-05
0.0009565219077
0.0009573820901
2.217731389e-05
-2.177610874e-05
0.0004776879758
-2.462295725e-05
0.000483141674
2.511297225e-05
-2.097502967e-05
0.0004710337133
0.0004775181853
2.239978479e-05
0.0009700610963
7.142215719e-05
-0.0009701428109
0.0009586121792
-0.0009586031057
-7.203158951e-05
0.0004974376224
2.593434634e-05
-0.000498010968
0.0004924089363
-0.0004926441854
-2.404598968e-05
-0.0009852263029
-2.783087556e-05
0.0009852306475
2.458830968e-05
0.0004924149532
-0.0004906284507
-2.637481218e-05
2.609957402e-05
-2.565158311e-05
0.0004919609454
-2.505940592e-05
0.0004962549226
2.624210576e-05
-2.401442572e-05
0.0004834146534
0.0004937721007
2.560715863e-05
2.756232127e-05
-0.0004987006711
-0.0001390835464
0.001983898841
0.000138572071
-0.000991926955
-0.0009914604106
0.0009834220966
-0.0009830918043
-7.049035088e-05
-2.825547478e-05
0.000492399844
0.001034645891
-4.107863801e-05
-0.001029722386
1.695241508e-05
1.920271744e-05
0.0005014619159
-0.0005025232307
-2.053464657e-05
-0.001012199905
-2.762467973e-05
0.001012014383
4.07386379e-05
0.0009984470633
-0.0009990969339
-4.008876722e-05
1.739677621e-05
-1.683621273e-05
0.0005009013524
-4.58953293e-05
0.001034941088
1.957151228e-05
2.602862074e-05
-2.387695309e-05
0.0004941926912
1.861276837e-05
0.0004998923304
0.0009974376616
4.202911602e-05
-0.0009987281398
-0.003523439564
0.003543302978
-1.181752007e-05
5.04882889e-05
-0.001776660055
4.439937567e-05
-0.001758545654
-4.680060361e-05
-5.636546165e-05
-0.001760061193
0.001759906704
5.651995054e-05
-4.141076401e-05
4.129406223e-05
-0.0008801404629
3.676381548e-05
-0.0008876124067
-3.420914876e-05
-8.155915006e-05
0.0004363288124
9.353143722e-06
-0.0003641228061
0.0004546907532
4.625145152e-05
-0.0004609738109
-3.996839384e-05
-0.00179849275
0.001798653887
5.849844067e-05
4.18067583e-05
-0.0008998901101
4.188090692e-05
-0.0008891862353
-4.188026447e-05
-0.0001597250845
0.0004802453983
7.238996523e-05
-0.000392910279
0.001935120709
0.0001839644771
-0.0004456955193
0.003810028668
0.000453979277
-0.003865322762
-0.0037880102
-0.0004660879664
-0.0001575441788
0.0004903597793
6.717274882e-05
-0.0003999883494
-6.20794514e-05
0.0009760917095
6.272731206e-05
-0.0004885388491
-0.000488200721
3.179352272e-05
0.000485453738
-0.0004853670676
-3.188019312e-05
-4.667135811e-05
0.00099688293
4.722608972e-05
-0.0001492764385
0.002004082692
0.0001448046582
-0.001999610911
0.001988760855
-0.0001397599791
-0.000994474247
-0.0009936101752
4.185078439e-05
-0.0008885873166
-0.0008796228201
-4.136309882e-05
-0.001756320215
-5.749302038e-05
0.001757447774
2.154684983e-05
-0.0004406994405
-2.227148713e-05
0.0004414240778
-0.0004565579335
8.150303482e-06
-1.424942831e-05
0.0004626570584
-0.0004438192923
-1.994072795e-05
0.0004442146176
1.954540267e-05
9.721768021e-05
-8.984863672e-05
0.0008775786019
-0.0004424661107
0.0008850115387
8.506902869e-05
0.001760290068
0.0001876144122
-0.0008798481744
-0.0008771605745
0.0004858888495
3.218621678e-05
-0.0004862815436
3.753792102e-05
0.000483345036
-0.0004848435139
-3.603944308e-05
0.0001764241126
0.001916067297
-0.001916702968
-0.0001757884417
7.469490296e-05
-7.434719077e-05
0.0009582644671
-7.370246109e-05
0.0009698235631
7.393999424e-05
-7.496890852e-05
0.0009459330026
0.0009562238966
7.467250594e-05
0.001911941165
0.0001766114972
-0.00191212855
3.008258936e-05
0.0004962974052
-0.0004981409883
-2.823900622e-05
-0.0004963460956
-2.993829753e-05
0.0004964554765
2.982891661e-05
-4.384341269e-05
0.0009958519993
4.419524706e-05
-0.0004977703732
-0.0004984334604
0.0008383212228
5.679878508e-05
-0.0008383266988
-5.679330906e-05
-0.00179853273
5.025163594e-05
5.72981155e-07
-2.052427291e-05
0.0008762887864
0.0008919435998
-0.0008755739182
0.0008932898139
9.684077353e-06
0.0008813001086
9.120092194e-05
-0.0008825966918
0.001764960962
0.0002134270608
-0.0008857391557
-0.0008495009182
-0.0001066969505
-0.0001364509986
7.615822729e-05
-7.745269749e-05
0.000839615693
0.0005528465405
-0.0006344056906
8.277266333e-05
0.0008856931587
-8.097392777e-05
-0.0004436073674
-0.0004438845269
4.478203102e-05
6.034491224e-05
0.0004477195972
4.162634249e-05
-3.850032136e-05
0.0004515647321
0.000446618176
3.449266742e-05
0.0008809565455
8.009973661e-05
-0.0004399881535
-0.0004382954652
3.794003483e-05
0.0004506757931
-0.000450733522
-3.788230591e-05
0.000450977812
3.809109049e-05
-0.0004511288676
3.69269637e-05
0.000464649661
-0.0004644477442
-3.712888045e-05
0.000465651375
3.760671274e-05
-0.000466331124
0.0004775812707
-3.760705981e-05
3.398855543e-05
-0.0004739627663
0.00048835874
-0.0006227382934
-2.534553114e-05
7.293020602e-05
0.0009508193068
-0.0009507943828
-7.295513003e-05
4.25149425e-05
-3.54339563e-05
0.0004812777538
-3.779898761e-05
0.000478587135
3.679312336e-05
3.805872551e-05
-7.146247165e-05
0.0004677857381
-0.0004343819919
0.0004773996761
4.536066467e-05
0.0009498528086
7.303006762e-05
-0.0004750406641
-0.0004749120062
0.0004883605563
1.983373354e-05
-0.0004886781101
-1.95161797e-05
3.505704028e-05
-0.0009775032576
-3.495553833e-05
0.0009774017557
-3.49501104e-05
-0.0009836605149
0.0009837480077
3.486261766e-05
-6.039158784e-05
0.000982048438
6.0695337e-05
-0.0009823521872
0.0009774464943
-6.138518357e-05
-0.0004894384863
-0.0004887022758
-0.0006356308817
-2.138429389e-05
0.0004994709968
1.681180966e-05
0.0005007636536
-0.0005017836745
-1.579178875e-05
3.424947864e-05
-0.001005172738
-3.417409017e-05
0.00100509735
-3.418058802e-05
-0.001010647023
3.466753646e-05
0.0005048348004
0.0005053252741
3.465071003e-05
-0.0009971719203
-3.434478057e-05
0.0009968659909
-0.001003331061
0.001003216197
3.43643425e-05
0.0004985835382
1.805468443e-05
-0.000499826413
-0.0004535990394
1.790071361e-05
-0.0001397775558
0.0005754758816
-0.0004383132059
2.20390508e-05
0.000437821005
-4.325834656e-05
-0.0008839196528
4.363162233e-05
0.0004409040851
0.000442642292
-2.412594576e-05
2.527590846e-05
-0.0004394631686
2.448822038e-05
-0.0004480806439
-3.000661587e-05
-2.959854797e-05
5.756544873e-05
-0.0004457718307
0.0004178049299
-0.0004415932018
-2.323218452e-05
-0.0008864425796
-4.420600716e-05
0.0004439914719
0.0004433987682
-4.099345395e-05
-0.0008900747812
0.0008906733298
4.039490537e-05
-2.302767556e-05
2.35046015e-05
-0.0004442962183
-1.780850746e-06
-0.0004428297316
-1.194735124e-05
0.0004471595889
2.244089216e-05
-0.0004451122607
0.0004439370054
-0.0004437997559
-2.316492497e-05
-0.0008847282536
-4.157891266e-05
0.0008853137123
-2.285417835e-05
0.0004468504558
0.0004463028307
1.875747184e-05
3.970421172e-05
0.00044631127
-0.0004453374054
-4.067807635e-05
0.0004447800714
3.981252083e-05
-0.0004448883806
-2.198962411e-05
-0.0004531394283
0.0004532926936
2.183635886e-05