/*--------------------------------*- C++ -*----------------------------------*\
| =========                 |                                                 |
| \\      /  F ield         | OpenFOAM: The Open Source CFD Toolbox           |
|  \\    /   O peration     | Version:  v1912                                 |
|   \\  /    A nd           | Website:  www.openfoam.com                      |
|    \\/     M anipulation  |                                                 |
\*---------------------------------------------------------------------------*/
FoamFile
{
    version     2.0;
    format      ascii;
    class       volScalarField;
    location    "2.01";
    object      nut;
}
// * * * * * * * * * * * * * * * * * * * * * * * * * * * * * * * * * * * * * //

dimensions      [0 2 -1 0 0 0 0];


internalField   nonuniform List<scalar> 
12556
(
1.155890796
1.155861871
1.15583024
1.155805405
1.156028554
1.156024187
1.156036295
1.156070636
1.156137366
1.15625506
1.156415954
1.15662225
1.101650114
1.100579194
1.156630316
1.156436731
1.156282585
1.156174621
1.15608878
1.156055478
1.155829247
1.155835004
1.155855785
1.155881541
1.155151783
1.155063515
1.154977326
1.154910052
1.155118583
1.15513428
1.155218075
1.155469153
1.155792733
1.156353584
1.157177479
1.123357784
1.014521229
1.003114317
1.076108234
1.157461506
1.156634377
1.156008585
1.155516467
1.155288607
1.154958709
1.154985166
1.15505039
1.155130396
1.154374928
1.154227855
1.154083805
1.153996338
1.154225825
1.15430795
1.154523056
1.155019868
1.155837119
1.15721765
1.018617731
0.8540547437
0.7893420442
0.788595695
0.8572746531
0.9973505259
1.157724899
1.156280842
1.155202262
1.154665652
1.154193346
1.15415975
1.154241306
1.15436878
1.153583829
1.153381481
1.15320365
1.153119209
1.153372143
1.153588025
1.154116349
1.155035942
1.156781869
0.9409452022
0.7142421126
0.5924493081
0.5285650142
0.5427385368
0.6088996449
0.728595951
0.9225975585
1.157474516
1.155385961
1.154311804
1.153471855
1.153379242
1.153452435
1.153615866
1.152763918
1.15251307
1.152305093
1.15225307
1.152600479
1.153039121
1.154069947
1.155730196
0.9856485976
0.6762442689
0.4809401711
0.3652602658
0.3196802504
0.3346744166
0.4040451295
0.5153340764
0.6825972501
0.9449543395
1.156336271
1.154335287
1.152981668
1.152650875
1.152667257
1.152845508
1.151951495
1.15166237
1.151453879
1.151468246
1.151945472
1.152727812
1.154528697
1.157254398
0.774777076
0.5033681063
0.3206957422
0.2041500805
0.1586802878
0.1851597305
0.2587503176
0.3658569808
0.5157815692
0.7416496981
1.094533599
1.154819779
1.152636095
1.151980479
1.151891891
1.152060629
1.15111627
1.150801432
1.150615724
1.150732018
1.151457661
1.152706899
1.155572054
1.010348913
0.6484530243
0.4019940114
0.2269429666
0.1031719283
0.05821035886
0.09180303368
0.1691428415
0.2712744792
0.4087249976
0.6042451627
0.9349228703
1.155841809
1.152470511
1.151370098
1.151108795
1.151239646
1.150344343
1.150013725
1.149875185
1.150193953
1.151128558
1.153027843
1.157127197
0.9122046502
0.5918194035
0.3704409218
0.2091075625
0.08588477628
0.05240762142
0.1281468673
0.2214164791
0.3468283657
0.5241194064
0.8245175057
1.157210807
1.152524602
1.150852638
1.150349288
1.15041447
1.149606198
1.149277043
1.149221709
1.14978288
1.150946051
1.153702857
1.158819272
0.8604610299
0.5861826043
0.3976867502
0.2715052118
0.1953036056
0.06369760584
0.1251291614
0.2071619835
0.3205207941
0.4826025962
0.7614887561
1.124927637
1.152790967
1.150455745
1.149653892
1.149628048
1.14899382
1.148679015
1.148726648
1.149553961
1.151045121
1.154701985
1.134167843
0.8501655477
0.6101662937
0.4524537864
0.3666988581
0.3725514429
0.08935279376
0.1420586765
0.2161133513
0.3245169981
0.4778413041
0.7327583024
1.064875178
1.153292091
1.150253392
1.14911025
1.148974711
1.148489437
1.148201111
1.14838782
1.149547462
1.15141742
1.155968948
1.113584155
0.856927845
0.6452640946
0.5088073779
0.4483020848
0.5165747564
0.1218839378
0.171920987
0.2436094849
0.3447179216
0.4879651845
0.7330172258
1.031980882
1.154001275
1.150268691
1.148778738
1.148521552
1.148156831
1.147904545
1.14823025
1.149718237
1.152005176
1.157452745
1.10910409
0.877746623
0.6838444551
0.5538779251
0.4866679311
0.4605254101
0.1594379706
0.2140213717
0.287924428
0.388652959
0.5263168648
0.7589397726
1.029263118
1.154938175
1.150537586
1.148710252
1.148330441
1.147933998
1.147730002
1.148257444
1.15013575
1.152748569
1.158989024
1.114652595
0.9160856049
0.7291406465
0.5946310869
0.4980031093
0.4135753881
0.05614455264
0.2080842984
0.2768631383
0.3568078244
0.4555829579
0.5936655981
0.8068870944
1.050242707
1.155970004
1.151026625
1.148896011
1.148411257
1.1478884
1.147736602
1.148447144
1.150655568
1.153823933
1.160693226
1.167206075
0.9652955352
0.7938352176
0.652995912
0.5352195667
0.2786056379
0.1119797721
0.3100594209
0.3889540818
0.463439279
0.55381907
0.6817551896
0.8736741733
1.090965207
1.157046144
1.151692965
1.14930214
1.148741342
1.147906117
1.147800978
1.148688603
1.15124269
1.154841972
1.16224349
1.16871618
1.048709201
0.8935022031
0.7608417749
0.6402723202
0.09064711083
0.1579919899
0.4214084451
0.5943665837
0.6272733364
0.6928447554
0.8057182867
0.9763645699
1.166749994
1.158081006
1.152434928
1.149861148
1.149229285
1.148054871
1.147996357
1.149041239
1.151902778
1.155873347
1.163635955
1.16982739
1.164489974
1.043376885
0.9450522343
0.8002552989
0.04832697726
0.1797017812
0.4490511346
0.731613921
0.8631250089
0.8807120086
0.9653256109
1.117343413
1.167998066
1.159017668
1.153193065
1.150503224
1.149847535
1.14818924
1.148163873
1.149344709
1.152512971
1.15685269
1.164842525
1.17054934
1.163776299
1.129726381
1.030458754
0.650606047
0.02848542177
0.2216502347
0.4907852121
0.7671273461
0.9742603458
1.090144674
1.144893119
1.168224274
1.168911894
1.159789279
1.15388768
1.151135995
1.150451783
1.1484018
1.148407526
1.149698163
1.153111529
1.157727072
1.165791164
1.170835963
1.162553233
1.120188114
0.977868995
0.4028819467
0.03140817894
0.2736386638
0.5400743815
0.8006558662
0.9870271395
1.094560959
1.14732425
1.169270977
1.169467835
1.160368821
1.154485306
1.151745226
1.151061424
1.148536796
1.148561255
1.149938475
1.153585063
1.158464416
1.166481229
1.170747816
1.160639283
1.111705079
0.9209371661
0.2447042287
0.04486247713
0.3143470771
0.5750857038
0.8181574136
0.9933856561
1.097621968
1.148812028
1.16979724
1.169707288
1.160727149
1.154919842
1.152224801
1.151550049
1.148724667
1.148772188
1.150216189
1.154023071
1.159049663
1.166914507
1.170240629
1.158150529
1.101706319
0.8677141684
0.1985982592
0.05849121286
0.3311061199
0.5858054684
0.8268705509
0.9983083396
1.099754278
1.149630924
1.169921083
1.169684033
1.160953534
1.155284308
1.152651888
1.15198523
1.148799089
1.148864998
1.150363349
1.154320524
1.159489719
1.167113539
1.169391881
1.155108482
1.08989306
0.8025964395
0.1690114311
0.07275911319
0.3431557017
0.5945451191
0.8331665015
1.002103931
1.101225879
1.149985789
1.169742803
1.169459414
1.161000806
1.15548401
1.152921555
1.152264937
1.148926491
1.149022481
1.150570699
1.154612933
1.159798611
1.167105619
1.168251494
1.151557156
1.075804847
0.7351003265
0.1472128614
0.08834139828
0.3539031016
0.6022538998
0.8375196985
1.004834846
1.102183906
1.150016378
1.169347288
1.169091074
1.160986614
1.155651167
1.153155359
1.152500956
1.148922243
1.149048498
1.150646944
1.154782896
1.160002093
1.166921591
1.166851064
1.147470164
1.058162087
0.6766131573
0.1305489397
0.1042849316
0.3636315217
0.6091411512
0.840652904
1.006552896
1.102691308
1.149805479
1.168801358
1.168626035
1.160836514
1.155663564
1.153226732
1.152572529
1.148984276
1.149153917
1.150806728
1.154985277
1.160118426
1.166590896
1.165206617
1.142718207
1.035427725
0.6276127486
0.1162993155
0.1196385038
0.3725495596
0.6153419807
0.8430687218
1.007435566
1.102787701
1.149399148
1.168152032
1.168098295
1.160685001
1.155689857
1.153302014
1.152639045
1.148903947
1.149116643
1.150827267
1.155068863
1.160164693
1.166131002
1.163309871
1.137059352
1.008208967
0.58598051
0.1048996572
0.1338280574
0.3807570397
0.6209075755
0.8449883434
1.007709305
1.10253283
1.148830996
1.167431609
1.167531335
1.160416155
1.1555657
1.153218209
1.152546467
1.148906891
1.149173577
1.150946275
1.155203757
1.160142966
1.165547564
1.161126405
1.130192855
0.9788887453
0.5502660256
0.09598366845
0.1464950989
0.3882417985
0.6258447203
0.8465065888
1.0075696
1.102005448
1.148134132
1.166664371
1.166941328
1.160195405
1.1555058
1.153190453
1.152503166
1.148761487
1.149079431
1.150915095
1.155209458
1.160060254
1.164839504
1.158592311
1.121899031
0.949627093
0.5198193704
0.08919239028
0.1574700293
0.3950190665
0.6302224825
0.8477260837
1.007175057
1.101286465
1.147343032
1.165871147
1.166341358
1.15985759
1.155290954
1.1530024
1.152301924
1.148714503
1.149092081
1.150992239
1.155276786
1.159910795
1.164001548
1.155631277
1.112132795
0.9213591386
0.4936606645
0.08403088337
0.167036015
0.4012542815
0.6342096145
0.8487790321
1.006648836
1.100446106
1.146491266
1.165070359
1.165742182
1.159615898
1.155189479
1.152919076
1.152198375
1.148522154
1.148953714
1.150915168
1.155205031
1.159698637
1.163019335
1.152232121
1.100999648
0.8942267693
0.4704820453
0.08012661711
0.1756477566
0.4071745426
0.6379936597
0.8497745197
1.006073055
1.099539835
1.145609477
1.164278092
1.165153288
1.1592443
1.154920585
1.152666125
1.151928593
1.148433292
1.148925494
1.150946086
1.155196653
1.159415197
1.161881363
1.148261737
1.088720047
0.8682722509
0.4495628005
0.0771975217
0.1836667882
0.4129326157
0.6416785378
0.8507634741
1.005495163
1.098610668
1.144724606
1.163508418
1.164583423
1.159013699
1.15480225
1.152551036
1.151787825
1.148221808
1.148764985
1.150837411
1.155053654
1.159064337
1.160570286
1.143699494
1.075563903
0.8435783786
0.4306402054
0.07522912333
0.191282903
0.4185686634
0.6452841416
0.8517595178
1.004945879
1.097695037
1.143862056
1.162774859
1.164039451
1.158637504
1.154511786
1.152266613
1.151483669
1.148089963
1.148691711
1.150810391
1.15495114
1.158636148
1.159068866
1.138546275
1.061789085
0.8201583686
0.4135257663
0.07402586649
0.1985844441
0.4240840367
0.6488150955
0.8527763148
1.004455983
1.096829398
1.143048269
1.162091269
1.163530196
1.158425743
1.154373424
1.15211623
1.151301917
1.147900258
1.148543992
1.15069723
1.154756834
1.158131847
1.157361427
1.132824638
1.04761597
0.7980132725
0.3980749219
0.0734116887
0.2056410583
0.4295007946
0.6522953579
0.8538437928
1.004065546
1.096054838
1.142311886
1.161470604
1.163056968
1.158087381
1.154108227
1.151848022
1.15101315
1.147705326
1.148405457
1.150589122
1.154522688
1.157545249
1.155428922
1.126578867
1.033216008
0.7770649174
0.3840106985
0.07329262474
0.2125067381
0.4348471692
0.6557597402
0.8550097238
1.003828665
1.095417918
1.141682304
1.160922903
1.162629601
1.157850807
1.153908565
1.151625004
1.1507535
1.147580519
1.148308721
1.150501851
1.154322013
1.156881912
1.153301543
1.119943009
1.018725545
0.7572057317
0.3710796409
0.07363192694
0.2191987836
0.4401408524
0.6592618796
0.8563451178
1.003811671
1.094962087
1.141178044
1.160457447
1.162243683
1.157647682
1.153746734
1.151451395
1.150560646
1.147332337
1.148122347
1.15032791
1.153910374
1.156173342
1.151025011
1.113189679
1.004376579
0.7385772913
0.359295071
0.074423975
0.2257046585
0.4453955007
0.6628648057
0.8579207739
1.004064301
1.094702022
1.140791084
1.160116637
1.161952202
1.157338203
1.153476803
1.151151239
1.1502158
0.1734513074
0.05678432722
0.04528890125
0.3544895754
0.08196791853
0.05974589523
0.5010886256
0.1151868318
0.08587300165
0.4674609972
0.1461842188
0.1201057463
0.4180747867
0.0419810181
0.05262947026
0.1830957225
0.1501705328
0.3237985677
0.08246194949
0.04312988608
0.1063082684
0.2506806992
0.1863408488
0.0833878239
0.0584980807
0.04677715429
0.08714824375
0.02895092213
0.01949962967
0.06117222896
0.1061716203
0.1085836312
0.3427148887
0.3434615946
0.2006235761
0.03121533117
0.04619465628
0.08592571537
0.1219473913
0.1085820498
0.4310263563
0.4795173003
0.3607986201
0.4241947459
0.2065044488
0.2346644445
0.05421305378
0.03876289782
0.1177116404
0.1499891134
0.127992598
0.4812687117
0.5184274053
0.493669805
0.5003559533
0.132117269
0.1728374325
0.09996400437
0.0736558826
0.492414379
0.4666861127
0.5145572853
0.4489588643
0.07705737116
0.1022392096
0.01796660684
0.1373572774
0.1323937885
0.5221858434
0.3977556564
0.4587758998
0.380998795
0.02985830386
0.04935909425
0.2717869488
0.1140041827
0.08440356483
0.06834452159
0.1625507535
0.03257665492
0.06205935427
0.04742198367
0.0301783698
0.04870764642
0.03204484783
0.04772639383
0.2385548564
0.2670673915
0.290621984
0.2071476248
0.1905483423
0.1869101567
0.2104213599
0.03838082616
0.03104605697
0.07132560236
0.04576070363
0.05178127347
0.04907983315
0.04599306089
0.06982393542
0.1757517966
0.2023764619
0.4438157366
0.1570471464
0.1315398323
0.1886330073
0.1591742655
0.07017026591
0.05553257098
0.102586177
0.07574268723
0.09691838721
0.05228606299
0.07299117745
0.09819182743
0.1036714118
0.1304163128
0.4925248789
0.1043813552
0.07878122659
0.130080967
0.1057630796
0.130553638
0.1040639282
0.05032648086
0.07528508179
0.4471775806
0.0132592089
0.05267921735
0.03156065735
0.07771338775
0.05423886584
0.01219334088
0.1440490952
0.1392296513
0.02038425734
0.004697945825
0.02954839474
0.3761219219
0.06691220145
0.01856230397
0.01090693309
0.03121122249
0.01889577129
0.06414027302
0.2503313412
0.1808728322
0.09991095694
0.1079038321
0.06763184752
0.03829464383
0.01791706953
0.008428388701
0.2674087104
0.2707472775
0.1788578743
0.009319428208
0.1523919093
0.187256959
0.1584609376
0.01099314718
0.05865240855
0.05092467181
0.07996416252
0.1608773342
0.1479269799
0.1612762006
0.07539746928
0.1210109299
0.04158612181
0.01330927404
0.02307130495
0.02234830465
0.0303536155
0.04716120923
0.0493498517
0.03552135788
0.1347610726
0.1257444535
0.1338211157
0.1003174968
0.1240450921
0.1315510564
0.0290976105
0.01247117595
0.05078169353
0.02315750095
0.03946568978
0.03175655297
0.01968908627
0.030372996
0.02201467909
0.01639283915
0.02311008965
0.02061854268
0.01003577945
0.01677352398
0.02187105092
0.03973448539
0.04038783384
0.04655980173
0.04547253903
0.01817449237
0.0100057563
0.0882071032
0.01532058524
0.02785795324
0.009383624861
0.01310109256
0.08434406143
0.09129596225
0.2574159061
0.2443779063
0.07460088178
0.06275359298
0.01076777009
0.0444432251
0.1877253198
0.1749909601
0.2053049942
0.1928802085
0.04479793429
0.05055865011
0.04193828246
0.100831403
0.06640537351
0.0591950064
0.03997650599
0.06590011315
0.113783501
0.03959557147
0.02399669248
0.01515382475
0.05400378575
0.02678168849
0.04377342346
0.02566825602
0.06068875518
0.03928778602
0.03852197262
0.2035767932
0.03094320241
0.2028482493
0.2273224352
0.03470581138
0.03893303131
0.03136546259
0.03420035976
0.2231598871
0.03676522774
0.03647926481
0.04924640439
0.06880045686
0.06411739725
0.07525470809
0.07047094881
0.04953372255
0.05487292413
0.05634755193
0.05119458058
0.06246057348
0.05778063113
0.05385913002
0.1445359453
0.1428868005
0.1750942313
0.1732580532
0.06631798598
0.009224039265
0.06501305013
0.0948707937
0.09303935913
0.1173496699
0.1157083154
0.02965401954
0.04362764908
0.1158012881
0.03311264079
0.01955274598
0.06628835228
0.2227472116
0.2098289662
0.2399807342
0.2270329855
0.06759834717
0.0264448371
0.04821384506
0.04720888755
0.07061941583
0.06976637579
0.007290243193
0.03492084036
0.0911377222
0.07879121813
0.1700146759
0.160645966
0.02364555612
0.01190888794
0.02044679308
0.0141377401
0.02975855023
0.01223769966
0.01361537008
0.01261215714
0.02979256654
0.05435117984
0.01257451634
0.01722528389
0.003514337721
0.01894624633
0.01439488007
0.6015721483
0.3720512653
0.3868714672
0.2504789487
0.008544368019
0.005311569503
0.1524825135
0.3488948754
0.2823963002
0.005877862767
0.0128594817
0.01075784079
0.1074744453
0.0955938946
0.03743101637
0.2001901605
0.167402095
0.08321528204
0.009581214417
0.016258391
0.01301061441
0.00863523429
0.0127588432
0.008980027862
0.03371378469
0.01437053521
0.0134510077
0.04321865653
0.05049729745
0.01470045628
0.02016063282
0.009678899814
0.009747132476
0.04052496022
0.1465909185
0.3246363722
0.312062807
0.3413578216
0.3288218324
0.1499112295
0.2743540231
0.2615352162
0.09259371236
0.03284915473
0.09518067628
0.08994215547
0.01171114442
0.0166476125
0.0915795792
0.04585991468
0.01633075014
0.014486367
0.03779260509
0.04304536149
0.03875489548
0.04956272325
0.0445711288
0.03929983551
0.03755689116
0.009956718178
0.00972501733
0.03242496828
0.1871057808
0.3578821559
0.3454759823
0.05947025032
0.0614302416
0.1363804931
0.02139564794
0.02334922127
0.05924698009
0.08421680857
0.102782815
0.09503394247
0.0586271051
0.08291860113
0.07718414051
0.09221725931
0.085174038
0.05977612959
0.1171597105
0.2911728851
0.2785274494
0.307887008
0.2953756597
0.1189831288
0.1003870735
0.03650979732
0.03723626714
0.02112993962
0.02195349594
0.08317350978
0.1248451971
0.05528804439
0.05906427353
0.0375410994
0.03822227019
0.1099110323
0.1198039737
0.0459558995
0.06250785057
0.00784106788
0.01780091091
0.05036567202
0.03851553423
0.07463486477
0.02051140421
0.02098942451
0.0201067935
0.0634222999
0.01119116421
0.004377246001
0.123213
0.1058475512
0.0881517564
0.08389957976
0.02918290349
0.01848252915
0.0307036188
0.07549404753
0.01832243388
0.01171687302
0.01881354564
0.02387155035
0.002836178485
0.03073401504
0.01993032499
0.01214759006
0.0063121809
0.01175318701
0.009351104768
0.009184071802
0.02774747635
0.02127444553
0.007139256278
0.0384922321
0.04018255779
0.01542927093
0.01117639637
0.007247534872
0.01174318337
0.01682602685
0.0106372336
0.01331554037
0.04159087693
0.01027204783
0.0100617435
0.01150989653
0.01272487026
0.03465753359
0.01174574058
0.01166468435
0.01296393166
0.01160301665
0.01222494319
0.01807374217
0.01390670895
0.02587170047
0.02014021362
0.01220324341
0.01613850477
0.02181384124
0.01829246366
0.02918062579
0.02315425926
0.01789715212
0.01606825709
0.01246735608
0.01233657915
0.009608775885
0.03568139544
0.04251620562
0.0131990805
0.0124441678
0.013797027
0.01428382938
0.04924226564
0.009217208338
0.009297028092
0.01165771088
0.009375876567
0.009324704048
0.0416907746
0.009447236484
0.01354899601
0.01274281307
0.01158973404
0.02021196498
0.05237768446
0.04737634641
0.0107166776
0.03861732714
0.03298873296
0.04555984767
0.04067231864
0.01113402416
0.01151452741
0.0361722551
0.03021744768
0.1035844999
0.09704893391
0.03662094449
0.0469512559
0.1107982837
0.1053691468
0.04535507954
0.04445258962
0.0686719537
0.08147401095
0.1001822484
0.06113692073
0.07635035703
0.0696493819
0.06053434915
0.1418356675
0.1299760597
0.1092506817
0.1454868056
0.06044826395
0.03975507736
0.04492791835
0.05590676417
0.03411472293
0.03827519081
0.02294135044
0.02173010279
0.04437446165
0.01561879352
0.01573870855
0.01234594763
0.02292160843
0.02714886166
0.01638741911
0.02312515488
0.03447677802
0.03154541175
0.02408284999
0.02910774361
0.09559921437
0.08354368124
0.1021952329
0.09812675298
0.03024348758
0.07495256703
0.07268320055
0.08010949126
0.07577828155
0.0362515699
0.1194103511
0.1146971202
0.1270862411
0.1210907608
0.03684990435
0.03249940413
0.1075345354
0.1036014574
0.1131954138
0.108906863
0.03285184984
0.01034245244
0.01006998614
0.03732780439
0.03380271048
0.01006599885
0.01045330747
0.0429796488
0.04220269179
0.04516705823
0.04324685886
0.04078022452
0.03972827369
0.04194642559
0.04105189085
0.06924096183
0.06724771886
0.07197860726
0.06993659479
0.06171341974
0.04788503519
0.06641422063
0.06429484274
0.02415721683
0.02051023568
0.03136246995
0.0261507748
0.006776497875
0.01308919966
0.01224926789
0.01914810989
0.01346122431
0.03554819606
0.03615405336
0.09902332752
0.02111779421
0.02090994136
0.02176785382
0.02130196164
0.02025888461
0.08552148964
0.02258668854
0.03340508183
0.040372984
0.05341665509
0.1230258865
0.0369550639
0.02388858161
0.03959029502
0.03663649872
0.02253724727
0.02200263053
0.02345547866
0.02275859557
0.1113184684
0.03845427161
0.03934595194
0.006703968337
0.02742203696
0.009891632691
0.01015586708
0.009854137449
0.0255316887
0.008199770556
0.02003951818
0.01136043546
0.01162821322
0.04971724883
0.04333520627
0.01991629565
0.02040561188
0.07368974361
0.06559778785
0.01903624739
0.01985316145
0.01101193689
0.02809037219
0.08129657526
0.07295382196
0.01315673232
0.01255448482
0.01753555395
0.01210639346
0.01342578302
0.0164473235
0.03062185797
0.008690444502
0.01301513604
0.011970991
0.01278415624
0.02075905264
0.05383328032
0.1140215995
0.1473670785
0.01058386175
0.01036656318
0.1899632786
0.2410454489
0.198651584
0.007000890482
0.03648035947
0.01362894304
0.01773245131
0.1381063441
0.144012386
0.161489378
0.004834625619
0.007471753598
0.005525971526
0.00489585202
0.005822260488
0.004553181
0.05750729817
0.03592587482
0.02263334389
0.02579794675
0.02320710681
0.02728535103
0.2187918331
0.3900968824
0.3781831913
0.3916527972
0.3941162244
0.2227738874
0.04401806745
0.03824632568
0.01248713738
0.066471414
0.0783888362
0.1355492223
0.1180195364
0.11252308
0.04743789268
0.02867152411
0.03268899317
0.03302596905
0.374155375
0.3619554691
0.1907667453
0.1514103623
0.06713876809
0.07096627994
0.0740474124
0.08485847187
0.1655822124
0.05791086
0.1262448581
0.1199290304
0.01115742646
0.0111309837
0.01442490837
0.01971218408
0.0200046857
0.0324007604
0.01144078783
0.01130429482
0.01106678107
0.02701254768
0.05304549046
0.04566741772
0.01851223275
0.03100000269
0.01927574853
0.01944756486
0.01891424968
0.0156710936
0.009529414381
0.01149927336
0.01092821765
0.01094434388
0.0232564515
0.0288671165
0.05844346786
0.04039805283
0.03740541984
0.03416969352
0.02520055684
0.04361051572
0.01514292962
0.02105200343
0.01194157064
0.008552764309
0.008667697703
0.01215721572
0.01207537013
0.02336194066
0.01479514074
0.01013439977
0.01915073408
0.01984338577
0.01816797157
0.01535237828
0.01891860084
0.01662304121
0.01052403578
0.01112408514
0.006535245995
0.009432981641
0.01058691282
0.05923993999
0.05399446275
0.02197530337
0.009237087375
0.01340505399
0.01225880366
0.01095061565
0.01420675992
0.01265340821
0.04841143032
0.03727469513
0.04277897157
0.06725165004
0.09531448735
0.0938391664
0.04155623056
0.06761711137
0.06389018428
0.09278431076
0.09089799698
0.06444003003
0.0339081166
0.04073767115
0.0360408407
0.02754757903
0.02819730666
0.02325080835
0.04735712127
0.04593841576
0.05117641943
0.02337612816
0.03371794477
0.03207299469
0.05223722119
0.05185628014
0.03068733915
0.02839052922
0.02797511009
0.03103310718
0.0303228332
0.03525123511
0.05846581836
0.05783343031
0.06221802345
0.06142598634
0.03816111829
0.03170105026
0.05349095853
0.05296431126
0.05718396987
0.05654530266
0.0337340852
0.06449974786
0.06642761619
0.1496433116
0.137932049
0.06201872176
0.06388842364
0.09181981096
0.09504410015
0.180868721
0.02637501143
0.02623207987
0.02773607073
0.02751724746
0.02011193261
0.0259612484
0.02585767804
0.1675211324
0.0871032581
0.09061753699
0.009178856551
0.009184220781
0.01183894765
0.01138308929
0.009219776316
0.00907356968
0.00705938799
0.06052948279
0.02429630616
0.02987704594
0.1344206343
0.1283504478
0.0611037938
0.07054041155
0.1416876359
0.1362303149
0.03173188127
0.03179594024
0.04856746524
0.04689306242
0.03133455347
0.03129704873
0.01092539854
0.02240053381
0.03553628846
0.03504591477
0.008611467225
0.01427168476
0.01807816405
0.01353768785
0.01291916104
0.01835788061
0.01860145637
0.03021169845
0.01233019559
0.009006409383
0.01223394251
0.01242796914
0.02823515041
0.0178595301
0.01844287203
0.01372811886
0.03351766639
0.02818190117
0.01075072944
0.01071978387
0.01070415066
0.01099692828
0.01571216558
0.006458443867
0.004172825111
0.007769823628
0.01169315647
0.01033133836
0.01061363582
0.01027031134
0.01045202318
0.0108790141
0.01021833894
0.006765386906
0.005315193716
0.01230604423
0.0126683199
0.01191668088
0.01201263053
0.01395038562
0.02140724589
0.02170839154
0.02097937857
0.02123421216
0.01382041078
0.009596741536
0.01621430635
0.01619468626
0.01674208991
0.01632947329
0.009460959829
0.01548499892
0.02408886466
0.02678908062
0.02200141546
0.02271970013
0.01500797444
0.009924263998
0.01622116901
0.0162223152
0.01616230066
0.01620721042
0.009813514112
0.0115132316
0.01172301556
0.01110437562
0.01166912151
0.03667143221
0.05569669385
0.05523026251
0.02137171014
0.03541651112
0.03516653733
0.03672227629
0.03577429305
0.02157708467
0.01152457578
0.01112187977
0.01128015561
0.01160216303
0.01999507368
0.01980033312
0.0204275687
0.02020773437
0.01558327155
0.03445756123
0.02059627759
0.02150886106
0.02068947257
0.03468176121
0.03446144229
0.03501189465
0.03482916714
0.0208152339
0.02132013758
0.02072842519
0.03109797784
0.02227173628
0.01600431276
0.00764336618
0.01113551605
0.01106331005
0.007551505545
0.04181817658
0.02899847732
0.003000190099
0.02918697805
0.0446205654
0.04426815973
0.01829132537
0.0116854653
0.008578151593
0.003616886494
0.01307251339
0.01329686239
0.01903894166
0.01920387086
0.03092703392
0.01934117249
0.01079438883
0.01087714418
0.01513707132
0.00432050391
0.009163135898
0.007081155894
0.006186799938
0.007184912542
0.009370422293
0.006582214329
0.01072646699
0.01078345168
0.01058623792
0.04014969262
0.03094521216
0.008372317455
0.01046638397
0.01165434902
0.01885732672
0.02121116113
0.01235294361
0.01525695778
0.01510135364
0.01029168806
0.00680656306
0.01026055117
0.01166514319
0.008128325113
0.01162907183
0.01189937962
0.01216852585
0.01204555218
0.01180776666
0.01203796162
0.01194897105
0.01187565846
0.01212411382
0.01213642994
0.01209211494
0.01233121759
0.01267723999
0.01237952799
0.01998696365
0.02090955329
0.02010186996
0.02699961064
0.02471599821
0.0192662243
0.01804429515
0.01936220142
0.01178449312
0.0188924709
0.02003700443
0.01360840041
0.01889463366
0.01265988432
0.01294065221
0.020557686
0.02079380854
0.02008678888
0.02041737898
0.01275661882
0.01396097834
0.02423129692
0.02380608079
0.009274300971
0.009277195257
0.01030966807
0.007873341198
0.009089690703
0.009167812882
0.009233100126
0.008961735671
0.01106295121
0.02005316767
0.01791900816
0.02314677846
0.02195737079
0.01273196865
0.009469384944
0.01010813542
0.01461218705
0.006541440473
0.009671374274
0.009633881121
0.01126781287
0.009465969284
0.009660678577
0.01760010926
0.01564611777
0.009831683182
0.04660819742
0.04338958706
0.08349926448
0.07468704321
0.04354388142
0.06416462533
0.08998574725
0.08634354466
0.03575346248
0.0328535116
0.03097023614
0.02330944195
0.03029370143
0.04414728578
0.04491037996
0.03905718874
0.02286777691
0.03278301641
0.03327312102
0.02980095271
0.03082032594
0.02153752385
0.01481833435
0.01593681917
0.02445899608
0.01739274113
0.01650944176
0.01856667414
0.01759426807
0.02482326953
0.01684031211
0.01755636116
0.01386022369
0.01804991024
0.04774189853
0.04793843969
0.03055637092
0.03021686371
0.05085477085
0.05084574344
0.02908665478
0.02869001167
0.02986533084
0.02943925588
0.05962929889
0.05902199621
0.03566165142
0.03748948467
0.06081722629
0.06022777992
0.05472033603
0.05415767477
0.0321470525
0.0332472246
0.05589478617
0.05530384792
0.01023909962
0.01628848266
0.01631437367
0.01626554961
0.01629368854
0.01019187607
0.01048157333
0.01514567039
0.01316666839
0.01623442459
0.01595520618
0.01048382407
0.04270812232
0.02508782451
0.02535627845
0.02466969783
0.02487313211
0.04246132731
0.04404853532
0.02628922758
0.02676658589
0.02561901625
0.02592746714
0.04356831454
0.04039806961
0.02346071513
0.02369906862
0.02309662194
0.02332543253
0.04016653876
0.04166555473
0.02428059285
0.02446883673
0.02386155259
0.02409453306
0.04139246443
0.02681222095
0.02662994551
0.06858538156
0.04587527653
0.046197414
0.04517225936
0.04545271341
0.06785575907
0.02725721619
0.0270528745
0.02472851017
0.02597792538
0.05963379537
0.04142856348
0.0411234943
0.02765695421
0.02905403845
0.05320699156
0.06592993671
0.04446777705
0.04466699744
0.04374604143
0.04369566194
0.06468088575
0.02552981527
0.02557652793
0.009138468881
0.009324601042
0.009067071456
0.01088527491
0.009888014996
0.01274340731
0.009200678454
0.009171993661
0.009144338163
0.009171108339
0.01262509793
0.01714031167
0.009999668175
0.01118254653
0.009311392827
0.009119200891
0.0148154865
0.0354735096
0.05314673077
0.05284610457
0.0545408924
0.05418413618
0.0360560789
0.02107477206
0.02083786153
0.02164604887
0.02137432316
0.02136438479
0.01677753771
0.02373095875
0.04360336372
0.03901302003
0.05068511777
0.0489159744
0.03365036323
0.02594082453
0.01803879742
0.0231962717
0.0246529062
0.03891542386
0.02274806719
0.02303373073
0.02207796579
0.02280262851
0.03898271765
0.0223735708
0.02214850902
0.0231923634
0.02294919314
0.01006966539
0.0113721011
0.01105243676
0.01404560315
0.01230362954
0.01006320418
0.009678930133
0.009856406036
0.01055941807
0.01021804057
0.006603445609
0.01175163801
0.01125722642
0.01140606029
0.01215884882
0.01160724215
0.01169352945
0.01934668582
0.01930102008
0.01959737313
0.01953295109
0.0296764304
0.0296635468
0.04491051783
0.01853738454
0.01956659932
0.01906977297
0.01913462464
0.02013258732
0.03388584726
0.03352908824
0.03430602516
0.03402796499
0.02021036849
0.01958056702
0.03284827322
0.03102177403
0.0334085839
0.03282950122
0.01956811503
0.01116398549
0.04266310828
0.04209963335
0.02789187628
0.01330493647
0.01093697056
0.01074098534
0.008180013752
0.01122530831
0.0127064802
0.01810599995
0.01269837945
0.0135023953
0.01324369885
0.03033199308
0.01871463987
0.01891879762
0.01203762356
0.01216627486
0.01219026011
0.01279986121
0.01269406675
0.008757110989
0.008928248971
0.01275297537
0.01226911092
0.01261952806
0.01517029573
0.01871520098
0.02827133476
1.155096303
1.1555593
1.155695688
1.155760435
1.156561441
1.1561937
1.156875945
1.150869504
1.156958983
1.100991517
0.9534560652
1.144839751
0.9250591924
0.8640255917
1.020439008
0.863015777
0.841316651
1.001000447
0.8478599748
0.897266123
1.061088889
0.9180835016
1.026138203
1.157723439
1.064156958
1.157707599
1.156816284
1.157319959
1.156384079
1.15614178
1.154975188
1.155976987
1.155586248
1.156424184
1.098837809
1.156806766
1.022472492
0.8321271493
1.072648843
0.7843583121
0.6795546819