/*--------------------------------*- C++ -*----------------------------------*\
| =========                 |                                                 |
| \\      /  F ield         | OpenFOAM: The Open Source CFD Toolbox           |
|  \\    /   O peration     | Version:  v1912                                 |
|   \\  /    A nd           | Website:  www.openfoam.com                      |
|    \\/     M anipulation  |                                                 |
\*---------------------------------------------------------------------------*/
FoamFile
{
    version     2.0;
    format      ascii;
    class       volScalarField;
    location    "2.01";
    object      p;
}
// * * * * * * * * * * * * * * * * * * * * * * * * * * * * * * * * * * * * * //

dimensions      [0 2 -2 0 0 0 0];


internalField   nonuniform List<scalar> 
12556
(
899.2725562
898.3151862
895.9053724
890.8111379
883.2822204
867.1848174
840.5687137
797.8214563
733.5096825
641.0462478
515.6596495
357.3926513
173.6873927
-19.46618722
-203.7369022
-364.4004554
-494.9861468
-595.18657
-668.557705
-719.7043311
-762.3115623
-781.5065262
-792.5809475
-797.6855172
899.8759081
899.304459
897.6626249
894.0014905
886.5023241
872.9063242
849.428105
814.8301388
757.0943158
671.3705923
550.9342718
393.0761919
203.9456468
2.564547054
-192.3854992
-361.7893819
-496.9906553
-599.1865363
-680.4995237
-728.3204606
-770.0237196
-786.7578828
-796.4904865
-800.9545329
901.2659113
901.5509746
901.7137879
900.9969262
896.143942
888.0313612
872.126891
842.5611169
794.4403315
716.9965039
595.6276829
422.3924896
208.6925167
-18.40877266
-228.1517595
-404.6892931
-540.1740757
-635.7689838
-713.2996348
-752.6160203
-787.7500532
-799.2867494
-806.0121719
-808.9788561
902.763641
904.2601167
907.0404705
910.4373882
910.0048585
909.8742971
905.5683382
887.4191765
856.8370348
791.8877688
670.0207966
473.132714
205.5898147
-80.41434745
-321.103269
-496.1858688
-619.9418219
-702.6669703
-764.2075973
-789.3750198
-813.0718505
-817.6461584
-819.8379205
-820.6193788
903.1359209
906.0169269
911.7953308
920.1933718
924.7670081
935.3197298
945.7668521
946.114759
940.1362047
903.0450324
801.9136547
581.1627239
210.2549449
-203.6631336
-498.0757097
-664.0236439
-749.6758077
-796.6892756
-830.7391184
-836.0769843
-842.5151204
-838.4972885
-835.1885832
-833.372261
901.0110755
905.2696779
913.982486
927.4374261
938.4638592
960.0933415
987.4391916
1009.476422
1040.672303
1061.30791
1035.484733
842.2614284
249.1862556
-466.5371882
-819.6320918
-921.0114314
-929.0222844
-916.6123084
-907.8336457
-887.1995583
-872.301649
-858.6381713
-849.2389602
-844.6581218
895.0805818
900.5347325
911.755259
929.6310707
947.2790501
979.0609551
1022.159258
1067.164887
1140.806319
1242.659638
1384.797609
1496.044655
474.0705776
-1189.85603
-1361.758353
-1262.520724
-1143.101457
-1048.762824
-985.9737687
-935.7316289
-898.3149015
-874.3796618
-859.1556436
-851.9820601
884.2181584
890.5260088
903.5238794
924.4692837
948.0198585
987.1931804
1041.38135
1105.862431
1212.811363
1378.863798
1668.133736
2249.780805
-3029.458046
-2101.360095
-1628.287007
-1346.619672
-1168.702621
-1049.557236
-973.2752432
-913.812844
-881.8402271
-862.1419106
-852.834017
867.5812441
874.2836192
888.0824402
910.3899424
938.2255598
980.9551863
1040.095135
1115.278672
1235.074436
1408.820645
1663.155669
1982.379502
-4412.139954
-2601.751609
-1869.468694
-1478.351352
-1244.079388
-1083.88207
-990.4235184
-914.7269162
-877.9694029
-855.7169039
-845.1337829
844.7284518
851.3211083
864.8512697
886.6565019
916.8677946
958.9734427
1016.608188
1092.732519
1204.591796
1352.900035
1528.590039
1688.582233
-3999.383706
-2554.772126
-1873.518571
-1484.047093
-1251.221842
-1079.048821
-981.8092535
-898.5430892
-861.0813276
-838.4785844
-827.6745351
815.6817238
821.7002852
833.9724152
853.4756386
884.3234689
922.1403747
973.0371012
1043.114683
1138.164709
1254.241792
1377.43668
1485.560346
-2962.920703
-2131.788518
-1675.455472
-1385.644448
-1192.298997
-1034.551209
-946.9287622
-865.1070531
-831.0448265
-810.2747816
-800.2704775
780.8898471
785.9507624
796.2558141
811.7754638
842.3536781
872.6942465
913.2462832
972.7715205
1047.214532
1133.24956
1222.830861
1324.199676
-1913.512121
-1578.467877
-1369.624747
-1208.371793
-1081.459111
-958.0978922
-889.7339879
-816.6991974
-789.3917517
-772.1357526
-763.7443417
741.1860758
745.0340726
753.0061979
764.3083971
791.0844616
813.4449201
841.4315926
888.3626931
940.3470389
996.1854964
1050.443935
1138.414248
-727.7964846
-970.5144354
-1055.674672
-1048.602306
-1004.02766
-944.470154
-862.3680301
-816.7881327
-758.0377583
-738.9098159
-726.0131405
-719.729861
697.5911562
700.1318094
705.5799987
712.9262157
734.7773676
748.7988729
764.03489
796.6615924
825.7734379
849.4160205
857.574702
881.8165203
285.0225558
-390.1793823
-658.2755037
-773.7331425
-810.7832734
-801.8971634
-760.2370644
-735.7838034
-694.2981332
-682.7020365
-674.3301337
-670.3297628
651.2619266
652.4228654
655.0198435
658.1755581
675.3140952
680.3539918
683.7108996
699.7227199
706.4352918
700.4405407
662.6160247
553.3140488
253.6730615
-148.0324894
-414.9637208
-569.5461309
-646.2548183
-670.7978067
-659.9532099
-654.2001606
-628.3908164
-623.5452083
-619.5678178
-617.7413851
603.3634285
603.2518362
603.12475
602.3625744
615.0101219
612.3286016
605.867089
606.2379366
593.3705831
565.1486876
504.0986446
392.0936191
190.447048
-69.65141484
-283.4510276
-430.6773406
-516.5835566
-557.955945
-568.2936026
-576.2548384
-563.2146452
-564.0629275
-563.9514559
-563.9823129
555.0329795
553.8596469
551.45119
547.4245721
555.8328469
546.9704258
532.8069692
521.4619542
492.0602114
448.7627002
380.9398998
281.7408885
128.5190667
-51.03921799
-213.0715353
-335.9862498
-415.9705041
-464.6040968
-487.3377937
-504.3530331
-501.1324692
-506.3971143
-509.3174467
-510.7493947
507.2849302
505.2765393
501.0747841
494.5275985
499.3067708
485.9214639
466.4077011
448.5521891
409.063108
356.8169012
288.3252916
201.7585202
82.33347948
-49.03519339
-170.2252553
-266.6142843
-337.0043752
-387.4121389
-417.1959682
-439.5914468
-443.5241679
-451.848836
-456.9631732
-459.3817877
460.9207829
458.2944361
452.7651395
444.4131073
446.3759984
430.0286904
407.3704284
386.0562721
344.7989728
291.0455133
224.6315755
151.375862
54.27619778
-45.0980715
-136.260736
-214.2067376
-277.0150595
-325.4068061
-357.6091942
-382.4234795
-390.9647157
-401.1624027
-407.6903675
-410.8010095
416.5361146
413.4998441
407.087478
397.5830346
397.5103333
379.5262307
355.2714753
332.8564667
292.504523
242.6541932
183.5016851
120.418238
42.5220192
-36.19135874
-110.1142068
-175.5608582
-230.6105613
-275.1744043
-307.2802853
-332.4498407
-343.6096334
-354.7383652
-362.0378392
-365.5173122
374.542979
371.2831746
364.3886071
354.2857476
352.8646223
334.2660589
309.7383684
287.5470386
249.4769801
204.3624856
152.7037284
98.41674781
34.5743393
-29.83172623
-90.90194025
-146.1240688
-193.968529
-234.0104392
-264.6662041
-288.9299247
-301.296527
-312.641944
-320.2076807
-323.8207781
335.1918489
331.8604774
324.8161185
314.5760849
312.2917906
293.8726284
270.0171023
248.8064739
213.7158936
173.4404259
128.3186638
81.88537607
28.39012361
-25.14469808
-76.19413244
-123.026406
-164.4594807
-200.0036343
-228.3370418
-251.0581832
-263.6566313
-274.7185361
-282.1890021
-285.7629012
298.5904844
295.3036283
288.3611727
278.3353433
275.5862939
257.8843666
235.3929512
215.4997872
183.6695602
147.9946388
108.6614905
68.76194358
23.5188757
-21.48808912
-64.54157676
-104.4312852
-140.2568001
-171.555598
-197.2149682
-218.0468623
-230.2345481
-240.6921681
-247.8273441
-251.2451584
264.732299
261.5753961
254.9153393
245.3520068
242.4418478
225.8092926
205.0086473
186.7091061
158.1612727
126.7221103
92.50967475
58.08942933
19.61502014
-18.50877318
-55.04355763
-89.12676585
-120.0728507
-147.4770318
-170.3901298
-189.1908321
-200.5666857
-210.2309442
-216.8803319
-220.0678513
233.5290751
230.5626718
224.3099181
215.374961
212.5311682
197.1818393
178.2254757
161.6582532
136.2895433
108.7039024
79.00410162
49.2556109
16.43627808
-16.00219809
-47.12137694
-76.29330062
-102.9916756
-126.8740285
-147.1116652
-163.8731836
-174.2082099
-182.981868
-189.0592625
-191.9734681
204.8371903
202.1015391
196.3379498
188.1348313
185.5189764
171.5633173
154.504463
139.7088381
117.3495581
93.2595781
67.5414834
41.83193067
13.81112765
-13.84199418
-40.3875363
-65.35850018
-88.34626563
-109.0657429
-126.771619
-141.5622055
-150.7431272
-158.5913535
-164.0567138
-166.6772104
178.4730873
175.9924177
170.7666988
163.3526795
161.0818095
148.5603277
133.3855913
120.340172
100.7904046
79.87208403
57.68381872
35.51613508
11.61629101
-11.94649167
-34.57423015
-55.91319128
-75.64300344
-93.52848668
-108.8773626
-121.8054395
-129.7885214
-136.7167868
-141.5614844
-143.8834146
154.2265502
152.0132429
147.3496753
140.7493715
138.9063171
127.8147062
114.4709003
103.1188269
86.17192579
68.13557119
49.10798532
30.08066298
9.759261815
-10.26020299
-29.48832847
-47.65401113
-64.50488425
-79.84861154
-93.02068299
-104.2112485
-110.9962241
-117.0339734
-121.2691199
-123.2974105
131.8734296
129.9318111
125.8378965
120.0537191
118.6995819
109.0065613
97.42440691
87.6813546
73.14344052
57.73732397
41.5663047
25.34624697
8.16751362
-8.744069854
-24.98635813
-40.35073199
-54.63866698
-67.69533355
-78.86321716
-88.44326987
-94.05245452
-99.24201132
-102.8899138
-104.635026
111.1844507
109.5134784
105.9857775
101.0061713
100.1858794
91.84500565
81.98767737
73.72126194
61.42198594
48.4300663
34.85906199
21.16791846
6.782369159
-7.368977017
-20.95724307
-33.82220934
-45.80816245
-56.79268885
-66.12056822
-74.20855433
-78.67463602
-83.0632483
-86.15167434
-87.62688253
91.92271248
90.51926732
87.54871623
83.35099012
83.11563643
76.06361555
67.86598462
60.9961785
50.77550896
40.0102761
28.81130796
17.42841654
5.556290302
-6.11242385
-17.31287539
-27.92329605
-37.82162049
-46.9005636
-54.54816937
-61.24982505
-64.60211271
-68.23892334
-70.79683199
-72.01556216
73.88081689
72.73820373
70.31316991
66.8742948
67.23705802
61.42144105
54.7562884
49.30082059
41.00415581
32.30396342
23.28068519
14.03142854
4.450449052
-4.956369951
-13.98141523
-22.53516686
-30.52508749
-37.86047916
-43.90731732
-49.33425299
-51.61636948
-54.54473716
-56.60030196
-57.57707144
56.74648708
55.8683191
53.9857093
51.27070576
52.38308252
47.69936126
42.43354933
38.41439838
31.92261844
25.15461521
18.14994219
10.89478335
3.432014474
-3.885316662
-10.90114123
-17.55447193
-23.78121405
-29.52850656
-34.00927787
-38.25236221
-39.44323045
-41.71669415
-43.29058665
-44.03097045
40.61979658
39.97884358
38.62420748
36.67961997
38.07015952
34.69202837
30.79614448
28.14484133
23.36377379
18.42067956
13.31256104
7.946205785
2.47245432
-2.885412919
-8.017660071
-12.8885831
-17.45906151
-21.69610755
-24.71672505
-27.79140868
-28.13163086
-29.73686233
-30.85195611
-31.38272422
24.13141648
23.81999757
23.01510306
21.84262705
24.42701333
22.22830829
19.64332516
18.33009676
15.17711525
11.96784941
8.663194094
5.118822822
1.546398234
-1.943524653
-5.281412711
-8.453255595
-11.44143794
-14.23627143
-15.85336007
-17.86579191
-16.77190163
-17.73424341
-18.3903613
-18.64681635
12.08080423
11.78650515
11.36502015
10.7114183
11.12171239
9.983951704
8.740949292
8.828763916
7.224601761
5.648928869
4.088246524
2.357807961
0.6334681188
-1.044922716
-2.645486074
-4.171303689
-5.620189493
-7.000662493
-7.184865138
-8.101284503
-8.132768135
-8.596320601
-8.90364197
-9.12942855
2031.493909
-4743.778076
-3227.239147
1718.509996
-4363.484755
-4784.832241
1507.346588
-3225.1557
-4241.694799
1344.677965
-2084.79054
-3076.217466
1152.669904
-778.9747666
-822.4793204
-1082.755668
-1950.588632
910.9011849
371.7834547
-731.1034729
233.8319855
-398.7459228
-971.4977573
2202.027281
719.781348
-2855.061326
-993.808754
-6439.710066
-4271.224111
-4363.356857
-2799.603578
-2273.542656
1565.512229
1701.387449
1942.781538
-6232.551135
-6675.983084
-4102.786642
-2877.490444
-2886.683497
1415.359086
1496.759211
1672.757483
1604.945275
1638.16402
1746.919816
-4498.659334
-5382.769814
-3098.582402
-2433.630239
-2801.142499
1262.487412
1331.084648
1474.76641
1424.019964
1461.394865
1527.538489
-2926.575789
-3588.24145
1095.777825
1148.29935
1310.360399
1250.259704
1309.537051
1384.873833
-1590.718637
-1563.318937
-2140.00127
906.565368
911.4779885
1121.872336
1038.430027
1085.549178
1202.764273
622.4429293
368.1635371
385.0860968
2542.582268
2120.726181
3007.971877
2623.990687
-6696.200872
-6489.727333
-4377.78313
-6196.098084
-6523.336545
1761.866768
1872.4806
1817.218702
1876.902133
1765.27818
2081.243868
1895.495671
-5436.928012
-6193.023164
-4597.334109
-6059.587149
-5345.79568
-6506.594227
-6097.574423
-4637.948116
1538.224161
1623.753505
1578.91496
1631.337743
1539.615746
1757.4373
1639.288111
-3686.892623
-4436.843234
-3672.562934
-4330.528124
-3615.556184
-5292.704526
-4443.14795
-3820.469569
1390.040234
1457.465889
1404.295517
1460.849444
1394.317916
1533.906241
1464.549059
-2224.868354
-2835.927995
1209.689264
1304.196803
1238.328828
-1543.758678
1309.495887
1214.816662
1389.026477
1314.892721
-1585.314603
-985.1887754
-1484.349095
-1539.768861
1044.87267
1076.743048
1021.763337
-3.550014382
1082.319128
951.6025567
1207.913347
1090.352464
-78.09252972
1684.873328
1983.933733
2129.651431
2225.742652
2571.415629
2857.030971
-8346.15009
-5495.850911
1854.117966
1891.498091
2080.497298
-3501.526567
-2039.776699
-1800.868306
-2282.864923
-2003.401639
-1956.974483
-2260.275525
-135.1251089
-460.3073388
-841.8855619
2118.744852
2501.84746
2183.538419
2248.660751
3890.157368
3448.647979
-4042.994738
-6066.056763
-4159.306941
-2310.178547
-2638.058678
-2499.707074
-2792.695608
-2200.002755
-3520.614874
-2880.606794
-2641.438882
-1131.788364
-249.4248542
-416.8877738
1108.363796
2093.594946
2955.669194
-3769.967011
-1227.530258
764.3395453
-8437.042378
-5885.772795
-8086.53346
-5212.999918
-7938.131209
-5554.561422
-6440.338297
-6472.400161
-4915.047629
-4975.065427
-3086.117254
-3424.169241
-3203.462516
-3405.891717
-3058.63421
-3843.710705
-3458.337416
-3298.1807
1344.94588
1315.269874
1282.649759
-1588.378627
-1864.890095
-1920.423193
1145.23969
1111.565841
1062.518842
1169.560299
1126.681177
1152.325952
2603.197181
2286.207892
2326.658642
2294.229866
2622.658152
2080.025204
2259.031833
2267.126721
2946.826358
3379.479251
3737.786359
2688.414275
3283.914654
2875.328815
3333.213728
2682.095251
-6715.332738
-6708.99428
1823.232764
1889.489433
1815.366516
1985.794971
1965.791633
2065.615956
1895.219194
1955.127873
1960.060068
-5789.298106
-5836.780398
-5736.275588
-5133.546996
-5317.999296
-4835.631577
-5064.09487
-5689.683206
-6338.017039
-5528.47451
-5572.077395
-5370.287687
-5498.075367
-6307.607795
1585.022557
1578.415364
1702.617701
1693.948957
-3995.959831
-3886.812317
-4050.214128
1430.646546
1425.935435
1498.099289
1493.556
-3005.711637
-2665.402775
-2569.558241
-2684.259356
-3026.695324
1251.89413
1222.176414
1183.018952
1271.17681
1234.914689
1259.413211
-1182.070084
1263.527533
1255.525024
1353.432236
1349.058791
-1927.047168
-1185.324838
-1226.807637
-1497.36733
1044.51607
988.9045904
944.9699369
966.2883202
511.4794499
223.7996184
1158.167305
-236.8339646
182.2580072
-151.1276732
1151.729403
-326.4044788
-186.375344
149.4641401
-7014.842446
-2159.960829
-2319.466069
708.4717258
656.4576786
876.8583816
765.9012717
790.8230582
993.254029
265.7030254
-91.24927816
-283.5404091
4754.206743
-2352.376186
-2528.499361
-881.7327297
-1137.937175
-1136.434016
-106.3200694
-354.368916
-63.84555102
1688.737999
2784.547625
3826.538219
-4836.541944
-1565.873724
754.9708519
-6331.885064
-7217.562594
-7080.505438
-6597.909674
-4674.723176
-4868.155628
-4662.176992
-5652.625411
-5472.228306
-5213.741444
1491.161694
1471.088112
1442.586417
1511.926283
1480.957492
1496.025551
1356.408241
1325.701374
1349.577234
1111.894083
1097.900799
1070.867781
899.0479088
688.0256382
423.884354
-6716.208179
-7257.834715
-7270.369252
-6516.695767
-5431.977074
-5166.02961
-5567.901916
-5485.968373
-6517.965821
-5594.005832
-5879.531625
-5714.601572
-6052.728283
1571.955317
1556.801838
1522.725987
1546.089124
1560.847213
1555.345403
-4597.798028
-4405.380515
-4267.152811
-4011.224054
-3764.10878
-4035.450385
-4902.581222
-4492.577916
-4753.17455
-4127.162424
-4402.356774
-4845.085023
1422.386925
1395.663785
1366.429986
1433.2919
1405.222682
1427.048099
1449.189692
1462.870439
1471.010952
1406.87314
1426.895285
1409.270726
1518.31322
1523.621341
1540.693291
1473.351983
1482.416735
1476.109225
-2482.618926
-2618.982107
-2305.205899
-1375.607633
-1387.53939
1292.313313
1225.328641
1372.742976
1380.753057
1402.117443
1348.610087
1329.75715
-1721.9162
805.4675547
972.6954402
933.724822
1061.19767
1028.317377
1040.553837
191.0052274
421.2132727
187.6008901
1048.364359
467.7768198
732.8895544
548.7240182
593.0065502
1182.261938
1117.115666
-7663.922942
-6767.96177
-7300.386895
-3647.622976
-3714.545313
-1970.033215
-2111.767618
-2118.847036
2168.76344
2144.037456
3846.940643
4359.050298
4495.263826
4195.441234
3771.2908
-2711.919081
-2533.372412
-2494.06332
-2533.709898
-2729.296567
-1136.859682
-959.6749745
-978.392402
-961.9667772
-1137.21986
-739.2469738
-913.1237588
-496.4430537
-527.9316881
-690.5064514
-320.0831909
-475.1699979
-396.0903186
-8345.919579
-7249.737755
-6813.707514
-7537.844865
-7348.955014
-6631.398504
-5913.045232
-7129.459511
-6830.058229
-6716.211534
-6357.37438
-6568.27042
-7028.385918
-6878.228255
-5132.777474
-4935.864397
-4735.257479
-4994.095558
-5199.326361
-4724.307644
-4931.973301
-5265.716028
-5154.924361
-5414.538934
-5201.131577
-3228.37374
-3293.224793
-3262.830565
-3181.81889
-3326.208378
-3688.615953
-3579.565902
-3734.613527
-3374.44943
-3528.503402
-3631.751677
-1792.252488
-1773.78156
-1918.75407
1130.250447
1106.560087
1117.423584
1171.132199
1159.456318
1138.159794
2445.935496
2401.637113
2411.784793
2429.568632
2314.895328
2617.474296
2472.633194
2457.829903
2148.654569
2167.735072
2101.495295
2281.064477
2193.090075
2174.596032
2916.143375
2847.979462
2675.507556
3024.731678
2926.300404
-7357.50398
-7271.077397
-6719.728234
-7451.688133
-7586.503952
-7406.397397
-7590.705165
-7597.896641
-7640.717985
-7577.954974
-6652.176678
-7339.534352
-7389.12729
1854.163294
1853.524905
1833.109267
1886.814102
1861.697562
1864.06246
1803.688247
1785.66166
1827.7188
1809.507914
2002.903021
2017.077404
1977.014928
2082.794964
2032.093248
2016.238318
1921.563592
1923.287791
1895.293228
1965.120448
1933.310029
1931.969795
-6081.505057
-5932.401161
-5644.416159
-5996.726293
-6302.055233
-6123.856376
1609.709877
1591.200404
1638.542617
1615.186417
1562.179094
1548.506519
1584.258674
1566.565711
1743.991568
1716.695347
1778.759021
1753.07472
1671.32358
1645.632375
1707.612426
1680.516414
-3993.534027
-4165.758368
-3788.521786
-3943.51941
-4035.198453
-4455.21204
-4653.191393
-4220.030639
-4396.01362
1440.685971
1458.202274
1444.845841
1463.689251
1443.224767
1474.006801
1468.874169
1438.884931
1413.11448
1428.501608
1435.929719
1505.289117
1518.089448
1512.748802
1521.015444
1507.714546
1543.005883
1525.84625
1483.382801
1475.517884
1500.433692
1486.845279
1480.239083
1486.086147
1499.956608
-2731.924203
-2833.684018
-2897.882114
-2720.220028
-2950.783813
-2879.270717
-1146.929397
-1340.397605
-1363.650663
-1147.761706
1286.419514
1233.660811
1362.817311
1375.015171
1367.526859
1335.03222
1354.372049
1360.30029
-1808.838898
1023.500992
1016.062829
979.8932205
646.8292699
562.3035972
1033.305074
301.3073719
448.4739391
350.6558131
1173.257742
-387.9573921
36.43410807
248.887054
-6.648023446
1116.340462
-2723.379039
-2038.188072
-1366.173112
-2302.697082
-2357.711548
-1105.87884
-1182.535376
-1639.309594
-2363.193266
-928.961011
-912.1291757
-747.2744779
-2117.498639
-1593.132083
-1560.093229
1888.232575
3367.940447
4461.737243
-5733.642077
-1989.555561
799.0638698
-1853.798254
-1522.316028
-3624.432181
-6194.065986
-7008.188475
-7225.937119
1684.253752
1662.088718
1620.153153
1721.424539
1676.688237
1700.084465
-1580.285642
-1724.657084
-1729.828463
-2213.436025
-1940.116545
-1888.301616
1187.802711
1167.070325
1179.200453
-7279.297918
-7335.958459
-6635.261183
1606.768426
1568.81481
1584.115127
1610.762212
1614.74551
1637.194726
1644.557109
1669.258659
1661.774052
1224.385317
1213.517045
1194.857008
-1555.592507
-1508.699256
-1498.904488
1219.544603
1227.078712
1220.797781
-1657.312993
-1667.326424
-1567.046246
-1388.310404
-1384.984288
-1531.642403
1072.928093
1201.001128
1207.538598
1213.201227
1095.784983
-8252.814337
-3538.688259
-1985.518922
-2056.511729
-2061.299065
-2302.153545
-2151.985265
-2120.773658
2215.808527
-5036.252569
-4518.419269
-5450.282283
-2448.195827
-2500.489149
-2346.328065
-736.3748991
-750.5225269
-571.0582159
-577.5394295
-679.0090617
-2408.792988
-1920.043434
-4666.476211
-8246.712238
-7801.857381
-7650.489571
-8106.46258
-8111.788983
-3134.035012
-3166.649541
-3116.324354
-3439.906185
-3438.394107
-3411.011675
-2987.384469
-3130.620372
-3204.861384
-3806.334854
-3751.675041
-3805.533998
-1915.821456
-1894.128894
-1926.28276
2542.639439
2616.330379
2323.80157
2331.128217
2339.742242
2302.990513
2095.202773
2109.048864
2090.030188
2268.583973
2236.955693
2227.153884
3102.335307
2914.473562
3004.981548
3223.339381
3236.83176
3383.083084
2679.604243
2747.09035
2754.569697
1839.286352
1837.316741
1837.415469
1888.225011
1880.51269
1882.198749
1803.263062
1798.936444
1833.95929
1827.219364
1978.82978
1982.587793
1970.217333
2072.379819
2055.07709
2049.397778
1901.430166
1902.811448
1895.296749
1959.100287
1949.781885
1947.620558
1589.753473
1608.50256
1603.574229
1561.311858
1565.793204
1583.28927
1713.222777
1739.577361
1726.332792
1732.543334
1722.886602
1793.47955
1784.613374
1654.620952
1713.328689
1703.864667
1670.315063
1678.048582
1704.404068
-4169.927383
-4239.848319
-3860.188411
-3924.538598
-3948.648242
-4306.305456
-4321.61514
-4209.446468
-4346.835514
-4176.578533
1239.767099
1220.326933
1230.799973
1280.750043
1265.748587
1246.806682
1267.360169
1276.876878
1271.784842
1248.002345
1251.336165
1258.769845
-1927.806429
964.0874127
974.9593577
953.4296007
696.7494069
972.3845252
391.2894497
513.4637855
627.6942127
1164.078573
1167.006994
1163.034239
-300.9041649
-143.6786488
-122.9966873
-138.8389216
1143.250603
1149.817697
1158.479946
-42.30216581
-125.3444106
-268.8634444
-2194.375315
-2239.474994
-2343.924362
-2295.785654
-2275.027488
4856.4443
5030.278837
4745.046476
-2410.535593
-2435.722688
-2351.661161
-2545.95265
-2489.858363
-2479.282638
-3142.292364
-2399.474584
-5439.249766
-6591.038494
-6601.490605
-6508.667386
-6554.22843
-7169.491869
-6993.299657
-7033.567047
-6915.071105
-6954.816493
-7125.862081
-5596.495699
-5511.899636
-5569.64422
-5388.262759
-5452.933875
-5537.779026
-7305.890012
-7102.8887
-7087.8227
-7072.224716
-7097.569522
-7307.489859
-5821.759096
-5734.838212
-5788.572184
-5627.154525
-5681.35241
-5770.213762
-6429.193388
-6468.675447
-6317.119376
-6375.402272
1466.12981
1461.465457
1457.766928
1412.051873
1408.582434
1403.032177
1419.92794
1414.796203
1419.219222
-1508.987007
-1563.147836
-1371.428135
-1454.074566
1306.876864
1304.019841
1316.70674
1310.47656
1228.104682
1223.375276
1229.463401
1223.20839
1387.842507
1385.233621
1378.896318
1397.769431
1391.836143
1395.634112
1328.501199
1324.803974
1341.3727
1325.081583
1332.344944
-1727.569194
-1722.025931
-1712.990408
-1567.440344
966.5699221
998.9349498
1099.963955
1054.559948
1048.113669
1034.509386
1062.254519
415.3730105
402.8027133
1073.71585
960.3077424
744.422558
1183.697381
1197.535246
1192.479607
1106.181575
-8113.275676
-8417.527318
-7988.091215
-7582.771022
-7189.034989
-6330.598827
-7980.429199
-7655.291388
-3586.254302
-3735.040197
-2118.08738
-2107.86649
-2114.247038
2190.851957
2115.971132
4468.53522
4280.524214
4190.741817
3699.772976
3558.436511
4042.914855
3854.511592
3991.15208
-2616.973076
-2545.933544
-2671.36175
-976.5235125
-972.2205725
-961.2995725
-1079.147633
-777.054999
-753.615243
-741.7535922
-901.1886565
-840.606691
-840.8554955
-504.4025478
-559.774635
-554.925455
-378.2620026
-385.6397534
-432.0885942
-8010.221723
-7915.494776
-8305.734565
-7478.761992
-7805.839942
-7845.887692
-8135.919719
-8117.001349
-6780.248044
-6663.865157
-6701.383453
-6615.943069
-6630.609851
-6735.918797
-6973.95298
-6827.091415
-6872.223373
-6742.0629
-6783.488359
-6925.206749
-5068.566557
-4993.982861
-5057.384859
-5059.409435
-5132.061885
-4773.921171
-4803.450816
-4772.208529
-4870.1205
-5338.222378
-5378.127683
-5333.699343
-5249.944335
-5319.845465
-5123.053782
-5188.361096
-5272.893575
-3267.331568
-3178.843672
-3171.256738
-3193.012865
-3128.890029
-3186.327503
-3361.068774
-3385.789469
-3320.321751
-3647.981893
-3692.231128
-3716.84925
2492.911071
2361.205599
2156.147959
2130.523593
2116.44518
2199.686014
2208.393831
2181.95884
3018.122533
3116.856511
3125.673117
3419.890869
3289.080248
2834.188586
2826.180255
2919.18252
-7321.434866
-7115.794104
-7133.434924
-7092.198434
-7100.592962
-7292.529708
-7495.69347
-7536.30208
-7620.173782
-7901.406738
-7842.820294
-7936.16645
-7949.419014
-7624.803196
-7651.793648
-7811.074067
-7807.504091
-7590.353277
1854.509812
1847.125427
1846.802971
1873.635244
1872.087596
1863.292971
1811.491716
1807.273802
1820.960588
1815.963826
2008.027972
1995.115706
1991.101984
2032.109337
2038.063332
2022.205406
1922.068467
1911.887127
1910.505695
1940.472755
1941.088719
1931.90578
-6036.30145
-5941.590395
-5987.233468
-5840.03815
-5891.307674
-5982.549999
-6244.471699
-6154.027325
-6239.694742
-6032.136126
-6085.395954
-6178.970778
1604.100062
1605.661547
1610.341903
1592.648844
1599.792307
1597.919983
1629.8602
1628.26355
1638.832184
1614.333397
1619.693621
1621.666145
1557.959705
1559.882393
1563.264256
1551.284692
1555.970676
1553.458556
1577.676234
1577.655496
1584.889461
1566.763075
1571.490478
1571.677424
1752.171919
1742.38835
1734.935255
1738.889649
1748.245441
1720.028685
1729.440546
1725.81947
1773.018346
1762.020731
1676.187112
1667.748993
1662.316813
1664.948816
1673.747775
1646.430722
1649.470748
1652.432396
1698.565951
1701.428706
1710.696684
1683.116898
1692.24882
1689.546976
1694.624149
1685.474803
-4081.648162
-4117.323502
-4015.884314
-3983.181033
-4010.849614
-4512.389991
-4543.508195
-4494.063016
-4691.825899
-4608.137379
-4577.155524
-4267.19943
-4300.099753
-4270.127106
-4440.769607
-4387.68655
-4331.534745
1445.940244
1442.635723
1437.448043
1453.311841
1448.097587
1452.126302
1455.969719
1448.647922
1472.739916
1471.207346
1436.025761
1426.799092
1421.855384
1422.279607
1421.500329
1432.413429
1427.999066
1432.610249
1508.728496
1513.025119
1523.765126
1511.192228
1537.159483
1539.239084
1545.505951
1528.285529
1533.575783
1531.465457
1480.183653
1477.525373
1494.484751
1490.373012
-2839.468083
-2823.241946
-2887.233967
-2714.670642
-2765.47773
-2799.995218
-3019.933487
-3065.491836
-2933.724291
-2938.934445
-2950.537285
-1298.691195
-1304.935215
-1359.670797
-1165.139525
-1229.626766
-1236.274831
1281.783518
1270.368378
1300.108759
1292.761104
1238.133237
1244.041494
1240.521969
1246.660572
1241.058877
1261.029885
1253.612483
1366.235751
1364.27267
1360.427317
1373.370302
1368.563605
1370.28659
1357.1643
1350.955098
1346.626715
1357.063542
1354.062365
1358.69664
-1869.55792
1018.502595
1000.782493
1004.286648
608.0766143
620.2920979
674.7281108
565.7379281
571.6687182
556.9943521
1016.708824
394.6560855
345.4853316
280.6811679
1167.347681
1168.919406
1173.220686
-367.1339357
124.4004578
68.06056162
232.8366642
223.1501185
234.1193543
51.18411397
-80.54319293
-61.16064165
39.54786855
1128.319665
1141.975384
1134.992226
833.7981166
797.9025725
774.5367022
782.555458
725.8828581
696.560177
702.2961971
616.9966425
585.088827
582.0541421
460.3456161
436.0091177
413.5620708
260.9966826
252.1786627
207.1314561
44.80071068
51.14784714
-9.896444702
-165.6027354
-146.4463162
-215.0502377
-349.8128998
-322.7297796
-390.6216395
-495.7221084
-466.0558949
-526.0528576
-602.1012578
-575.8115325
874.758112
850.2034278
808.8916915
839.0582038
791.9769218
739.8958147
770.376035
684.2058437
631.0807238
647.4433921
511.207796
470.53525
457.3002308
273.2138332
263.7642195
206.3717029
4.679757909
37.8585614
-60.33977175
-238.5596052
-178.3016182
-291.2423509
-427.9846572
-363.8861577
-467.0444966
-567.4744296
-510.2624198
-595.7743861
-665.0257696
-614.9292752
930.5259248
922.8558027
866.7143285
917.3691867
887.2126014
812.6515629
871.1227966
796.977386
707.0231133
761.3216213
611.2137619
529.7594112
544.9429219
300.1649191
277.5722466
206.3393743
-77.28189173
-11.17335309
-164.8006936
-385.407758
-267.1164717
-443.7282035
-578.5445921
-458.0413614
-613.137905
-692.7662882
-592.6039771
-712.6336033
-758.8745437
-685.8080142
993.7858731
1010.445352
943.7701543
1014.779674
1020.33389
916.6600781
1017.657987
987.1070088
835.9038737
964.9732339
830.9394393
650.8931769
753.3417392
389.9687848
312.7910036
232.0442955
-244.1209192
-107.5472991
-377.807867
-660.4653831
-438.5187587
-720.9179386
-830.6743004
-631.1390999
-848.8369417
-876.3165193
-733.4588953
-879.9747756
-884.2494029
-787.2825344
1053.984716
1099.906456
1033.256172
1117.195995
1176.094034
1058.417119
1198.315631
1269.746253
1050.461196
1291.904839
1311.17417
919.6423561
1274.479818
648.0797436
435.9481772
447.0637096
-721.943558
-316.2944683
-923.7359004
-1183.64436
-761.4344513
-1203.263463
-1187.756294
-909.536451
-1170.438354
-1108.868213
-930.8711274
-1088.24435
-1032.269877
-919.9245788
1098.730258
1170.203602
1120.167877
1199.11691
1307.709452
1213.857375
1353.653122
1537.938286
1345.767313
1622.071626
2089.707965
1486.98808
1798.608714
1853.515055
1327.138504
561.057347
-863.4198794
-299.3592193
-1644.689444
-1594.987235
-1297.432466
-1915.413606
-1620.47611
-1292.84271
-1542.009096
-1351.155474
-1171.320984
-1299.891787
-1175.17778
-1069.706305
1116.139607
1200.302786
1181.905941
1234.193243
1360.118766
1329.413193
1412.0475
1605.36317