/*--------------------------------*- C++ -*----------------------------------*\
| =========                 |                                                 |
| \\      /  F ield         | OpenFOAM: The Open Source CFD Toolbox           |
|  \\    /   O peration     | Version:  v1912                                 |
|   \\  /    A nd           | Website:  www.openfoam.com                      |
|    \\/     M anipulation  |                                                 |
\*---------------------------------------------------------------------------*/
FoamFile
{
    version     2.0;
    format      ascii;
    class       surfaceVectorField;
    location    "2.01";
    object      Uf;
}
// * * * * * * * * * * * * * * * * * * * * * * * * * * * * * * * * * * * * * //

dimensions      [0 1 -1 0 0 0 0];


internalField   nonuniform List<vector> 
25162
(
(99.99880186 0.004893570442 -2.165180827e-21)
(99.99541712 0.004305861899 6.41229062e-21)
(99.99801581 0.01242947429 -2.13836807e-21)
(99.99294594 0.01526687113 2.1634316e-21)
(99.99644505 0.02568302775 -4.266048351e-21)
(99.98759654 0.03409963885 1.287487192e-20)
(99.99826955 0.03062310237 1.326404814e-21)
(99.97765995 0.06700540238 -8.485660297e-21)
(99.9902791 0.0684983723 -1.418489878e-21)
(99.99705233 0.05624018339 2.058825419e-21)
(99.99906149 0.0337697662 1.020273816e-21)
(99.98847293 0.09634312859 2.047240088e-21)
(99.99736178 0.0549199916 1.002031456e-21)
(99.99804831 0.04259178761 -1.032241221e-21)
(99.99671772 0.07042481019 1.00199053e-21)
(99.98202021 0.1594192626 1.994732926e-21)
(99.99638914 0.08965222585 0)
(99.99617105 0.1109021934 -3.667862317e-21)
(99.97638822 0.2462276317 -3.667843228e-21)
(99.99563048 0.1361584487 -9.525364672e-22)
(99.9950192 0.1652941318 3.196886682e-21)
(99.9692477 0.362866109 3.489430342e-21)
(99.99445135 0.1982180423 4.306805042e-22)
(99.99399597 0.2344266378 -2.867126935e-21)
(99.9639033 0.5075210488 4.078346007e-22)
(99.99371708 0.2730535098 -2.930647955e-21)
(99.99370754 0.3127461116 2.98769913e-22)
(99.96381295 0.6653503893 -1.965269864e-21)
(99.99406669 0.3514647331 2.621847753e-21)
(99.99481642 0.3868628072 2.240962511e-21)
(99.97237301 0.8056530328 -9.948011918e-22)
(99.99582209 0.4164885207 0)
(99.99710941 0.4376178138 0)
(99.98984843 0.8880141732 2.283591652e-22)
(99.99900096 0.4485027514 0)
(100.0013529 0.448855558 3.126464244e-22)
(100.0098643 0.8889798354 -8.028713904e-24)
(100.0032515 0.4383285578 8.801496913e-22)
(100.0043477 0.4182566113 -9.110744955e-23)
(100.0257594 0.810885846 -5.640180649e-22)
(100.0050886 0.3906908752 -9.630673116e-22)
(100.0056485 0.3582489583 9.010296306e-23)
(100.03315 0.6818127501 1.667641495e-21)
(100.0059348 0.3228079719 4.293448573e-22)
(100.0059114 0.286386921 0)
(100.0333343 0.5367873205 0)
(100.0056637 0.2507441796 0)
(100.0054134 0.2169732721 7.408850393e-22)
(100.0287651 0.4027135929 1.545153321e-21)
(100.0055054 0.186222425 -3.756607318e-21)
(100.005336 0.1565905344 -1.390011406e-21)
(100.0240636 0.2859984357 3.050036118e-21)
(100.0045928 0.1308722203 3.049808521e-21)
(100.0034328 0.1092279413 -8.63546174e-22)
(100.014486 0.1974470808 -5.344533809e-23)
(100.0009055 0.09375305584 1.679028328e-21)
(100.0091768 0.09161797129 -7.523320757e-21)
(100.0520546 0.2239458457 5.065861707e-22)
(100.0184723 0.2008845808 -2.683049736e-21)
(100.0030364 0.09346602484 -1.567461418e-21)
(100.0065333 0.05345227797 -9.478177994e-22)
(100.0356928 0.1381672584 1.501996697e-20)
(100.0054725 0.02516559491 -7.617030999e-21)
(100.0265773 0.0741515648 -1.601563546e-20)
(100.0237158 0.02345931455 1.430965569e-21)
(99.98871763 0.01350965748 1.070825946e-20)
(99.9827212 0.006629883786 2.808819692e-22)
(99.98099117 0.03466664387 1.711383319e-20)
(99.97311815 0.02443206016 -1.496949361e-20)
(99.96661897 0.07195109727 8.958839739e-21)
(99.9527072 0.05685727981 -2.323410098e-20)
(99.95879746 0.1210204515 -1.507333614e-21)
(99.91872532 0.1144085905 4.472651473e-20)
(99.92902452 0.148954914 -9.860587914e-21)
(99.93828694 0.1564692024 -2.115410078e-21)
(99.95245369 0.1562410053 4.173900676e-21)
(99.97124552 0.1101888512 2.072944974e-21)
(99.95329528 0.1887154476 2.026533382e-21)
(99.93814079 0.2052956425 2.061913921e-21)
(99.89565216 0.2728734963 -4.163582594e-21)
(99.92230247 0.2669178049 -1.964403548e-23)
(99.92741586 0.3113113342 1.995045975e-21)
(99.90364215 0.3431595361 -1.803327862e-23)
(99.84155894 0.4508367123 0)
(99.89404886 0.4053405936 0)
(99.86509128 0.4645808795 -2.491500374e-21)
(99.90006382 0.4709933741 -4.901127812e-21)
(99.88740667 0.4958043696 -6.192746379e-23)
(99.85507085 0.5742846862 -1.102532491e-20)
(99.87819068 0.5438464076 -3.78967656e-21)
(99.8481673 0.7406022043 3.152061557e-23)
(99.86843331 0.6993397131 -2.500005247e-21)
(99.80683398 0.8577547674 -1.366412496e-20)
(99.84030599 0.8063846476 -3.328630839e-21)
(99.8159888 1.055143015 -6.253396233e-21)
(99.8442401 0.9872319844 -5.889126523e-21)
(99.76882144 1.218034368 5.972221593e-22)
(99.81213793 1.135669677 -7.504114224e-21)
(99.80653838 1.413615321 -5.712614798e-23)
(99.84269996 1.308202662 -4.92895616e-21)
(99.76137019 1.624305012 -1.299760339e-22)
(99.81159754 1.500432201 -3.706829818e-21)
(99.84074273 1.751884045 -5.251449069e-21)
(99.87940832 1.599936445 -7.412980085e-21)
(99.80962818 1.998081815 -8.836933259e-20)
(99.8590947 1.826275667 -4.134677055e-21)
(99.92388756 1.977964725 -8.755465342e-22)
(99.95745069 1.781008427 -1.744850898e-21)
(99.91580519 2.236462043 -2.5829859e-20)
(99.94972228 2.022349553 -8.753302107e-22)
(100.0252051 2.024950103 6.192127293e-22)
(100.0404357 1.795743296 -3.751653017e-22)
(100.0397129 2.261675166 -1.971411743e-21)
(100.0494669 2.025452592 -5.747374617e-22)
(100.1158472 1.88990536 -2.190563965e-22)
(100.0959364 1.646850059 -2.235369634e-22)
(100.143413 2.076823316 -9.362975222e-23)
(100.1316339 1.838869677 1.825549832e-21)
(100.1680228 1.619292598 2.214126969e-21)
(100.1236283 1.390455935 3.853461306e-21)
(100.1993149 1.753998384 3.857791867e-21)
(100.1729491 1.538156238 5.012101177e-22)
(100.1779265 1.289614227 -6.333872705e-21)
(100.1242917 1.095319802 -5.927101168e-21)
(100.2054477 1.379883178 -2.134107926e-21)
(100.1738643 1.202679548 -2.100277994e-21)
(100.1574002 0.9762435083 -5.088637801e-21)
(100.103699 0.8230479484 4.668347296e-22)
(100.1749939 1.032042585 -1.369716239e-21)
(100.1487106 0.8999172216 5.582907353e-21)
(100.0969621 0.5656862677 -1.29924943e-20)
(100.1548559 0.770487661 -1.29914848e-20)
(100.2171457 0.8326233659 1.316303174e-20)
(100.1338065 0.6418625118 -2.662241572e-20)
(100.1132512 0.5312106666 1.156249342e-20)
(100.1569968 0.5665454307 -1.640469691e-20)
(100.0924111 0.4377218979 2.334852094e-20)
(100.0695414 0.3871612202 2.594987851e-20)
(100.0866527 0.2656755168 2.231369949e-20)
(100.1964027 0.4169787308 -2.066390892e-22)
(100.1500021 0.4678008759 4.673456381e-20)
(100.0884075 0.370875738 2.541439848e-21)
(100.0627462 0.1555320863 -6.981517649e-22)
(100.1390431 0.2558067086 3.204917255e-20)
(100.0506906 0.07159523912 -7.452949786e-21)
(100.1057105 0.1374329662 -1.699285106e-20)
(100.0912477 0.04332572674 7.614460942e-21)
(99.96997854 0.016241105 -2.569872441e-20)
(99.96739374 0.005030824633 -1.284380103e-20)
(99.94849181 0.04408629401 -5.567837202e-20)
(99.94691235 0.02131059719 1.197266546e-20)
(99.90962929 0.09647752867 1.197626011e-20)
(99.90355848 0.05769969528 -4.713860167e-20)
(99.86643731 0.179119002 2.846730637e-20)
(99.83320063 0.1254530193 5.127573321e-20)
(99.82112018 0.1968696672 -4.688233992e-20)
(99.88445608 0.1940876277 -8.498963898e-21)
(99.82235612 0.2184054626 -6.279445329e-20)
(99.83784034 0.2455591954 -4.241006091e-21)
(99.81726862 0.3443225296 -8.309236956e-21)
(99.79601933 0.3293161238 -4.141900971e-21)
(99.72018402 0.3987888286 2.904487976e-20)
(99.74663086 0.4332992682 8.175127717e-21)
(99.72426479 0.5754242904 -7.198439359e-21)
(99.68906397 0.56146057 5.304525865e-21)
(99.57735179 0.6785912115 -4.095828938e-20)
(99.65425244 0.6932972272 2.901967125e-21)
(99.59781816 0.7438569015 -1.786801634e-20)
(99.63599198 0.8718574769 -7.409791547e-21)
(99.60777827 0.8685655045 0)
(99.54041407 0.9597370114 7.655093022e-21)
(99.5748665 0.9707262142 -7.387978666e-21)
(99.51351664 1.326664176 3.618627954e-21)
(99.47103083 1.333763755 1.419566792e-20)
(99.38383909 1.471036073 7.037802616e-21)
(99.43724065 1.472398513 1.764243384e-20)
(99.40988541 1.918154966 -1.53877546e-21)
(99.34859628 1.947085217 0)
(99.24937217 2.143395586 0)
(99.32751985 2.119837396 -1.212904289e-20)
(99.39034318 2.600276984 -1.704219284e-19)
(99.31039759 2.671013567 0)
(99.22356528 2.931625231 -3.566344399e-19)
(99.32313281 2.857566542 -3.048574018e-19)
(99.51106007 3.264344344 2.001098909e-19)
(99.42322801 3.402280463 2.277004392e-19)
(99.37470086 3.716487491 -6.596332108e-20)
(99.48104952 3.561972842 2.644715971e-21)
(99.81064294 3.690767723 -2.601423121e-20)
(99.71712008 3.908440696 1.216036792e-19)
(99.76101226 4.220572246 1.118693534e-19)
(99.81137901 3.977096071 -1.250907514e-20)
(100.1331149 3.74032952 4.226906003e-20)
(100.1127697 4.01726536 2.332889607e-20)
(100.1896604 4.271454093 2.114414866e-20)
(100.2070839 3.969819991 4.984293072e-20)
(100.4083216 3.398868438 4.52573321e-20)
(100.4399316 3.690210712 1.028309446e-19)
(100.5400581 3.859942173 -1.497590846e-19)
(100.4971216 3.555749012 1.187254614e-20)
(100.5434191 2.827543008 2.716002032e-21)
(100.6086666 3.091079167 1.524148871e-20)
(100.7022363 3.187362495 1.787464343e-21)
(100.6271546 2.921363222 5.820945323e-21)
(100.5559385 2.198481053 -5.931046352e-21)
(100.635647 2.416228843 -1.377827284e-20)
(100.7122445 2.462829874 -4.812320506e-21)
(100.6236527 2.249103615 5.393041589e-21)
(100.5603457 1.782052557 -1.704757233e-20)
(100.4833052 1.614588407 -1.150106746e-20)
(100.6173977 1.797783487 -1.151657712e-20)
(100.5368092 1.63848742 6.186205374e-21)
(100.3831496 1.080934542 -5.139428131e-20)
(100.5118147 1.319497887 -2.686811649e-20)
(100.596229 1.305135498 -7.792512862e-20)
(100.4448519 1.092638371 -3.656718018e-20)
(100.281142 0.730679395 -5.919117053e-20)
(100.381249 0.8978187809 2.342337307e-20)
(100.436639 0.8734665625 -2.809318625e-20)
(100.3217659 0.7322535857 -2.457198167e-20)
(100.2408584 0.4032657544 1.005006899e-20)
(100.4132017 0.5515631747 -2.538307559e-20)
(100.3873476 0.666427215 -1.628741602e-22)
(100.2890506 0.6021841977 -1.45539575e-20)
(100.1763626 0.2346865047 1.50129211e-20)
(100.2976434 0.3352367403 2.673387952e-20)
(100.1415455 0.1076108752 -1.913310497e-21)
(100.2255989 0.179060709 -3.866020131e-21)
(100.1927339 0.05605605177 0)
(99.94950279 0.009144589447 2.579855904e-20)
(99.95878754 -0.002055804473 -4.302229522e-21)
(99.90858577 0.0327384142 2.170130821e-20)
(99.9247114 0.0008298534457 3.012718722e-20)
(99.83515758 0.08639744886 -8.62605573e-21)
(99.8530625 0.02746987108 -4.277494921e-21)
(99.74032909 0.1959144866 0)
(99.73475241 0.08906047893 6.573932535e-21)
(99.68854892 0.1866021754 2.004276517e-20)
(99.75219088 0.2289362606 -5.863290833e-20)
(99.67541928 0.2228807975 1.506894105e-20)
(99.67776079 0.2776567182 0)
(99.60756412 0.4320951377 3.284727605e-22)
(99.59421912 0.3831639234 -3.335015028e-20)
(99.48257537 0.440871462 -3.332771471e-20)
(99.49481545 0.5168922861 6.766243604e-20)
(99.40616865 0.7528322864 -1.006022093e-19)
(99.37845793 0.6841770243 3.617710805e-20)
(99.21427256 0.7889814911 -6.725342578e-20)
(99.28205742 0.8828826383 -3.344679067e-20)
(99.20421631 0.9003258438 -5.501755669e-20)
(99.19021834 1.172506351 7.969964124e-21)
(99.16066866 1.131234476 1.584532858e-20)
(99.05418283 1.223036228 4.003334858e-20)
(99.08645825 1.276676399 7.90421345e-21)
(98.89835014 1.847251031 -1.853660243e-19)
(98.84708716 1.801105088 -1.142540063e-19)
(98.70693447 1.948581893 -2.791545325e-19)
(98.76726143 2.008559409 -1.546362264e-19)
(98.64784943 2.774442853 -9.396505375e-20)
(98.56062224 2.737296781 -2.272431303e-19)
(98.40194713 2.969552099 -2.246053314e-19)
(98.5063931 3.019139426 1.123267231e-19)
(98.5615366 3.961049537 4.000967317e-19)
(98.42677493 3.968618389 -3.702420978e-20)
(98.27752176 4.315586561 3.815598459e-19)
(98.44162349 4.307606807 3.880949497e-19)
(98.83266608 5.197577121 5.090298942e-19)
(98.66285255 5.307573291 2.574774846e-19)
(98.59890022 5.74545874 8.054448136e-19)
(98.8017353 5.604850651 5.709111421e-19)
(99.60392567 6.02041592 -2.293821e-19)
(99.41168755 6.278888731 -2.933266792e-19)
(99.54868326 6.71027653 -5.11280915e-19)
(99.66691727 6.393634369 -4.835029826e-19)
(100.4805998 6.033474828 0)
(100.4312553 6.395416212 -3.03011995e-21)
(100.6351556 6.69248456 -1.766401217e-20)
(100.6595635 6.282447645 1.009432866e-20)
(101.121399 5.318671429 5.501111357e-19)
(101.1832144 5.693570922 1.96890666e-19)
(101.3963141 5.831821613 6.006247223e-19)
(101.2976043 5.438650837 1.618806275e-19)
(101.3536381 4.271505831 5.018974829e-19)
(101.4766565 4.596249057 -1.164631986e-19)
(101.6423063 4.628152801 5.072656622e-19)
(101.4909747 4.306638112 2.006179821e-19)
(101.3061449 3.206856601 4.369422416e-20)
(101.4416289 3.461131354 0)
(101.5549047 3.433258487 1.151247842e-20)
(101.4024773 3.193903435 2.057874374e-19)
(101.2489475 2.480401022 0)
(101.1231448 2.297086106 4.592695816e-20)
(101.3231432 2.439950594 0)
(101.1875406 2.26770881 0)
(100.8538495 1.496683249 2.85850806e-20)
(101.0685266 1.753060126 1.843916294e-20)
(101.1522979 1.646479642 -1.65263429e-20)
(100.9219425 1.434804251 3.585366445e-20)
(100.6239635 0.9898895439 -3.281832428e-20)
(100.7875486 1.165068995 -1.46518064e-20)
(100.8374911 1.075942986 -1.481059063e-20)
(100.667311 0.9374705218 -7.135576575e-21)
(100.4563975 0.4802847201 -9.072690429e-21)
(100.6841871 0.6018447946 -1.917406812e-20)
(100.7116364 0.784417842 -2.522389097e-21)
(100.5843972 0.7524165162 5.073147504e-21)
(100.3346741 0.2768542174 7.701775e-21)
(100.4894368 0.3611064721 1.171795142e-20)
(100.2666765 0.1258487025 -1.952364171e-21)
(100.3680154 0.18959709 -3.450725052e-21)
(100.3114191 0.05871303596 -4.969931625e-22)
(99.93968794 -0.0106896069 0)
(99.96888991 -0.01548113662 0)
(99.87636706 -0.005646801708 4.336519079e-21)
(99.92002857 -0.03959730346 0)
(99.76232881 0.03119342943 1.094378787e-20)
(99.8184446 -0.03918176934 -3.669222131e-21)
(99.60304916 0.139319547 1.91683208e-20)
(99.64865628 -0.002577505978 2.424697483e-20)
(99.55126626 0.1063543315 -7.318102331e-21)
(99.60012 0.1985675359 2.595987378e-20)
(99.51556619 0.1549764173 2.107241613e-21)
(99.49630718 0.2295636126 -1.034419314e-20)
(99.35031392 0.4219553844 0)
(99.35886324 0.3419573225 -2.173123271e-20)
(99.21573796 0.3729099802 -1.783889291e-20)
(99.19519631 0.4857228959 4.436086763e-21)
(99.00491042 0.7826075409 0)
(99.00257608 0.670001618 4.435611821e-21)
(98.78720313 0.7325476009 -4.573596751e-21)
(98.81590298 0.9107032396 2.225936683e-20)
(98.72825248 0.8938367865 5.737767376e-21)
(98.60155135 1.289098138 3.553440481e-19)
(98.58685901 1.205759735 9.86095829e-20)
(98.43819609 1.281026942 2.014726255e-19)
(98.45311869 1.379490012 -2.816373764e-20)
(98.06369894 2.150531842 3.919565293e-19)
(98.02224415 2.039040409 9.775052476e-19)
(97.8278686 2.174690488 -1.075785228e-20)
(97.87131302 2.313644029 5.294503622e-19)
(97.50655826 3.479379495 2.37302159e-19)
(97.41063853 3.349254601 2.456485184e-19)
(97.15257843 3.609972732 5.060216971e-19)
(97.26833059 3.771369966 3.662597582e-19)
(97.17212238 5.381837593 3.765337228e-19)
(96.97248675 5.275667075 -1.38040534e-19)
(96.69852748 5.720023008 5.181472279e-19)
(96.95151006 5.846856329 2.41693982e-19)
(97.62446133 7.602346487 1.713490374e-19)
(97.29454536 7.646398193 -1.830878268e-19)
(97.1636018 8.295534559 -1.684680424e-19)
(97.58017449 8.217386639 1.172574012e-20)
(99.35558165 9.169386669 0)
(98.9558252 9.499359556 8.980643949e-20)
(99.22747484 10.16689894 -4.03287917e-20)
(99.53530562 9.723192769 2.893160321e-20)
(101.3618095 8.97335374 7.304110203e-20)
(101.271157 9.523461098 0)
(101.7229744 9.863915195 8.959860741e-20)
(101.7485653 9.229495578 -2.980788092e-19)
(102.5608234 7.446877256 -1.120647317e-20)
(102.7079484 7.961062715 -1.566197495e-20)
(103.0914486 7.996975649 -2.879753866e-19)
(102.8735079 7.476997298 -2.572267118e-19)
(102.781723 5.617002266 9.307284908e-19)
(103.0204468 6.007193649 -5.390630977e-20)
(103.2730459 5.910547025 3.887647572e-19)
(102.9844369 5.543001917 -1.168832608e-19)
(102.4781886 4.026537975 1.017887762e-19)
(102.7133845 4.300119882 2.136038409e-19)
(102.8448541 4.178809701 2.425524035e-19)
(102.5912919 3.930364404 2.281488604e-19)
(102.2045412 2.953710603 1.358055913e-20)
(102.0131041 2.765220222 -3.78400306e-21)
(102.2756306 2.838068987 3.455284674e-21)
(102.0761104 2.673733134 2.227987024e-20)
(101.4851841 1.745728574 -9.285137414e-20)
(101.7920302 1.990909856 -5.885058136e-20)
(101.8459132 1.784691446 -3.303090045e-20)
(101.5358467 1.606601738 -1.697528635e-20)
(101.0716296 1.125268749 1.142152695e-20)
(101.3026322 1.284926316 3.443626959e-20)
(101.3218998 1.133386192 -3.863982974e-21)
(101.0983664 1.018302774 -3.771815254e-21)
(100.7034264 0.4829828539 1.995264644e-21)
(100.9764712 0.5473775314 0)
(101.0833707 0.7886349633 -1.061387401e-22)
(100.9432973 0.7978797666 -1.029644033e-20)
(100.510874 0.2713562497 4.409433296e-22)
(100.6890007 0.3212460588 1.995084763e-21)
(100.4024549 0.1211960898 -2.000993613e-21)
(100.5096471 0.162594735 -2.003149607e-21)
(100.4257296 0.04941614333 -2.014281196e-21)
(99.95464081 -0.0441764583 0)
(100.0105854 -0.03527895758 2.120646075e-21)
(99.86879158 -0.0731651342 -8.696877084e-21)
(99.94746688 -0.09991990024 -2.136607633e-21)
(99.71347871 -0.07222016966 8.9841428e-21)
(99.81773886 -0.1426887051 -4.335279505e-21)
(99.47975597 0.01247026229 1.178874267e-20)
(99.59823447 -0.1520988548 3.404227309e-21)
(99.44061453 -0.04899649591 -1.589481675e-23)
(99.45034139 0.08978690892 -8.777063961e-21)
(99.37581413 0.004940392559 -8.842155178e-21)
(99.32345012 0.09172809423 0)
(99.08538645 0.2919286446 -1.783845253e-20)
(99.12917018 0.1886176082 0)
(98.96519573 0.1787553185 -1.055789159e-22)
(98.89489815 0.3170762237 -7.011806159e-23)
(98.56713735 0.6369843508 9.181029262e-21)
(98.61401955 0.4862295074 1.380821226e-20)
(98.35946038 0.4944987612 1.858799187e-20)
(98.32273529 0.7352168735 -1.45374596e-20)
(98.23814613 0.6808111581 -1.508439904e-20)
(97.94576198 1.155661454 -7.909368498e-20)
(97.96514798 1.037403966 0)
(97.78691344 1.07658053 -4.440278343e-21)
(97.76290283 1.214682139 2.793522532e-19)
(97.05980532 2.105855991 3.212519714e-21)
(97.06117647 1.927880407 -4.212855327e-19)
(96.79622974 2.029884521 3.179472295e-19)
(96.78809397 2.24367131 -5.674035753e-19)
(95.93118655 3.763896744 3.145232845e-20)
(95.86982228 3.499712146 3.036729221e-19)
(95.47204906 3.72197985 -6.844756899e-21)
(95.5451654 4.04716292 5.699678087e-19)
(94.8687724 6.514596428 3.36122991e-20)
(94.6334504 6.177067707 0)
(94.10633603 6.64109846 3.044253427e-19)
(94.40928608 7.070424681 -5.765834395e-19)
(95.04420229 10.56419191 -8.338122601e-21)
(94.41829967 10.34122314 3.489113469e-20)
(93.95808839 11.32859615 -2.348456688e-19)
(94.81820691 11.56460746 -1.331063882e-18)
(98.59697612 14.08603872 4.588922834e-20)
(97.75390748 14.60104766 2.752042638e-19)
(98.2296438 15.86336473 0)
(99.19555437 15.04393715 1.134754621e-20)
(103.425769 13.07815702 -5.781984364e-20)
(103.2917715 14.08214321 2.571324537e-21)
(104.3025702 14.37987742 -2.019244736e-19)
(104.2335362 13.23668543 -5.592001268e-20)
(105.2970695 9.597109514 -1.816855424e-19)
(105.6608976 10.32535342 4.939149609e-20)
(106.288434 10.08212803 -1.863407736e-19)
(105.7850727 9.394564149 -6.832343111e-19)
(105.0617508 6.587414076 -3.98204632e-19)
(105.5016812 7.009147003 4.17279781e-19)
(105.7686489 6.713360819 -1.910361835e-19)
(105.2825618 6.346696606 4.086015477e-19)
(104.1175774 4.437905348 1.491150764e-19)
(104.4891322 4.689273237 1.455102533e-19)
(104.5909451 4.440705136 -2.90065245e-19)
(104.2106468 4.233369669 6.572185359e-21)
(103.4175669 3.078703421 2.085121243e-19)
(103.1382512 2.916625364 -1.066800604e-21)
(103.4507829 2.885800673 2.749552298e-19)
(103.1760445 2.752025685 -3.364640595e-20)
(102.2222429 1.753905567 2.694581636e-20)
(102.6163465 1.941527901 -2.55208377e-22)
(102.5998785 1.64580343 1.645919351e-20)
(102.2228153 1.539004485 1.225835833e-20)
(101.5749757 1.09439009 -1.61136553e-20)
(101.8691728 1.208674286 -8.225852314e-21)
(101.828896 1.003914146 -8.227445957e-21)
(101.5600978 0.9386690995 1.257155944e-20)
(100.9469697 0.3918268961 0)
(101.2512335 0.3806155601 1.331970112e-21)
(101.4468991 0.6442252314 -1.108376752e-20)
(101.317121 0.722149993 2.746115728e-20)
(100.6749453 0.2105338277 -5.050982761e-22)
(100.8599281 0.207924174 -1.574313023e-21)
(100.5227561 0.09065434044 -2.026140666e-21)
(100.6226866 0.09528357518 -2.296671851e-21)
(100.511226 0.02751193835 2.578703989e-21)
(100.0080969 -0.09036766223 -1.528594189e-23)
(100.0958445 -0.06066221684 7.223734883e-23)
(99.90220548 -0.1680134811 2.221710826e-21)
(100.0207771 -0.177536802 -8.802637694e-23)
(99.71022781 -0.221143877 -1.165391163e-20)
(99.86801853 -0.2782083357 1.758009977e-21)
(99.40397238 -0.1876079261 -1.052715745e-20)
(99.60826011 -0.352695713 -1.769812371e-20)
(99.38880729 -0.2752141692 -1.506046239e-20)
(99.33810327 -0.1019220633 -8.263352865e-21)
(99.29189584 -0.2258383684 -3.281127128e-21)
(99.19894672 -0.1384373745 4.248622364e-23)
(98.86192782 0.03441967597 1.341675569e-20)
(98.95137477 -0.07967478503 1.36424137e-20)
(98.78144535 -0.1389925711 6.743350636e-21)
(98.65220559 0.005768547328 2.321066227e-20)
(98.17529915 0.3037308485 1.964155902e-20)
(98.28971832 0.1259358526 2.438626372e-20)
(98.02391503 0.06605649589 -2.308152834e-20)
(97.88907563 0.3335322978 -8.036185548e-21)
(97.82754222 0.2436368922 9.94157396e-21)
(97.35135618 0.7263566346 0)
(97.41678154 0.586058144 -4.621518871e-21)
(97.22535867 0.5746311036 -4.683569834e-21)
(97.14176206 0.7356889094 0)
(96.03171481 1.604016262 -5.927437405e-19)
(96.1135723 1.373059079 -6.459626863e-19)
(95.80164602 1.39579815 0)
(95.69256049 1.664586078 8.016187289e-20)
(94.08777026 3.232072652 0)
(94.15675014 2.852997904 3.263769083e-19)
(93.65323268 2.927214934 3.593069985e-19)
(93.54372706 3.381929359 5.495460336e-21)
(91.41909329 6.241525302 7.241105958e-19)
(91.36238505 5.584942678 0)
(90.48989287 5.770030555 -4.20617669e-19)
(90.52347612 6.626496908 -8.332072318e-19)
(88.69480249 12.84360796 7.619979713e-19)
(87.93200026 11.64861954 8.851148632e-19)
(86.05491212 13.07728876 1.978874435e-18)
(86.30075807 12.23322317 7.964777692e-19)
(87.81194064 14.38816831 -7.586798036e-19)
(86.79913471 14.47117529 7.400575601e-19)
(93.64826109 24.43046736 -3.216538463e-19)
(95.03378149 24.00918186 -1.381479817e-20)
(94.17512831 26.25173114 -5.127730906e-19)
(95.85968616 25.38969275 -4.437561501e-19)
(108.8931823 20.73943731 8.946556915e-19)
(108.9772015 18.94640739 3.939473356e-19)
(110.6186907 18.40765123 -2.288391325e-19)
(109.8108365 21.47108728 -7.951017301e-19)
(111.8285473 20.10394114 -5.811540772e-19)
(111.4721835 20.94355222 4.747817035e-19)
(110.9817652 11.92686902 0)
(110.0760601 11.03997891 0)
(111.6270447 11.0535225 4.48513654e-19)
(110.5774514 10.37363496 0)
(108.1960143 6.622810225 4.540318342e-19)
(108.9252598 6.975479858 -4.652793109e-20)
(109.0793757 6.387168999 2.599043957e-19)
(108.3329747 6.151890111 4.632689652e-19)
(106.1155929 4.1276169 -7.28033258e-19)
(106.6380706 4.284018964 3.883300355e-22)
(106.6295877 3.901048079 6.412298172e-19)
(106.121552 3.80809808 6.017953638e-19)
(104.7530756 2.665768994 1.47805617e-21)
(104.3889706 2.58502588 -1.534302523e-19)
(104.700664 2.41039447 -1.18610575e-19)
(104.3553864 2.352693162 2.200610512e-19)
(102.9651315 1.454352995 4.342599524e-21)
(103.4433959 1.532711877 -9.723796583e-21)
(103.3003248 1.177257088 -2.533041272e-21)
(102.8814563 1.176644863 -4.543820519e-21)
(102.0661383 0.8571213452 4.519583921e-21)
(102.4026471 0.8956349587 -2.086984936e-23)
(102.2845122 0.6582676138 -7.324007265e-21)
(101.9879987 0.6639351545 9.15773193e-21)
(101.1436149 0.2031984739 -1.815876472e-22)
(101.4405487 0.1050081108 -2.959757154e-22)
(101.7564998 0.3478450259 8.277680157e-22)
(101.6503572 0.4603086511 6.667051505e-21)
(100.7945183 0.09259102607 -3.374346115e-21)
(100.9641391 0.02389948796 -2.435640904e-22)
(100.6010391 0.03305626565 2.513920478e-21)
(100.6787849 -0.009641130262 -2.273651983e-21)
(100.5423911 -0.006256218301 4.300078672e-22)
(100.1120122 -0.1468477513 1.605498727e-23)
(100.2343711 -0.09010970202 -3.141013991e-21)
(99.99094107 -0.284965386 -5.738026252e-22)
(100.1510889 -0.2676943949 1.370102941e-21)
(99.77164886 -0.4071684519 -4.515376709e-21)
(99.98336454 -0.4365904709 -2.973260408e-21)
(99.4047128 -0.4465450493 9.32288181e-21)
(99.69725359 -0.5892353755 -1.026879218e-21)
(99.42277142 -0.556265976 9.649854779e-22)
(99.29650364 -0.3675645188 4.542057147e-21)
(99.29591911 -0.5195862623 9.421124408e-21)
(99.15983408 -0.4458082993 6.637885157e-21)
(98.7303924 -0.3362789899 -2.274203884e-21)
(98.87129454 -0.4438287548 3.509896005e-21)
(98.71269286 -0.5530142953 2.319876568e-21)
(98.52219136 -0.4248946665 7.02689127e-21)
(97.91609476 -0.2116269932 -4.129887344e-20)
(98.10318918 -0.3841986823 -6.37690676e-22)
(97.85913804 -0.5197415449 3.581586377e-20)
(97.62527894 -0.2604703129 2.264211033e-19)
(97.60053208 -0.3835455222 4.013348151e-19)
(96.93350468 0.02377840414 -7.736124121e-20)
(97.05736689 -0.1164245759 -5.753207622e-20)
(96.8707123 -0.184504803 5.85937067e-19)
(96.71975884 -0.02985501132 -5.302455478e-22)
(95.25174379 0.5942432248 -1.157627658e-18)
(95.43528895 0.3596218476 -4.989077281e-19)
(95.12885951 0.281326982 1.791376191e-19)
(94.90108629 0.537741408 -6.696013378e-19)
(92.61737222 1.62209396 7.628577931e-19)
(92.88654249 1.232864249 4.661495869e-19)
(92.40080146 1.09759214 8.591929984e-19)
(92.04461937 1.520585059 4.72170595e-19)
(88.32668442 3.257824054 1.436778584e-18)
(88.76407688 2.552242466 5.30257395e-19)
(87.98597328 2.196242012 4.619827282e-19)
(87.31836155 2.941753922 2.784107629e-18)
(80.03886159 5.888342785 0)
(80.64825028 4.961885778 0)
(79.75806131 4.312548375 0)
(78.84481414 5.282511641 6.721621978e-19)
(126.3645162 23.47094622 -2.717457245e-18)
(124.4162274 22.44300887 8.472444481e-19)
(126.9655569 21.40630459 8.460377454e-19)
(125.0900244 20.80883783 8.44717148e-19)
(118.4997276 9.813299194 3.078837377e-18)
(116.7849561 9.414284502 1.861860981e-18)
(118.39319 8.210994954 4.929874036e-19)
(116.8027546 8.177564308 1.302412773e-18)
(111.6687067 4.931322998 2.277002407e-20)
(112.6579113 4.978264666 -8.349745437e-21)
(112.4364384 4.190801031 -4.951093691e-19)
(111.5256091 4.281429404 9.487691367e-19)
(108.0691379 2.841298294 -7.770962888e-21)
(108.6966937 2.80974204 1.657210307e-18)
(108.4841263 2.363446434 7.128143099e-19)
(107.9133741 2.456121871 8.123146794e-19)
(105.9496294 1.62823332 -6.896191111e-19)
(105.535561 1.663566062 -6.990345967e-19)
(105.7793218 1.344387518 9.299049619e-21)
(105.4024386 1.401078529 -3.637458868e-19)
(103.5852461 0.8207228707 -4.943995707e-21)
(104.1074207 0.758026676 -8.266778442e-20)
(103.8041701 0.3960051267 7.904021908e-21)
(103.388282 0.52532255 1.180422053e-21)
(102.4560882 0.4108045169 -1.985375455e-21)
(102.7992951 0.3513987236 1.382176097e-20)
(102.5846522 0.1214644414 5.097016149e-21)
(102.302868 0.2148702223 1.009748384e-20)
(101.2472973 -0.06962574665 -3.504244147e-22)
(101.5081793 -0.258912902 -1.068011021e-21)
(101.9330608 -0.08025470951 -1.085014516e-21)
(101.8834719 0.08486844052 -1.231144431e-21)
(100.837561 -0.07614125307 1.083810434e-21)
(100.9701715 -0.2152025876 1.331114642e-21)
(100.6114576 -0.04750889929 -4.311493622e-21)
(100.6517203 -0.1437934511 1.664356214e-21)
(100.4975585 -0.04951806091 -2.134925956e-21)
(100.2752333 -0.2098008487 -1.786926308e-21)
(100.4322778 -0.1215600277 9.905837399e-22)
(100.1456339 -0.4157147971 -1.041350459e-21)
(100.3453566 -0.3639979826 -7.321289924e-22)
(99.91155754 -0.6158466147 5.319392625e-22)
(100.1721934 -0.6058893169 -2.628051834e-22)
(99.50325792 -0.7446506061 6.0869298e-22)
(99.87654451 -0.8430708433 8.877899713e-22)
(99.55922419 -0.8670389353 5.298835824e-22)
(99.35267968 -0.683842917 1.552548546e-21)
(99.40729132 -0.8512637741 -1.52408595e-23)
(99.23209511 -0.8024369279 -1.524302722e-23)
(98.73196421 -0.7838899417 -2.312480751e-21)
(98.92121758 -0.8689669326 0)
(98.78991059 -1.022896131 -1.131695282e-21)
(98.547329 -0.9302421248 -1.199707638e-21)
(97.8574455 -0.8483786256 1.67223725e-21)
(98.10722408 -0.9868750079 -3.83508762e-20)
(97.91225194 -1.18648076 -3.717228811e-20)
(97.58921772 -0.9736767469 -4.307431994e-19)
(97.60746457 -1.113200493 3.893751232e-19)
(96.79449834 -0.8543535661 1.25373097e-18)
(96.96946704 -0.9692682738 3.146025364e-19)
(96.8090497 -1.085516317 -4.418170763e-20)
(96.60178583 -0.965346122 -9.055097942e-20)
(94.95969709 -0.7185295437 1.710456286e-19)
(95.21753747 -0.9022010252 6.753581527e-19)
(94.96959078 -1.057096021 -6.999823138e-19)
(94.6517018 -0.871096682 1.70956427e-19)
(92.17358455 -0.536380524 0)
(92.57886279 -0.8035773604 1.916357246e-19)
(92.22228233 -1.058818619 -3.947750317e-19)
(91.74226988 -0.8115666968 2.09948631e-19)
(88.05805254 -0.7790070967 -1.342612528e-20)
(88.7279978 -1.103813085 1.866498252e-20)
(88.31854449 -1.591572505 -5.210452353e-19)
(87.55580162 -1.359104173 2.117767768e-18)
(82.80703465 -2.965315592 6.518702061e-22)
(83.42223686 -2.969917831 1.695969989e-18)
(83.3581301 -3.441754932 1.145709898e-18)
(82.80000836 -3.5428591 1.129232654e-18)
(139.4564854 5.733566445 -3.540190059e-18)
(137.7511262 6.760249583 -1.156998511e-18)
(138.0934625 4.363729844 -3.72509782e-18)
(136.673814 5.390265503 -2.398325658e-18)
(123.4813338 2.2860815 1.565072159e-18)
(121.7670056 3.012020482 1.680394658e-19)
(122.2534571 0.9922150991 -1.493625002e-18)
(120.9030745 1.821810925 9.271470107e-19)
(114.0960147 1.321395275 -6.662416598e-19)
(115.0632077 0.8974089379 -7.528966222e-19)
(114.3763052 0.228763587 -1.404245851e-18)
(113.568667 0.705702889 3.814646079e-19)
(109.3825848 0.6104256848 2.268061836e-19)
(109.9852514 0.3341231426 9.265063655e-19)