/*--------------------------------*- C++ -*----------------------------------*\
| =========                 |                                                 |
| \\      /  F ield         | OpenFOAM: The Open Source CFD Toolbox           |
|  \\    /   O peration     | Version:  v1912                                 |
|   \\  /    A nd           | Website:  www.openfoam.com                      |
|    \\/     M anipulation  |                                                 |
\*---------------------------------------------------------------------------*/
FoamFile
{
    version     2.0;
    format      ascii;
    class       volVectorField;
    location    "2.98";
    object      U;
}
// * * * * * * * * * * * * * * * * * * * * * * * * * * * * * * * * * * * * * //

dimensions      [0 1 -1 0 0 0 0];


internalField   nonuniform List<vector> 
12556
(
(99.99955027 0.001160744416 -3.766235399e-21)
(99.99919553 0.004371119254 -2.882517529e-25)
(99.99837941 0.01058948699 -3.766783524e-21)
(99.99686373 0.02212564582 -3.754581642e-21)
(99.9996741 0.01866178579 3.640242921e-21)
(99.99830867 0.03278631434 0)
(99.99730981 0.0556550056 0)
(99.99690364 0.08833150944 -6.619296844e-21)
(99.99580217 0.1334421182 7.850250078e-22)
(99.99479953 0.1919085801 -5.364201081e-21)
(99.9943728 0.2599192792 5.517453354e-22)
(99.99527676 0.3267162613 0)
(99.99753837 0.3757881638 0)
(100.0002136 0.3934946825 2.044547753e-22)
(100.0030206 0.3749709643 -8.503256782e-22)
(100.0047274 0.3279793955 7.407554437e-22)
(100.005169 0.2671587026 0)
(100.0050524 0.2058458042 1.399307377e-21)
(100.0049197 0.1502196144 5.785264317e-21)
(100.0026525 0.1081803095 -1.672386587e-21)
(100.0113871 0.1267077196 -1.46622676e-20)
(100.0081078 0.0794075227 0)
(100.0061617 0.04297907952 -1.860474715e-21)
(100.0059971 0.01372329207 -1.312240323e-20)
(99.9958693 0.002735100324 1.506232105e-20)
(99.99225991 0.01085684101 3.76917599e-21)
(99.98457755 0.02730501308 2.63789415e-20)
(99.97135059 0.05941207469 -1.129991072e-20)
(99.97153921 0.08734406758 3.663807181e-21)
(99.95023615 0.1558592256 -2.95007682e-23)
(99.92153787 0.2651217598 0)
(99.90475583 0.3694842005 -6.573504989e-21)
(99.86782488 0.5652009564 -6.208872222e-21)
(99.83153966 0.8238620467 -1.117973104e-20)
(99.80833001 1.133871279 -4.824101935e-21)
(99.81944192 1.451595504 -6.879669653e-21)
(99.87696929 1.697805567 -6.144592683e-21)
(99.96062311 1.796912506 -6.277222939e-22)
(100.0479818 1.727400063 -3.152201878e-22)
(100.1097795 1.51633667 3.802271885e-21)
(100.1338506 1.234827775 -8.027615736e-21)
(100.1264554 0.9536541221 0)
(100.1423831 0.7380907962 -2.48786731e-20)
(100.1050042 0.5146999487 4.83310833e-20)
(100.1067342 0.3633923799 1.419975929e-20)
(100.0774767 0.2269587677 2.952537344e-20)
(100.0597416 0.1230700704 -2.961274695e-20)
(100.0530503 0.03928006973 1.498380435e-20)
(99.98979882 0.002139962385 -1.502878442e-20)
(99.97971893 0.01059362564 -3.014267423e-20)
(99.95839068 0.03176009984 -6.782297957e-20)
(99.92322605 0.0740751768 9.030615626e-20)
(99.89987228 0.1315229736 -7.46451044e-21)
(99.837956 0.2468823547 -7.334479979e-21)
(99.75001181 0.4307178601 -1.276313801e-20)
(99.69354677 0.6416533719 0)
(99.5755281 1.005261801 2.560310134e-20)
(99.456434 1.500295838 4.72385526e-20)
(99.37868386 2.135788519 6.197915585e-19)
(99.43188497 2.818369092 1.496207793e-20)
(99.6477788 3.33361702 5.133444736e-19)
(99.97960677 3.544321193 0)
(100.292282 3.378207382 -2.227426408e-19)
(100.495048 2.926962924 3.036853574e-21)
(100.5596107 2.345318439 -8.713230646e-21)
(100.517198 1.764974762 -2.157781802e-20)
(100.4747498 1.272213824 -1.491409275e-19)
(100.358964 0.873819394 -3.364109033e-20)
(100.2982911 0.5546477199 -1.467081171e-20)
(100.2179885 0.3453263848 3.339564637e-20)
(100.1688366 0.1869743303 -3.766597752e-21)
(100.1473849 0.05935371357 0)
(99.98625622 -0.002029927075 -7.555715863e-21)
(99.96703845 -0.0009895703894 5.294723623e-20)
(99.92649547 0.01638473089 -1.514319429e-20)
(99.86004773 0.05744365084 0)
(99.80373621 0.1355717869 0)
(99.67989511 0.2804655738 -5.891566599e-20)
(99.50455968 0.5186859088 -1.181352571e-19)
(99.35153237 0.8232138376 2.806010639e-20)
(99.08653857 1.339032639 -3.19209152e-19)
(98.7887522 2.125716876 -1.502323163e-18)
(98.59242043 3.206187955 -2.679964759e-18)
(98.68264205 4.44928497 2.080192542e-18)
(99.28678965 5.398578251 0)
(100.1494675 5.654626425 0)
(100.8499981 5.214772456 1.051314449e-20)
(101.2152467 4.383888386 6.451618591e-20)
(101.2898284 3.404167416 -8.15667712e-20)
(101.1711736 2.491843049 0)
(100.9972031 1.705018307 5.513231047e-20)
(100.7463702 1.143079696 -4.311734622e-20)
(100.5689074 0.6787113854 -3.772541032e-20)
(100.4165864 0.4160009478 1.917746012e-20)
(100.3217663 0.2233936689 -3.8574119e-21)
(100.2783376 0.07039758992 0)
(99.99357418 -0.01064746761 0)
(99.96374495 -0.02670327549 0)
(99.90148488 -0.02484339843 7.591834433e-21)
(99.797972 0.003696797046 1.151710698e-20)
(99.69941782 0.08878547601 1.907926452e-20)
(99.4972367 0.2371725087 0)
(99.21098719 0.4875641995 0)
(98.9207595 0.8560044265 -1.159811738e-19)
(98.41907206 1.519977064 -4.311643811e-19)
(97.81165122 2.62742241 2.076338916e-19)
(97.2900041 4.347126704 -4.971465519e-20)
(97.46058165 6.52081234 -1.023093648e-18)
(98.84061316 8.279019985 -7.27564186e-20)
(100.8280366 8.395555713 -1.834726187e-19)
(102.1085483 7.25286506 -1.209421392e-18)
(102.5491827 5.740484439 1.452262824e-18)
(102.4581621 4.300404262 4.442714797e-19)
(102.0951456 3.019614597 -6.833795247e-22)
(101.6904448 1.961455838 -9.33185317e-20)
(101.2457046 1.278326688 7.808948793e-21)
(100.8869779 0.7015141205 0)
(100.6448038 0.4246388104 3.959041701e-21)
(100.4933421 0.2240516369 -2.972390257e-21)
(100.4226414 0.06979719528 -9.868536888e-22)
(100.0213393 -0.02401262215 0)
(99.98067282 -0.06718986352 0)
(99.89694414 -0.09327792279 -1.523908871e-20)
(99.75595573 -0.09305364949 3.090220931e-20)
(99.60394077 -0.01686052883 0)
(99.32167925 0.105001423 0)
(98.91014928 0.3302474102 2.418762208e-20)
(98.45145726 0.7108024779 0)
(97.63450656 1.434235636 9.03668429e-19)
(96.47903193 2.768154133 2.32904422e-19)
(95.18013291 5.179012829 -1.199401574e-19)
(94.86511682 9.01159657 0)
(97.91806023 12.77767411 1.701532973e-19)
(102.6490277 12.26663277 0)
(104.6443551 9.28134107 0)
(104.7266667 6.70301353 -3.175275948e-19)
(104.1182464 4.765542282 0)
(103.3046783 3.230743942 -4.928191602e-20)
(102.4926263 1.955649471 2.413654075e-20)
(101.8009127 1.236102003 -1.630824176e-20)
(101.2168222 0.6066627145 0)
(100.8698307 0.3596891935 0)
(100.6551937 0.1827074397 -1.007105593e-21)
(100.5545396 0.05587537056 -3.033114692e-21)
(100.0788466 -0.04183849133 3.710106828e-21)
(100.0283602 -0.1214952749 -3.735783705e-21)
(99.92561041 -0.1872402328 7.61421656e-21)
(99.75128206 -0.2302814276 -2.790706732e-20)
(99.54657622 -0.1820685736 7.890376095e-23)
(99.18880606 -0.1166560764 2.371711283e-20)
(98.66294595 0.03804896603 -5.733162538e-20)
(98.01927974 0.3664517351 2.419028075e-19)
(96.87010674 0.9863606661 -4.702067243e-19)
(94.99118981 2.219619939 6.750653671e-19)
(92.24038089 4.593479019 0)
(88.8081665 10.03541462 0)
(93.76888904 21.196852 -2.093050001e-19)
(107.8277604 18.00611048 -3.057332561e-19)
(109.0979232 10.61930778 0)
(107.7500119 6.731645108 1.90987016e-18)
(106.1698555 4.466944217 2.824492266e-20)
(104.6670187 2.915667901 0)
(103.3082365 1.610703596 0)
(102.338473 0.9621912591 9.110782388e-21)
(101.5065995 0.3906172938 2.67237531e-21)
(101.0528353 0.2134157695 -3.15610346e-21)
(100.7776578 0.0977449494 -3.5953573e-21)
(100.6477654 0.02843786658 8.624664826e-21)
(100.174126 -0.06328199604 -3.710500251e-21)
(100.1159667 -0.1870009077 3.737130359e-21)
(99.99887456 -0.3016437272 -4.734884958e-21)
(99.79957663 -0.3999007862 -3.173946844e-21)
(99.54797629 -0.396889049 1.350626577e-20)
(99.13235354 -0.4126466342 8.009144473e-21)
(98.51957077 -0.3703169451 -1.158147774e-20)
(97.73312906 -0.1702806323 4.885883133e-19)
(96.3335234 0.1714559562 -1.111925713e-20)
(93.93852247 0.8266694178 -1.496453326e-19)
(90.12626507 1.741589246 -8.362150955e-19)
(83.25288247 2.939772796 0)
(121.4810587 21.46834848 7.461915368e-19)
(115.3476902 9.07708826 -5.928465554e-20)
(111.0725216 5.05615383 0)
(108.1801241 3.143840324 -1.117488439e-18)
(105.9317875 1.934572429 -1.864116833e-19)
(103.9820988 0.8967164849 -4.907819253e-21)
(102.7536701 0.4638572225 2.06780992e-20)
(101.6950455 0.05980190693 -3.284149226e-21)
(101.1535869 -0.00481930235 2.682396894e-21)
(100.8306561 -0.0253361106 -5.291405278e-22)
(100.676196 -0.0111072398 -8.145021045e-21)
(100.3131594 -0.08703617112 -1.785267041e-21)
(100.2503329 -0.2596318161 -1.340884257e-21)
(100.1252414 -0.4288853963 -4.592120202e-22)
(99.91208368 -0.5895352115 1.386588865e-21)
(99.62517523 -0.6440421281 -2.528106899e-23)
(99.17654435 -0.7559881034 0)
(98.51797862 -0.8481549443 -6.46150388e-20)
(97.66405375 -0.8230914843 3.004537468e-20)
(96.17228371 -0.8317863166 5.123689113e-19)
(93.73498687 -0.8600684071 3.055211005e-19)
(90.39917297 -1.318863932 4.132724593e-19)
(86.74721304 -3.096637105 -9.486079433e-19)
(134.1677138 7.516767933 -1.153210905e-19)
(119.9118003 3.107496029 1.562161458e-18)
(113.3628526 1.546243451 0)
(109.5088597 0.8291505689 1.022319356e-18)
(106.7409657 0.3915992241 -8.253582588e-19)
(104.3478521 -0.105184667 -5.076462681e-21)
(102.9466234 -0.2081783119 1.174627688e-20)
(101.7337264 -0.3532795633 1.139606893e-21)
(101.1397379 -0.2740237977 0)
(100.7886541 -0.1750758661 4.124274473e-21)
(100.6182675 -0.05937909436 4.070201139e-21)
(100.4991001 -0.1115055783 3.517899657e-21)
(100.4350081 -0.3344508039 5.333151809e-23)
(100.3089548 -0.5598376411 0)
(100.0943322 -0.7852969003 1.810393609e-22)
(99.78597593 -0.9039404474 -1.850642505e-21)
(99.33140299 -1.115315781 1.960095507e-21)
(98.67082751 -1.344030608 4.97388106e-22)
(97.81853938 -1.498177299 2.962707302e-20)
(96.37322242 -1.819895078 -5.725180886e-19)
(94.14813897 -2.313515269 -9.85371295e-21)
(91.49053075 -3.201464517 -7.694373479e-19)
(89.17363053 -4.52374537 -5.876662977e-19)
(132.2614459 -7.859066829 -2.213717639e-18)
(119.930761 -4.166103365 1.479947434e-18)
(113.5624224 -2.699179914 0)
(109.6542156 -1.909257178 -1.096636443e-18)
(106.8317313 -1.421926644 8.416660047e-19)
(104.2932987 -1.239304478 4.32332758e-20)
(102.8585923 -0.9644164803 0)
(101.5936049 -0.7992635388 -1.120900661e-21)
(100.9924385 -0.5640260135 -4.600236341e-21)
(100.6365189 -0.3360205534 5.125909908e-22)
(100.4612798 -0.1114498216 0)
(100.7319362 -0.1351286278 -1.732482665e-21)
(100.6698481 -0.4065270531 1.746469959e-21)
(100.5493301 -0.6853489501 1.703158708e-21)
(100.3463186 -0.9736277942 -1.587584146e-21)
(100.0287932 -1.156898236 -1.82402852e-21)
(99.59342342 -1.460011206 0)
(98.96802807 -1.813255404 -7.302256659e-20)
(98.16377578 -2.127508815 4.145397911e-19)
(96.83297835 -2.691352258 1.311412926e-19)
(94.85074428 -3.463314718 -9.024068948e-21)
(92.57330437 -4.463902149 0)
(90.60009686 -5.473478302 -6.907780717e-19)
(124.1811584 -16.54043764 -3.176977394e-18)
(116.5189529 -9.640723207 -1.251995266e-18)
(111.8622815 -6.317560435 0)
(108.6782245 -4.401708338 -1.487600332e-18)
(106.1870225 -3.137981274 0)
(103.8057832 -2.311361207 0)
(102.4870563 -1.691892434 -2.81214367e-20)
(101.2725869 -1.22489714 -1.396224437e-20)
(100.7095193 -0.8416587874 1.044261884e-21)
(100.3717526 -0.4912448581 -3.309991782e-21)
(100.20282 -0.1619106747 4.848394098e-22)
(101.0085364 -0.1564767446 6.370298437e-21)
(100.9514599 -0.4713033772 0)
(100.8415906 -0.7958327125 -1.699839592e-21)
(100.6593296 -1.14656874 0)
(100.3416386 -1.386072586 0)
(99.94986009 -1.764818181 -5.422319286e-21)
(99.38782983 -2.221929808 -5.958403644e-20)
(98.66035731 -2.66825887 -4.304742731e-19)
(97.48017143 -3.412288553 0)
(95.72032115 -4.381062949 0)
(93.63214912 -5.507900603 -6.313567111e-19)
(91.6703256 -6.517139238 -8.099824962e-20)
(115.4135766 -19.77282066 2.145416976e-18)
(111.7499133 -12.48379227 5.372215097e-19)
(109.0582872 -8.616670978 -6.932406538e-19)
(106.882616 -6.18238684 -8.422857933e-19)
(104.9676134 -4.453812866 0)
(102.9741783 -3.167215192 2.242668098e-21)
(101.8779482 -2.299752093 -3.405339209e-20)
(100.7962812 -1.587700003 8.261149349e-21)
(100.3061187 -1.078298438 0)
(100.0042837 -0.6259825229 3.81470154e-21)
(99.85078053 -0.2060025526 0)
(101.323417 -0.1750709307 6.36217538e-21)
(101.2732919 -0.5281777536 1.004670443e-19)
(101.1767566 -0.891624608 -2.02334283e-19)
(101.0179199 -1.291584887 -4.594246319e-22)
(100.7303849 -1.574679173 -1.597899416e-21)
(100.3850741 -2.012335879 0)
(99.90539039 -2.548216351 0)
(99.26770621 -3.093639001 -4.07905191e-19)
(98.26560862 -3.965189063 2.596198774e-20)
(96.74917526 -5.095190303 2.398057463e-19)
(94.87273748 -6.455695326 -5.723213531e-19)
(92.95314353 -7.736093747 -7.063487425e-19)
(103.585822 -28.68747787 9.404930084e-20)
(107.2832939 -18.41389749 -1.405834521e-19)
(107.0870822 -12.98442333 -3.249655244e-19)
(105.9939531 -9.510624333 0)
(104.7650925 -7.093677331 7.017754242e-19)
(103.4610541 -5.236682265 2.16418024e-19)
(101.9447285 -3.724386239 -6.775954246e-20)
(101.1087156 -2.729971651 0)
(100.2137682 -1.861909076 0)
(99.81016501 -1.255740935 1.190732948e-20)
(99.55365792 -0.7305939599 2.197474966e-21)
(99.42145378 -0.2404824208 -7.106676069e-21)
(101.6689261 -0.1891283698 0)
(101.6270666 -0.5717421899 0)
(101.5468654 -0.9642827992 0)
(101.4139548 -1.395141326 0)
(101.1564742 -1.722983343 0)
(100.8612408 -2.207525737 0)
(100.4650057 -2.800030437 6.285449465e-21)
(99.93581256 -3.405168454 2.775457915e-19)
(99.12527397 -4.34803012 3.734444364e-19)
(97.89997672 -5.581913062 -4.068853203e-19)
(96.42991288 -7.19764062 3.400846599e-19)
(94.90882313 -9.448581913 2.386950907e-19)
(96.90380499 -18.49510829 -2.090509524e-20)
(102.380197 -15.11415834 -2.767649067e-19)
(103.4487522 -11.86009024 -7.892757229e-19)
(103.3053586 -9.303737311 5.112884371e-19)
(102.7411346 -7.254377552 5.367478347e-19)
(101.9124243 -5.509837689 -5.814722882e-20)
(100.8560787 -3.993828566 -9.286975955e-20)
(100.2625905 -2.974612138 -3.499045598e-20)
(99.57240764 -2.025965273 -1.935898302e-20)
(99.25310355 -1.372004359 1.902583117e-20)
(99.04463745 -0.8014036948 0)
(98.93607938 -0.2638132938 1.901088788e-20)
(102.0371025 -0.1985262519 0)
(102.0044145 -0.6010882782 0)
(101.9428685 -1.013057459 0)
(101.8381412 -1.458894576 0)
(101.6119769 -1.814165293 0)
(101.3783358 -2.32264031 0)
(101.0719816 -2.925336015 -7.953840511e-20)
(100.6659197 -3.548846456 1.630322764e-19)
(100.0816558 -4.466881258 -6.345993464e-19)
(99.18272517 -5.662609073 6.642858265e-19)
(98.24962122 -7.210680988 -3.368687827e-19)
(97.47947977 -9.311435655 8.256475911e-20)
(98.43802454 -11.94778313 0)
(100.3927657 -11.60637416 0)
(101.1660031 -10.09569415 3.186065401e-20)
(101.278021 -8.460142136 0)
(101.0302311 -6.893600052 1.836120626e-19)
(100.5213717 -5.422102361 -2.428597409e-20)
(99.80477696 -4.030129969 0)
(99.42099205 -3.065297465 0)
(98.9081938 -2.091710675 -3.576064291e-20)
(98.66478346 -1.429433506 1.764591695e-20)
(98.50266746 -0.8381891363 7.401733529e-22)
(98.41703314 -0.2759741225 -1.30770825e-20)
(102.4191977 -0.2033616842 0)
(102.3954194 -0.6160729733 0)
(102.3520607 -1.037705469 0)
(102.2746996 -1.486306212 0)
(102.0794333 -1.856386878 0)
(101.9023086 -2.367822635 0)
(101.6766476 -2.95509521 3.341432326e-22)
(101.3829888 -3.559111194 2.975361276e-19)
(100.9811097 -4.387093492 2.819241866e-19)
(100.3514395 -5.411945223 -5.922860417e-19)
(99.73387206 -6.636347997 4.943822201e-19)
(97.30752067 -7.737183159 -5.802016719e-19)
(99.26635477 -9.162854662 9.456714997e-20)
(99.71619618 -9.141442531 0)
(99.90752365 -8.44469633 1.025488958e-20)
(99.8884537 -7.431732133 -2.451255448e-19)
(99.70019208 -6.272513586 0)
(99.35400603 -5.09832709 0)
(98.86160317 -3.897313279 -2.953908927e-20)
(98.63255256 -3.031913015 4.539270851e-20)
(98.25258391 -2.079815479 1.107125907e-20)
(98.07299904 -1.436117043 1.891490409e-20)
(97.95077045 -0.8448172048 -2.14767598e-20)
(97.8849186 -0.278217358 0)
(102.806734 -0.2041044971 0)
(102.7908792 -0.6181084108 0)
(102.7633029 -1.040453816 0)
(102.7099022 -1.481975423 0)
(102.5428776 -1.855754943 0)
(102.414054 -2.353488655 0)
(102.2527836 -2.907569033 0)
(102.0374236 -3.473041762 0)
(101.7626008 -4.181106355 0)
(101.2967907 -4.994429804 -5.601089256e-20)
(100.7740049 -5.875122934 4.380035978e-19)
(98.34837739 -6.514775578 -2.731563892e-19)
(99.75688115 -7.391967572 8.158713686e-20)
(99.50263693 -7.446058469 -7.351581693e-20)
(99.22756835 -7.085696118 -4.056806822e-20)
(98.97494566 -6.426263335 5.047292524e-20)
(98.7030216 -5.572620389 3.461060408e-21)
(98.41265006 -4.6671818 0)
(98.05274091 -3.667121137 0)
(97.91252361 -2.906859053 0)
(97.62954904 -2.009779437 3.805635587e-20)
(97.4991412 -1.402377972 -3.559059597e-20)
(97.40763521 -0.8268431379 -2.414170522e-21)
(97.35716321 -0.2727348842 2.422148478e-21)
(103.1921018 -0.2013893465 0)
(103.1828996 -0.609262629 0)
(103.1680525 -1.024749138 0)
(103.1340302 -1.451120976 0)
(102.991567 -1.818966793 0)
(102.9000109 -2.291714766 0)
(102.7857621 -2.802619222 0)
(102.6164278 -3.32117728 0)
(102.4043877 -3.91368725 1.788633473e-21)
(102.0114426 -4.541316452 -1.894110005e-19)
(101.4988916 -5.173550988 1.320968419e-22)
(99.19018638 -5.569057408 0)
(100.0398862 -6.170082326 -6.819393071e-20)
(99.44847797 -6.216885094 -1.77785745e-20)
(98.82991001 -5.993709431 -3.38245003e-20)
(98.34672227 -5.527622089 -8.636278593e-21)
(97.9650445 -4.89641711 0)
(97.66778781 -4.202237526 0)
(97.36530782 -3.377551527 0)
(97.27008431 -2.720761946 0)
(97.05171706 -1.898121707 0)
(96.95589377 -1.337159517 0)
(96.88681562 -0.7912480361 0)
(96.84748909 -0.2621051223 0)
(103.5691114 -0.1958855312 0)
(103.5651884 -0.5917148313 0)
(103.5599113 -0.9943676813 0)
(103.5403247 -1.399911374 0)
(103.4173505 -1.754463722 0)
(103.3518631 -2.195713608 0)
(103.2672608 -2.659292618 0)
(103.1225746 -3.124670742 0)
(102.9217704 -3.625705242 0)
(102.5373795 -4.11663397 0)
(101.9986512 -4.576227673 0)
(99.23538896 -4.797124492 4.322250894e-20)
(100.2125658 -5.264598102 -6.880104875e-22)
(99.4096348 -5.278481553 1.368568433e-21)
(98.54820528 -5.107514913 0)
(97.89013941 -4.761569536 0)
(97.41049649 -4.289669302 0)
(97.07590829 -3.746780185 0)
(96.78895339 -3.06593699 0)
(96.70765022 -2.504974156 0)
(96.52563756 -1.763184237 0)
(96.45114181 -1.252487082 0)
(96.39620503 -0.7432690928 0)
(96.36518907 -0.2468694191 0)
(103.9330169 -0.1882775755 0)
(103.932963 -0.5676684243 0)
(103.9341465 -0.9531293942 0)
(103.924169 -1.334475129 0)
(103.8155091 -1.670811306 0)
(103.7658926 -2.07751448 0)
(103.696578 -2.494671319 0)
(103.5592159 -2.906101109 0)
(103.3468546 -3.327934601 0)
(102.9352799 -3.721522643 0)
(102.3438591 -4.070330677 0)
(98.40849751 -4.069848766 0)
(100.3263977 -4.548551284 0)
(99.34549568 -4.5345537 0)
(98.32864299 -4.391573838 0)
(97.54693328 -4.124601226 0)
(96.98191877 -3.75868919 0)
(96.59966214 -3.325667934 0)
(96.30487274 -2.758909994 0)
(96.21853098 -2.280362005 0)
(96.05263043 -1.618240162 0)
(95.98888726 -1.157702837 0)
(95.9414202 -0.6886845812 0)
(95.91535248 -0.2292403825 0)
(104.2804367 -0.1792305863 0)
(104.2829046 -0.5392405533 0)
(104.2876719 -0.9046246039 0)
(104.2829497 -1.260302236 0)
(104.1839104 -1.575526885 0)
(104.1415956 -1.947219816 0)
(104.0759824 -2.322112277 0)
(103.9342043 -2.681784982 0)
(103.6970264 -3.037257222 0)
(103.2483302 -3.355833343 0)
(102.6029547 -3.627996782 0)
(97.7634214 -3.504093719 0)
(100.3802242 -3.972817668 -5.584852256e-35)
(99.27529142 -3.93442909 0)
(98.15118612 -3.808359592 0)
(97.27748909 -3.592301545 0)
(96.64142572 -3.299027557 0)
(96.21203197 -2.946925896 0)
(95.89535185 -2.470633331 0)
(95.7936476 -2.060320158 0)
(95.63032834 -1.47245534 0)
(95.56949287 -1.059730814 0)
(95.52448371 -0.6316645617 0)
(95.50091219 -0.2107134361 0)
(104.6092078 -0.1693373748 0)
(104.6130092 -0.5083149735 0)
(104.6188826 -0.8520041253 0)
(104.6156989 -1.181899891 0)
(104.5224727 -1.474734517 0)
(104.480656 -1.812865264 0)
(104.4097611 -2.149466504 0)
(104.2562888 -2.462629406 0)
(103.9872462 -2.763503469 0)
(103.499097 -3.024690681 0)
(102.7963171 -3.240954302 0)
(97.38999228 -3.059133018 0)
(100.3997349 -3.492415094 0)
(99.2025136 -3.439961389 0)
(98.0010905 -3.325729051 0)
(97.05806255 -3.144497064 0)
(96.36387304 -2.902704557 0)
(95.89107058 -2.610659766 0)
(95.54684223 -2.206540084 0)
(95.42398176 -1.85266333 0)
(95.2545821 -1.331955806 0)
(95.19127655 -0.9634044924 0)
(95.14523364 -0.5751694123 0)
(95.12232915 -0.1922806228 0)
(104.918247 -0.1590883824 0)
(104.9223912 -0.4764497607 0)
(104.9273794 -0.7978959549 0)
(104.9227143 -1.102760772 0)
(104.8323636 -1.373162099 0)
(104.7859297 -1.68013809 0)
(104.7035553 -1.98220007 0)
(104.5337425 -2.255102973 0)
(104.2299242 -2.51147337 0)
(103.7040759 -2.728799998 0)
(102.9361386 -2.902696787 0)
(97.23485161 -2.706366708 0)
(100.3959798 -3.08592213 -7.230277901e-35)
(99.12926319 -3.026804649 0)
(97.87023779 -2.921718742 0)
(96.87407143 -2.765579814 0)
(96.13249138 -2.561510383 0)
(95.62106646 -2.314937154 0)
(95.24792173 -1.968732597 0)
(95.10128709 -1.661567363 0)
(94.92063771 -1.200520297 0)
(94.8514314 -0.8718643238 0)
(94.80208258 -0.5211698022 0)
(94.7785591 -0.1745968403 0)
(105.2073631 -0.1488709009 0)
(105.2110528 -0.4448556316 0)
(105.2136472 -0.7443496792 0)
(105.2051968 -1.025526409 0)
(105.1153753 -1.274251832 0)
(105.060742 -1.552915873 0)
(104.9626871 -1.823758403 0)
(104.7739255 -2.062823895 0)
(104.434997 -2.28295483 0)
(103.8748782 -2.46649765 0)
(103.0319616 -2.606429287 0)
(97.24126171 -2.421852393 0)
(100.3763351 -2.740683209 0)
(99.05661632 -2.678544755 0)
(97.75370949 -2.58082651 0)
(96.71615699 -2.443536353 0)
(95.9358683 -2.267954159 0)
(95.39063533 -2.05654453 0)
(94.98930369 -1.757216564 0)
(94.81835434 -1.488814626 0)
(94.62370582 -1.080197065 0)
(94.5465883 -0.7869944495 0)
(94.49256392 -0.4708885143 0)
(94.46756254 -0.1580721367 0)
(105.4770257 -0.1389808236 0)
(105.4796356 -0.4144328368 0)
(105.478744 -0.6928759543 0)
(105.4648517 -0.9521011437 0)
(105.3737631 -1.180415747 0)
(105.3085211 -1.433668737 0)
(105.192434 -1.676522855 0)
(104.9829672 -1.887464814 0)
(104.6102446 -2.078110655 0)
(104.0192276 -2.235316597 0)
(103.0914638 -2.347431339 0)
(97.36323088 -2.186163428 0)
(100.3458196 -2.446925282 2.42447456e-35)
(98.98504884 -2.383422569 0)
(97.64828193 -2.291782159 0)
(96.57808714 -2.169114433 0)
(95.76606641 -2.01560224 0)
(95.19149091 -1.831899215 0)
(94.76366607 -1.570856239 0)
(94.56905004 -1.33472863 0)
(94.35921919 -0.971860777 0)
(94.27317363 -0.7097910556 0)
(94.21375138 -0.4250071402 0)
(94.18673381 -0.142940799 0)
(105.7281716 -0.1296367278 0)
(105.7292248 -0.3858274035 0)
(105.7240871 -0.6445395022 0)
(105.703622 -0.8837880605 0)
(105.6099329 -1.093228016 0)
(105.5325213 -1.323859096 0)
(105.3972173 -1.542317277 0)
(105.1662072 -1.72949497 0)
(104.7618404 -1.896218928 0)
(104.1424932 -2.032621059 0)
(103.121878 -2.121971418 0)
(97.56234391 -1.988011881 0)
(100.3076503 -2.196575124 0)
(98.91479602 -2.132572193 0)
(97.55170369 -2.046060519 0)
(96.45551686 -1.935030225 0)
(95.61736744 -1.798981212 0)
(95.01741807 -1.637451837 0)
(94.56517723 -1.407943957 0)
(94.34817331 -1.198770222 0)
(94.12295868 -0.8756318521 0)
(94.02763385 -0.6406397695 0)
(93.96253809 -0.3838256697 0)
(93.93319894 -0.1293128726 0)
(105.962074 -0.1209922492 0)
(105.9612182 -0.3594814388 0)
(105.951332 -0.6000558319 0)
(105.9235662 -0.8214260959 0)
(105.8262635 -1.013677935 0)
(105.7357341 -1.224377867 0)
(105.5806511 -1.42181945 0)
(105.3281097 -1.588830169 0)
(104.894639 -1.736165289 0)
(104.2486012 -1.855901218 0)
(103.1294047 -1.926460716 0)
(97.80781958 -1.81965441 0)
(100.2642717 -1.983196439 0)
(98.84601504 -1.91920725 0)
(97.46235889 -1.837107588 0)
(96.34532598 -1.735523664 0)
(95.48555972 -1.61352068 0)
(94.86368226 -1.469947427 0)
(94.38918671 -1.266594436 0)
(94.15135628 -1.079969592 0)
(93.91108915 -0.7911799196 0)
(93.80655399 -0.5795272354 0)
(93.73579696 -0.3473866253 0)
(93.7039915 -0.1172135185 0)
(106.1802496 -0.1131485832 0)
(106.1772316 -0.3356770004 0)
(106.1622888 -0.5598714053 0)
(106.1267922 -0.7654977694 0)
(106.0251186 -0.9422954483 0)
(105.9209482 -1.135608876 0)
(105.7459633 -1.315042178 0)
(105.472433 -1.464982664 0)
(105.0124551 -1.596633645 0)
(104.340586 -1.702877151 0)
(103.1193602 -1.758016038 0)
(98.07621561 -1.676238894 0)
(100.2173899 -1.801742071 0)
(98.77877835 -1.738026605 0)
(97.37902162 -1.65975962 0)
(96.24516977 -1.565950363 0)
(95.36742325 -1.455376322 0)
(94.72656 -1.326461617 0)
(94.23187295 -1.144896195 0)
(93.97484874 -0.977134139 0)
(93.72014242 -0.7179182939 0)
(93.60671136 -0.5261948196 0)
(93.53047432 -0.3155710723 0)
(93.49616172 -0.1066138002 0)
(106.3843273 -0.1061682247 0)
(106.3789713 -0.3145789854 0)
(106.3588066 -0.5242391117 0)
(106.3153632 -0.7162499618 0)
(106.2087436 -0.8793139949 0)
(106.0907003 -1.057631359 0)
(105.8958705 -1.221507429 0)
(105.6023248 -1.357325888 0)
(105.1182543 -1.476282768 0)
(104.4208568 -1.571506151 0)
(103.0961292 -1.614027172 0)
(98.34926996 -1.55411381 0)
(100.1682155 -1.648156126 0)
(98.71309611 -1.584862229 0)
(97.30073669 -1.509938769 0)
(96.15324204 -1.422579445 0)
(95.26044734 -1.321363324 0)
(94.60308211 -1.204456119 0)
(94.09008146 -1.041063073 0)
(93.81544201 -0.8890343805 0)
(93.54702091 -0.6551613544 0)
(93.42513318 -0.4802581583 0)
(93.34368426 -0.2881738331 0)
(93.30688772 -0.09745529569 0)
(106.5760848 -0.1000837453 0)
(106.5682647 -0.2962650056 0)
(106.5428056 -0.4932706938 0)
(106.4913495 -0.6737467219 0)
(106.379269 -0.8247666592 0)
(106.2473292 -0.9902865673 0)
(106.032981 -1.140633335 0)
(105.7203734 -1.265099146 0)
(105.2143713 -1.37380318 0)
(104.4913702 -1.459995313 0)
(103.0631385 -1.492203455 0)
(98.61336868 -1.450756442 0)
(100.1176497 -1.519185217 0)
(98.64892548 -1.456385089 0)
(97.22671639 -1.384374131 0)
(96.0680876 -1.302378794 0)
(95.16259649 -1.208833533 0)
(94.49079022 -1.101735339 0)
(93.961157 -0.9534843021 0)
(93.67034715 -0.8144967303 0)
(93.38888861 -0.6021919902 0)
(93.25903279 -0.4412790438 0)
(93.17266818 -0.2649479293 0)
(93.13344047 -0.0896638118 0)
(106.7570619 -0.09491556796 0)
(106.7467055 -0.2807689793 0)
(106.7159469 -0.4669871614 0)
(106.656519 -0.6380261999 0)
(106.5386714 -0.7785469101 0)
(106.3929524 -0.9332526139 0)
(106.1596486 -1.072144489 0)
(105.8288013 -1.187480796 0)
(105.3026966 -1.287974182 0)
(104.5537827 -1.36680252 0)
(103.0229709 -1.390587352 0)
(98.85935138 -1.364392346 0)
(100.0663039 -1.412215328 -3.790621598e-36)
(98.5861828 -1.349945137 0)
(97.15629116 -1.280451288 0)
(95.98850537 -1.202899582 0)
(95.07219169 -1.11562378 0)
(94.38757193 -1.016553487 0)
(93.84282364 -0.880818664 0)
(93.53710678 -0.7524403974 0)
(93.24334898 -0.5583789 0)
(93.10600701 -0.4088164559 0)
(93.01502296 -0.2456483494 0)
(92.97344332 -0.08316675793 0)
(106.9297812 -0.09065278032 0)
(106.9167758 -0.2680621665 0)
(106.8806866 -0.4453406944 0)
(106.8133334 -0.6088442707 0)
(106.6888533 -0.7405039198 0)
(106.5294906 -0.8861742846 0)
(106.2781568 -1.016181187 0)
(105.9295057 -1.123584774 0)
(105.3848095 -1.217692194 0)
(104.6094992 -1.290578261 0)
(102.9775205 -1.307437827 0)
(99.08183031 -1.293597265 0)
(100.0146225 -1.325144662 0)
(98.52476212 -1.263443773 0)
(97.08887452 -1.196091735 0)
(95.91347964 -1.12217161 0)
(94.98785101 -1.039963956 0)
(94.29187652 -0.9476090132 0)
(93.73292774 -0.8220453025 0)
(93.41353 -0.7019701207 0)
(93.10761711 -0.5229944881 0)
(92.96323282 -0.3824591985 0)
(92.86786229 -0.2300207343 0)
(92.82395835 -0.07787948761 0)
(107.0930793 -0.08735191037 0)
(107.0775155 -0.2582339005 0)
(107.0361874 -0.4283377754 0)
(106.9611087 -0.586726734 0)
(106.8315756 -0.7103519712 0)
(106.6587032 -0.8487915364 0)
(106.3898189 -0.9725554653 0)
(106.024385 -1.072759309 0)
(105.4620856 -1.162019603 0)
(104.6597163 -1.230189644 0)
(102.9282787 -1.241354796 0)
(99.27857185 -1.237445679 0)
(99.96293646 -1.256333976 0)
(98.46452384 -1.195225414 0)
(97.02391657 -1.129640232 0)
(95.84209649 -1.058602744 0)
(94.90833532 -0.9803528826 0)
(94.2022869 -0.8931045928 0)
(93.62966815 -0.7758992467 0)
(93.29752805 -0.6620199446 0)
(92.98144651 -0.4960149114 0)
(92.83047126 -0.3618590615 0)
(92.73098258 -0.2179356132 0)
(92.68492674 -0.07378386368 0)
(107.2595201 -0.08483722774 0)
(107.2408634 -0.2509910595 0)
(107.1939447 -0.4157843735 0)
(107.1099703 -0.5688813748 0)
(106.9693064 -0.688145859 0)
(106.7821566 -0.8212389592 0)
(106.4960787 -0.9403196554 0)
(106.1148379 -1.034541521 0)
(105.5356802 -1.120201846 0)
(104.7054828 -1.184739855 0)
(102.8765151 -1.191327677 0)
(99.44970741 -1.195500202 0)
(99.91145483 -1.20459076 0)
(98.40529262 -1.144029695 0)
(96.96089759 -1.079821358 0)
(95.77352005 -1.010963005 0)
(94.83246862 -0.9356557742 0)
(94.11694824 -0.8519963725 0)
(93.53175018 -0.7413447884 0)
(93.18745547 -0.6327449181 0)
(92.85634656 -0.4748571032 0)
(92.69824907 -0.3466227436 0)
(92.59454336 -0.2089962448 0)
(92.54596531 -0.0706814578 0)
(107.388945 -0.08368242282 0)
(107.3684273 -0.2472644938 0)
(107.3172643 -0.4088267254 0)
(107.228296 -0.5623436326 0)
(107.1004832 -0.6731487829 0)
(106.9010318 -0.8028496709 0)
(106.5982536 -0.9190590194 0)
(106.2020862 -1.008402103 0)
(105.6065963 -1.091550162 0)
(104.7477931 -1.153442099 0)
(102.8235179 -1.156708389 0)
(99.5969579 -1.167587685 0)
(99.86023772 -1.169037303 0)
(98.34683614 -1.108907503 0)
(96.89930451 -1.045672597 0)
(95.70697472 -0.9783303447 0)
(94.75922532 -0.9050556723 0)
(94.03478102 -0.82383576 0)
(93.43778149 -0.7179532312 0)
(93.08209178 -0.6131381565 0)
(92.75686558 -0.4649186491 0)
(92.59458816 -0.3374879757 0)
(92.48773441 -0.203919496 0)
(92.43772723 -0.06904562273 0)
(107.6401558 -0.08227039925 0)
(107.6152877 -0.244213406 0)
(107.5555784 -0.4035458893 0)
(107.4500244 -0.5509623955 0)
(107.2236897 -0.6666732337 0)
(107.0109325 -0.7940842773 0)
(106.6932922 -0.9088094581 0)
(106.2870888 -0.9940187556 0)
(105.6755832 -1.075381809 0)
(104.7876014 -1.135465861 0)
(102.7710299 -1.137052563 0)
(99.72267621 -1.153714498 0)