/*--------------------------------*- C++ -*----------------------------------*\
| =========                 |                                                 |
| \\      /  F ield         | OpenFOAM: The Open Source CFD Toolbox           |
|  \\    /   O peration     | Version:  v1912                                 |
|   \\  /    A nd           | Website:  www.openfoam.com                      |
|    \\/     M anipulation  |                                                 |
\*---------------------------------------------------------------------------*/
FoamFile
{
    version     2.0;
    format      ascii;
    class       volScalarField;
    location    "2.91";
    object      k;
}
// * * * * * * * * * * * * * * * * * * * * * * * * * * * * * * * * * * * * * //

dimensions      [0 2 -2 0 0 0 0];


internalField   nonuniform List<scalar> 
12556
(
36.90870631
36.90876456
36.90887682
36.90907049
36.9544249
36.95508704
36.95626682
36.95893462
36.96413765
36.9729199
36.98487051
36.99862907
37.00458017
37.00379519
36.99468116
36.98257999
36.97165468
36.96360957
36.95908435
36.9563825
36.91023506
36.90920692
36.90871319
36.90842241
36.72745622
36.72766092
36.72790413
36.72842876
36.77436251
36.77784577
36.78497394
36.81786408
36.84245225
36.88401884
36.94290224
37.00338972
37.02806614
37.02691973
36.99739844
36.94202636
36.8870853
36.84695715
36.80070073
36.78527448
36.73277924
36.72968034
36.72815473
36.727356
36.54743771
36.54798862
36.54881996
36.55052668
36.59760734
36.60655941
36.62392508
36.67407477
36.73459209
36.83456833
36.95410274
37.0493376
37.09414938
37.09111753
37.04188191
36.94887719
36.83356421
36.74190579
36.65875103
36.62394568
36.56166623
36.55413906
36.55064652
36.54923063
36.36873887
36.36937103
36.37078062
36.37438474
36.4247715
36.44367786
36.48288452
36.56539691
36.6933376
36.86550134
37.0436676
37.18616789
37.25751307
37.24683164
37.16316103
37.02092866
36.85271501
36.69160114
36.54796281
36.48029125
36.3972872
36.38361823
36.37684139
36.37419094
36.19199916
36.19307891
36.19598403
36.20358663
36.25921983
36.29383685
36.36892962
36.50648964
36.72130411
36.97557986
37.24976039
37.4894078
37.62044357
37.59312905
37.43515666
37.19509359
36.94051601
36.70941694
36.48466624
36.36039883
36.24440551
36.21808374
36.20598536
36.20126792
36.01676418
36.01839302
36.02335961
36.03628293
36.10290585
36.16229446
36.29363639
36.50720917
36.80441767
37.17931994
37.63766033
38.13952666
38.46731074
38.36559908
37.96962921
37.53338013
37.12420436
36.78264627
36.47575228
36.26952911
36.10365968
36.05722177
36.03713665
36.02923237
35.84427223
35.84722671
35.85605336
35.87764511
35.95840571
36.05142721
36.25847494
36.54477516
36.94919023
37.49953809
38.30668872
39.62956727
40.3936141
40.22111644
38.95104772
38.0908226
37.42103001
36.91739167
36.4996251
36.21213869
35.97432293
35.90144624
35.86987527
35.85751569
35.67543978
35.67999832
35.69360216
35.72776758
35.82624894
35.96440627
36.25949103
36.61339566
37.14264284
37.91444732
39.24978843
42.22415699
43.17547317
40.53430025
38.8858373
37.82857925
37.10941784
36.55368591
36.1821555
35.85902123
35.75189535
35.70509551
35.68698454
35.51318144
35.52052974
35.54155215
35.59233943
35.70809793
35.90181713
36.28115712
36.70822567
37.36499954
38.34978905
40.14468944
44.59525075
48.0807871
42.47248646
39.83687742
38.31398177
37.34186024
36.62885723
36.17343096
35.75758497
35.61085528
35.54560312
35.52054328
35.35900075
35.36930064
35.39816711
35.46707981
35.6075284
35.86133271
36.31760903
36.81973966
37.59173781
38.74402769
40.814241
45.729309
51.45614649
44.23416546
40.78216651
38.80782189
37.58515364
36.71599129
36.17803717
35.6714322
35.48171841
35.39558887
35.36246337
35.21601312
35.23064412
35.27018972
35.36200902
35.52443892
35.83927471
36.36487277
36.94057265
37.81153817
39.09371008
41.36042808
46.12650764
53.1079654
45.54124678
41.57061955
39.24469246
37.81374047
36.80326076
36.18760013
35.59934604
35.3670476
35.25916461
35.21720753
35.08408742
35.10262403
35.15186277
35.26578918
35.45662285
35.832571
36.42035412
37.06473552
38.02239129
39.41608993
41.87085287
45.82844971
53.81098204
46.38520872
42.14697572
39.58736978
38.00656146
36.88116397
36.19816717
35.54188583
35.26750483
35.13849419
35.08745764
34.96460994
34.98834207
35.05135413
35.19092623
35.40063117
35.83158322
36.47747546
37.18951975
38.22168963
39.72135476
42.41357944
45.27819093
44.70382188
53.61949177
46.84589532
42.50947473
39.81213147
38.15008744
36.94241526
36.20592669
35.49212857
35.18228508
35.03317862
34.97361641
34.8551664
34.88378264
34.95932887
35.12067056
35.36773871
35.85952175
36.57610775
37.33498079
38.44085969
40.06495897
43.01936343
43.75874419
55.04713403
53.58181954
47.00674144
42.64456166
39.9334112
38.24652106
36.98540739
36.20705147
35.44435764
35.10722277
34.94029934
34.87316099
34.75453015
34.78793009
34.87531611
35.05756592
35.33074094
35.86973835
36.64439911
37.47732937
38.67454382
40.40853091
43.41789529
39.76005874
55.39375248
52.90778662
46.77151767
42.58971098
39.95552136
38.29793222
37.00444596
36.19610229
35.3960867
35.03759433
34.85571893
34.78229211
34.65893889
34.69695121
34.79520193
34.99745167
35.29567276
35.87315911
36.69888288
37.63319368
38.97405697
40.87752681
43.72959177
34.12742487
53.56009828
51.50972978
46.14516663
42.35960828
39.90323261
38.29997196
36.99770409
36.16518392
35.33981883
34.96653211
34.77420771
34.69575377
34.56698984
34.60926085
34.71695171
34.93717929
35.25810343
35.8668698
36.73123794
37.75521451
39.30661341
41.43580234
43.39968133
26.7123362
52.31208303
49.77534822
45.22363786
42.00322304
39.82092998
38.26607559
36.95991406
36.11361044
35.2748916
34.89279632
34.69200995
34.60952883
34.4744796
34.52065389
34.63666393
34.87324571
35.21470295
35.84652909
36.73897698
37.80553619
39.52305761
41.8072596
41.50167189
27.69609155
50.94838344
48.10256429
44.34190576
41.64654492
39.68008648
38.17882371
36.88107533
36.03621427
35.19479373
34.80877598
34.60463645
34.51931714
34.38183229
34.4314502
34.55442711
34.80479608
35.16324641
35.81189998
36.72641104
37.81783444
39.55823554
41.73506251
37.67967442
34.95098238
49.61118016
46.87299621
43.73845931
41.34007299
39.48569066
38.04427443
36.77269279
35.93811538
35.10195847
34.71607537
34.51059628
34.42390601
34.28493527
34.33763299
34.46684229
34.72962238
35.10283929
35.76344577
36.69179033
37.80183138
39.53669225
41.36450767
35.09957643
36.88028573
48.4205355
46.10283271
43.26335816
41.02285468
39.26434228
37.87982773
36.64222985
35.8224758
34.99631681
34.6130609
34.40777572
34.32041545
34.1868216
34.24216594
34.37657314
34.64921512
35.03349493
35.70256802
36.64031404
37.7622874
39.46954999
40.89731578
32.50264781
37.40111229
47.32816649
45.40753009
42.8185527
40.7086578
39.03117317
37.69754796
36.49553622
35.69273663
34.88056673
34.50222547
34.29830125
34.21083386
34.08260754
34.14036268
34.27977029
34.56174289
34.9560025
35.63110302
36.57531543
37.70434432
39.36238508
40.35908647
29.94092423
37.50065546
46.32603677
44.76753277
42.40270943
40.4042063
38.79474738
37.50553394
36.33728015
35.55222394
34.754892
34.38199933
34.17986423
34.09263625
33.97842715
34.03826503
34.18188914
34.47079571
34.87137092
35.55094523
36.49977642
37.63147744
39.21850278
39.76458418
27.51428996
37.23833649
45.4061413
44.17486236
42.01198831
40.1121046
38.55998802
37.30907819
36.17138889
35.40381243
34.62331435
34.2570853
34.05719036
33.97044799
33.86697364
33.9288413
34.0769495
34.37338465
34.78090968
35.46390687
36.41622986
37.54614453
39.03909771
39.13131937
25.27873069
36.80034554
44.56336635
43.62312978
41.64287077
39.83246418
38.32958162
37.11152404
36.00094358
35.24993409
34.48450149
34.1240744
33.92621084
33.84002939
33.75846654
33.82211264
33.97395667
34.27535228
34.68569066
35.37161266
36.32666077
37.44955891
38.82548725
38.46971383
23.32443997
36.30297694
43.78721254
43.10681582
41.29263538
39.56436884
38.10482178
36.91501324
35.82821197
35.09245715
34.34392093
33.99038369
33.79477554
33.70922708
33.64089007
33.7064214
33.86262537
34.1707926
34.58694767
35.2754272
36.23241877
37.34173176
38.5829318
37.78915882
21.64639439
35.78329365
43.06584492
42.62092368
40.9589899
39.3066942
37.88613016
36.72081854
35.65477179
34.93289729
34.19719489
33.84861243
33.65472381
33.56974033
33.53073826
33.59790734
33.75756183
34.06920399
34.48537667
35.1764136
36.13423718
37.22225504
38.31486628
37.09916564
20.28891596
35.24978297
42.3905519
42.16133308
40.64003138
39.05844732
37.67351108
36.5296734
35.48172927
34.7722886
34.05294153
33.71104914
33.51915417
33.43473943
33.40792667
33.47697454
33.64100713
33.95933651
34.38200548
35.07535523
36.03236103
37.09100284
38.02730077
36.40345111
19.18403475
34.71770126
41.7538732
41.72469974
40.3340847
38.8187108
37.46672701
36.34193291
35.30980592
34.61155534
33.90129783
33.56297632
33.3723521
33.2883794
33.29916779
33.36977918
33.53700977
33.85746276
34.27704576
34.97281144
35.92677919
36.94844171
37.72658316
35.70471721
18.27309233
34.19536521
41.15128061
41.30829387
40.03970556
38.58667403
37.26546454
36.15775427
35.13948844
34.45113253
33.75767716
33.42595895
33.2370291
33.15348634
33.17103609
33.24359376
33.41524635
33.74273955
34.17151442
34.86918546
35.81738014
36.79546563
37.41550246
35.00833992
17.52037963
33.68942947
40.5797478
40.90979338
39.75560106
38.36158116
37.06935464
35.97714483
34.97108358
34.29168429
33.60177481
33.27199472
33.08394481
33.00069702
33.06715447
33.14120158
33.31579946
33.64414453
34.06511625
34.76475174
35.70413232
36.63313004
37.09518475
34.31893128
16.90865876
33.20284588
40.03573724
40.52725532
39.480658
38.14275551
36.87802176
35.80004164
34.80479395
34.13320719
33.46324839
33.14020898
32.9535445
32.87058004
32.93219602
33.0083133
33.18736885
33.52324059
33.95916781
34.65974729
35.58717582
36.46245724
36.76712495
33.63783029
16.42097445
32.73469243
39.51684714
40.159063
39.21398049
37.92962505
36.69110863
35.62631362
34.64075393
33.97642414
33.30088694
32.97826157
32.79226343
32.709465
32.83760969
32.91509734
33.09685792
33.43277412
33.85273355
34.55439167
35.4667744
36.2846123
36.43319192
32.96702517
16.00253069
32.28469467
39.02128654
39.80407444
38.95487987
37.72169716
36.50825946
35.45577014
34.4791271
33.82092449
33.17399861
32.85791794
32.67290425
32.59026824
32.69254986
32.77228926
32.95857249
33.3016428
33.74810782
34.44916942
35.34345237
36.10063711
36.0950101
32.30991831
15.62896422
31.85488493
38.54871088
39.46174411
38.70295197
37.51861342
36.32919262
35.28831664
34.32035905
33.6681853
32.99822791
32.68253579
32.49823644
32.41567077
32.61246148
32.69342587
32.88211695
33.22663524
33.64386314
34.34496698
35.21860787
35.91164784
35.7541787
31.67052457
15.32059752
31.44841557
38.09942247
39.13192919
38.4579693
37.32007783
36.15364231
35.1237549
34.16582441
33.51826736
32.89476041
32.5824307
32.39859562
32.31607523
32.42822748
32.51211424
32.70647598
33.05875108
33.54538669
34.24396348
35.0962835
35.71947215
35.41522761
31.055058
15.08585078
31.0697791
37.67737449
38.81708356
38.22077959
37.126314
35.98166407
34.96209312
34.01995006
33.37712794
32.66804599
32.35719035
32.1741499
32.09163347
44.40330174
48.65391546
43.57867759
45.62170583
52.38335119
49.11815957
46.13030327
54.09379552
52.69019728
45.88561052
54.77301479
54.20736595
45.31646372
40.75554795
43.74038341
55.06246405
54.81344474
44.28692124
50.36727288
41.05041601
54.58710813
55.51723779
55.08431634
41.81877666
40.35825914
43.06982431
40.11883249
52.85829661
45.38820646
47.53790037
42.93373168
41.13748881
40.66338142
44.57470082
43.59668444
56.41428849
58.83799101
51.14686643
45.12413345
43.52082865
41.23254368
45.31201007
44.69001854
45.99033875
48.15357715
49.15343696
54.89901337
54.41084926
52.97452103
46.71247
45.57796937
41.7575836
45.49498156
45.36422448
46.05970988
44.34612327
46.43691484
56.51348505
55.5510222
42.29065873
45.3690418
45.49411299
45.6008037
39.33024495
41.8911078
40.044128
57.47704133
57.22451037
42.90688697
44.85737651
45.33337841
44.95135292
32.76832013
35.85034687
42.66595429
52.69336689
50.77711268
49.07347931
51.14511163
44.4630345
48.61039952
58.76384256
53.20930977
46.46474081
52.10263537
57.38109916
49.27365956
49.96578597
45.21434053
50.72355778
49.37304808
51.30461192
50.87220787
54.5141636
56.16935526
50.95058619
57.39095371
56.23981888
57.58118547
57.51654015
50.69838203
46.63655317
47.98242904
46.05285765
47.61380648
45.68645105
49.28567362
47.73281801
55.37146569
54.9918833
53.62691107
56.7620877
57.01330934
56.1781399
56.71770387
53.43766849
42.03275561
44.21610206
46.02368896
43.19674173
40.53889109
45.55705818
43.34361782
57.17380507
56.61940676
36.01594591
39.14326921
45.56952549
42.04993957
37.06825506
33.56361009
40.38723169
37.29429935
43.51985467
57.69830674
57.51099738
39.75903929
40.06395489
32.7044407
44.9012631
46.88500678
31.96107545
81.14515125
33.46470475
31.98193783
46.1614135
39.94448148
43.41369992
41.5080761
43.34925666
47.47368587
43.99673785
65.63300193
48.84225508
45.09267285
50.03531526
49.7738166
52.77718412
53.7697426
47.71816478
47.00827757
62.63890697
48.30333139
46.628811
50.40547315
57.99473403
57.7888116
49.5946383
47.83109295
43.65899965
57.49841628
46.85511021
55.29219889
44.96313581
51.055
45.81090233
46.15431071
42.40002612
54.56967663
57.29654498
57.40974312
57.04558963
57.27494233
54.50065472
39.3040861
54.64717239
42.82267352
42.1572802
41.66063108
43.92838522
44.7551195
42.11959848
42.15309836
70.92497686
49.63046629
65.34237151
47.70230647
61.35602655
48.72172862
58.21723307
58.38122888
54.565668
54.53473027
41.22839616
48.44466609
56.14142357
41.82582587
41.64162743
50.69798386
42.17359236
56.01348842
40.72585969
45.12890853
44.75776928
51.5594111
49.25209576
55.17335854
34.81178297
42.80151135
42.26779612
43.4775958
42.99295084
34.95357897
62.23355301
58.01220807
50.12619033
58.42689379
59.48277946
53.61471475
58.05822892
50.40729768
46.37968806
52.74011009
46.16078364
58.60467093
53.59069641
47.03075128
56.09940016
62.06384339
56.87748212
56.47761871
50.08954813
45.77968906
50.004065
51.32619044
49.45862037
53.01136013
46.20697834
48.99520635
51.23843612
55.46693149
55.61258278
56.85109436
55.2302181
54.62661217
55.81295761
55.39423051
56.75960684
58.20154223
53.24196469
52.1586106
54.39268248
53.55906099
58.18139655
46.73804806
46.61372661
48.61394847
48.51609446
55.57522113
51.5256968
55.49941897
42.14577246
41.96369164
44.51613909
44.36601834
41.91693882
45.29127397
56.89768006
41.85547887
41.07934574
37.93494254
44.08668421
43.63665419
44.62854556
44.22745413
38.09810272
39.30919524
36.11603046
35.95995168
39.31973948
39.16827703
64.24098789
39.60231154
53.88018834
52.22517193
42.06166193
41.55373854
32.1800213
32.7668117
41.26275529
43.76044187
32.98420894
79.29621871
44.7845866
69.9328418
32.9057437
43.66157707
50.58959588
41.22719359
65.31339746
40.17340875
41.20897223
43.32794738
44.3116333
44.74658077
43.18937321
35.55507328
41.67659164
55.88591856
54.82409249
55.42043762
56.46888844
42.00824846
47.52497567
55.42778501
54.33603658
39.94519806
58.11871219
58.05267998
51.02363467
43.84253417
43.46734127
46.34531313
47.71941586
43.71403959
43.9715704
57.2656976
60.64991725
59.16463765
58.80910169
54.6726738
44.68086932
44.73824621
49.02844037
48.53825069
54.25157304
45.27914685
46.74738804
46.48293018
47.07213579
46.83171253
45.43168507
45.58674881
45.24575374
40.87427399
33.25719237
39.06980918
38.61375801
73.9434589
55.11024107
51.11462218
58.20800031
62.35359808
61.0313066
54.77959982
49.91770197
48.35628144
51.75114794
50.4066632
55.16589633
54.87861867
49.94500891
49.35759462
55.75962079
47.24248748
47.34704949
47.14636175
41.74838758
42.29637512
46.09154976
44.8683867
44.99208642
55.19511387
56.87941148
56.51427711
56.4444152
56.1494897
56.19009982
55.92140923
56.41216855
56.25485804
56.15996935
43.13838133
46.00568867
45.69487918
46.39114135
46.10513155
43.28495168
42.75689003
36.92435133
37.29265985
33.78129682
34.07702003
41.05720206
45.12302745
40.86503674
41.59737531
37.43871194
37.85258241
43.78202827
56.97036734
45.94628629
50.47614828
68.59895153
40.00318066
36.61239972
34.65252207
39.9344156
33.45914555
33.70775334
32.92439825
38.34359368
56.08376544
38.1968531
40.1322422
39.25512255
38.46540875
38.03022362
32.54493594
40.95055768
40.73525471
48.95937347
31.88474534
94.99344592
43.32508683
41.21272795
45.27623151
33.27449951
32.11324206
58.55992983
57.88684443
57.32741271
52.64562769
52.4142335
39.83670963
40.0249506
63.06408005
55.29603414
55.18004003
50.20188019
61.7586294
50.26150489
62.24110249
51.2633965
46.84782137
41.84932136
43.91659294
51.98956446
58.4984409
53.11702753
43.48103729
39.49851869
55.90101666
68.84915629
43.7126278
52.51685812
75.74764019
40.07633384
42.28681631
39.45922446
39.81860724
67.67776325
71.2712493
57.6200677
53.55966553
61.7962879
58.50107239
52.77557389
49.41701489
55.5182014
56.59178706
55.88501873
57.59455652
58.71913427
58.72974105
57.17597095
45.98018394
44.97147508
54.61129966
48.87420718
48.56264133
45.51604822
48.36302002
48.39698297
54.30027613
48.29171305
46.4040888
42.36153786
43.15792639
41.33452914
50.42401016
49.35053824
45.05868746
47.11034957
45.58727826
48.92822639
47.66033013
43.98417229
44.6300956
40.47248123
39.89021734
39.71261739
39.20624603
33.7502178
35.33950848
40.27584911
39.85514551
60.67657659
60.04964853
59.6230546
53.55453224
54.1998722
52.41878189
53.30026489
59.94964268
56.33204564
54.56121433
54.39740582
54.35713599
54.56670736
56.64322531
56.83804456
51.04055717
52.11934615
60.2549561
60.75558926
62.30044674
61.59085628
57.90960248
63.41370157
64.51085712
64.30475733
63.60057387
62.82189562
64.87155667
63.40504683
55.10815961
61.32212446
62.41336189
44.24416851
50.20495159
49.24526833
51.10625425
50.46419931
44.88986257
47.91792806
47.26112324
48.9115662
48.14415649
50.877905
53.56205161
52.97593361
54.25997041
53.74863542
51.38509496
47.32289039
51.95413712
51.32279767
52.77482085
52.16166595
47.72812723
50.86566345
50.06154849
55.02032391
55.77225677
52.47877536
51.25035828
41.19368377
40.66063429
42.11872206
41.3805922
39.81054612
39.28888974
40.49168987
39.96640701
46.21470742
45.59867968
47.04946744
46.42584874
44.37129601
42.60359619
45.37468098
44.7576491
43.60737334
43.33503337
45.16469441
43.94056012
51.47987336
43.78911886
44.96084235
43.25338959
43.46662507
36.43373454
36.77847872
42.60888319
34.33836711
34.10313718
34.68156308
34.43626145
33.96585737
41.2793964
34.2317793
36.03970572
38.76670504
40.58437002
44.97659727
38.34703104
35.75771536
39.183807
38.3799511
35.09635282
34.79246027
35.57283477
35.21290872
43.92744806
38.00051141
38.49763484
58.45419288
41.10795589
57.20105945
51.09095755
56.80335613
41.00653065
71.67114143
39.69916662
68.47782013
59.6975269
36.47999795
35.31782979
33.15506672
33.39032219
39.78363901
38.61079341
32.92311999
33.10305194
63.87374376
32.47722627
37.82496304
37.0894781
79.6971206
85.85780391
31.82590918
89.9469035
72.03522214
41.91081299
33.20343489
78.72381137
50.44113052
88.58103669
53.66799343
32.25101079
42.70378461
40.5821846
39.20762896
61.60266335
61.08121816
54.24382058
48.27801866
47.89012992
61.73452868
39.75982867
42.28875347
40.05682892
57.42074036
57.49194178
54.94629826
46.32704724
45.5270759
49.49712846
55.81896023
46.15017585
46.34457236
41.55167893
41.91432839
44.47976499
51.37652054
55.50472862
58.49789282
48.61954474
47.68784989
47.59753108
47.72674677
47.7075932
48.76101865
42.34040855
40.88756915
42.53471879
51.22483389
53.05888161
57.37360747
40.81101869
40.40823493
35.46378018
59.35244682
61.11205567
54.68585728
47.55676103
47.40585141
47.43454471
47.2403256
43.95072873
44.63883148
44.9750547
46.00807316
48.08881676
36.91868057
41.3654438
40.94352731
51.88385659
48.7940586
41.1226634
32.4460508
32.49258487
33.73000739
46.1415708
65.25347473
57.6806855
39.41204027
45.0818834
42.85500478
31.93205608
33.39763071
32.38099328
32.41618468
32.0115362
66.29722214
52.37025533
44.13727129
46.31123911
61.57927414
40.18892149
40.12868951
48.71684119
56.68426924
47.81352677
46.13237715
48.39655445
44.49865646
41.14323246
40.29019365
72.41952204
75.57566265
77.06927008
64.76874761
74.09392227
43.32747133
43.67107868
46.92821774
67.47965297
62.20273074
59.40691821
70.70248636
67.53654105
41.45680215
45.80598777
44.42762968
54.23047983
53.52724983
45.31632549
51.70138886
50.78669169
41.32280795
51.16813589
42.515067
42.85144894
49.68142049
41.22367181
42.27791772
61.89030328
62.70862117
58.73058115
58.84879473
57.56695248
57.40444086
54.2491548
55.40533154
54.98138375
57.2136602
56.97356463
57.57482249
49.38395966
50.68448183
56.26241657
57.76284418
63.94952665
59.89797613
64.01508497
64.39037441
61.34138991
42.41365568
44.85495955
44.28357013
48.88674665
48.62751398
45.51898521
41.96510312
41.69873006
43.80182228
43.4160721
49.92507529
52.36795653
52.0045709
54.58850186
54.21260212
52.44669279
46.53234549
49.55795391
49.25195496
51.63905692
51.28243635
48.56244102
43.20341265
43.75902854
47.11940439
46.2193165
42.47220362
43.02221295
47.02640591
47.57324627
48.91149733
40.16917468
40.00616733
41.46869479
41.2593656
37.58941111
39.76635757
39.63167885
48.19555737
46.26294718
46.83687418
50.74141259
50.29694703
43.44602148
43.97411332
51.18099106
50.1350438
50.50505493
55.26995497
45.117516
46.35250246
41.89224577
41.50058412
37.27752632
38.53300985
42.36280634
42.00947908
33.91833422
33.9875753
36.23021985
35.83032259
33.72831213
33.82407745
64.39947651
32.21232791
33.53716265
32.6801476
109.8307946
32.14942511
41.66770891
66.82603559
59.41653914
32.07708036
32.11510368
33.05689214
77.29804539
83.58145349
80.74367182
63.3911386
32.79748548
31.99913638
32.03481819
44.22666156
39.70410842
39.49078705
61.44328697
60.42452813
48.27955657
46.39248685
40.7209391
57.97950273
59.72061082
62.27905542
43.48538823
59.47316636
53.02506256
59.8315857
58.43995378
45.25437718
45.13364262
45.94673543
51.23409912
54.30475919
54.73209563
53.63772376
53.95453373
60.20849696
59.52309275
59.86661363
58.78588216
59.13531718
59.6636763
48.90464495
47.26699975
47.57435014
46.81419385
47.01842645
48.92502428
61.7884189
60.73841218
60.77862239
60.22293932
60.5178054
61.4012378
49.5603354
48.51709858
48.86172825
47.87107799
48.19642255
49.40281067
52.91958347
53.02173825
52.13711611
52.2977038
37.02528192
39.51797341
39.37927221
33.87308081
35.97747489
35.85728954
36.34917792
36.11969217
33.96212311
65.47711626
67.02156171
58.70238263
66.67339115
32.8980971
32.84238796
33.0378106
32.97699962
32.46881604
34.05764647
32.55343095
32.69886786
33.54971611
35.55794398
35.44944455
35.757453
35.65446329
33.62237338
33.180867
33.09788771
34.19910098
33.34756295
32.93653155
66.84528587
64.28969649
49.70690943
66.98469824
35.04072987
33.98821839
38.90406285
32.60441399
34.52531752
34.3851385
31.89536721
93.8880269
94.86659357
63.41173753
87.00696251
77.49016681
32.27728169
32.33806104
33.34238723
32.05803496
63.11047297
69.25766493
63.4500764
66.09934112
61.30941443
52.29915156
67.77264663
62.26505221
53.24351735
52.68528594
63.13415859
48.87308975
54.17554591
56.27409495
53.18374955
58.56477249
52.62684593
56.05093353
63.55260531
65.08643166
57.08264248
62.26743826
66.38101844
58.15390607
59.75590097
57.16582957
62.01392783
71.88198485
71.63716015
69.99626563
45.85872209
62.78361509
56.12647043
70.34392319
72.13064138
49.18873817
53.30351128
58.47415621
74.25557175
61.47111945
46.81076625
49.30502801
66.53362691
62.68350142
66.97745232
60.54373739
63.60108366
66.49086801
68.11481548
67.40443285
55.99760123
56.44834121
56.7982216
55.51949043
55.75075412
55.63829327
58.15840932
58.0338867
58.38338801
57.26395646
57.60456546
57.68622677
45.63830541
47.4094017
47.3973417
48.67520672
48.66261901
46.68669318
49.40350879
49.13586884
48.42550072
48.69114635
49.17695581
47.43371027
46.87849103
46.77291416
47.30382668
47.11663646
46.81004611
53.97256391
49.2377099
41.72220523
55.73110718
55.63135891
55.2514946
44.10749642
53.89860442
53.30598026
42.04054026
42.2133691
47.55245347
61.33866811
59.3309054
56.27148737
55.8507552
54.85962605
57.22650921
56.7700044
56.48107538
65.22108807
64.92136391
59.24316034
65.67580902
67.87614836
61.20964082
64.97569154
65.18501809
62.0968766
60.74899422
60.68553494
60.71795498
60.74791474
61.83679405
63.84577615
64.11278571
63.49905617
66.96041813
66.83008296
66.91122512
66.99893451
63.3513219
65.11260572
66.25131212
68.18628352
65.20427239
47.37678715
47.20186755
44.21030954
45.06000018
48.21275894
48.03026001
42.50593995
42.2237864
43.09347381
42.78905312
53.09935976
52.73031959
50.38207357
51.91046756
53.84190745
53.47025833
50.23898796
49.91302125
46.96082442
48.12089287
50.92500128
50.58472911
50.71644973
49.91538522
50.28678004
49.19679665
49.56010639
50.28617818
51.93498966
51.30002942
51.59927783
50.65269321
50.99945973
51.65722146
41.01003145
37.84647921
38.01622555
37.54036139
37.69678862
40.83633718
41.81210677
38.57726541
38.82835675
38.184016
38.3727117
41.58299746
39.62394052
36.64663183
36.80770485
36.38044286
36.53879197
39.4875689
40.31497631
37.23751864
37.39529757
36.93277982
37.09798642
40.14924249
40.58957826
40.40325452
46.01100737
43.74582957
43.95211368
43.32115817
43.50925169
45.79626089
41.02403321
40.8205944
38.89218287
38.80470525
44.07660002
41.86299593
41.93645369
39.19876149
39.70847061
43.30672717
45.18952321
42.91163369
43.06705059
42.4957933
42.60676028
44.93394849
39.3699339
39.26950636
50.0106213
49.84654447
51.06507813
44.93338935
46.99707339
44.13196894
49.59518028
49.97475611
49.27257782
49.46996891
44.54908392
43.21691467
46.79083975
45.02229721
49.2531568
49.40279146
43.25517566
36.50229975
38.89285022
38.75842559
39.21554638
39.08803113
36.69636004
34.27731363
34.15943975
34.60308345
34.49762382
33.89780715
33.66902937
34.49758757
37.45264108
36.76535682
38.44028049
38.15541098
35.88329378
36.50855757
34.83513159
35.65363255
36.05135951
38.94066788
36.11684148
36.29370066
35.80572991
36.04022024
38.86119784
34.99759517
34.88299438
35.44334773
35.31961964
56.09913445
43.64449819
44.83289937
41.56821977
42.53320078
56.96252633
55.56363914
54.84891809
46.3916838
50.26889254
57.3817436
67.15781842
49.6530954
52.90734956
44.00952088
46.81305979
68.70066847
32.67485781
32.61755406
32.78214511
32.73852723
33.2481799
33.56989288
35.57238103
32.40702647
32.37643168
32.54966987
32.48942982
33.24032957
35.14706837
35.02259837
35.35252162
35.23756465
33.30121723
32.9887948
34.71826368
34.47574413
34.94406776
34.79481478
33.0304136
62.8198594
34.2604235
34.00043068
32.32704295
78.09225081
100.6161765
104.6818739
100.7227143
100.988968
82.48228827
31.97191308
81.94907379
62.30333112
66.39927789
33.12601459
32.1534892
32.21714332
78.40684031
86.01706176
84.29790709
71.07114079
77.00240647
90.57367556
86.73307168
58.3773729
82.62433684
73.35816232
32.15452401
31.96527025
32.54099028
36.70741217
36.74206429
36.8345603
36.7566023
36.81558781
36.87130045
36.83799229
36.9198353
36.92617003
36.94458607
37.01345799
36.98710232
37.03096191
37.06683518
37.02442694
37.07125018
37.072972
37.02938789
37.06919499
37.04047114
37.01043233
37.02583216
36.96515434
36.95831394
36.94218745
36.86308404
36.90018811
36.84040064
36.77909073
36.8559235
36.58852618
36.66251522
36.71646923
36.69487527
36.8107519
36.80591612
36.85107921
36.97342852
36.92565694
37.01230284
37.11404806
37.02992862
37.14052252
37.19492166
37.08910851
37.20446037
37.20458057
37.09564204
37.19600865
37.14539754
37.0584742
37.12164785
37.03029076
36.97493387
36.99501079
36.88135313
36.86264106
36.84279985
36.73007379
36.76024225
36.51615413
36.65706559
36.65395791
36.70932538
36.87932494
36.82088766
36.9394924
37.12395181
37.00060614
37.18416576
37.34817673
37.15637899
37.39280864
37.48880022
37.24635935
37.50464488
37.50695003
37.25554047
37.48549637
37.3869281
37.19113599
37.3463301
37.19584637
37.06014017
37.13927266
36.96666662
36.89566446
36.91034789
36.7511127
36.73052188
36.50304947
36.70266175
36.66317773
36.77720384
37.02617111
36.90882815
37.11778115
37.41561158
37.18162863
37.51950709
37.83724256
37.43593917
37.93066992
38.15476825
37.6004607
38.18443692
38.17885697
37.60617418
38.10159676
37.88522461
37.48706181
37.80181162
37.52487822
37.25947116
37.42931552
37.15431621
37.00290068
37.06801423
36.83231122
36.7650689
36.53233312
36.80376797
36.7232003
36.90777264
37.26914672
37.07776098
37.40903298
37.90783911
37.51596803
38.10691277
38.84531755
38.01100738
39.12549817
40.03140154
38.41479465
40.04897028
39.81415564
38.38155581
39.45075984
38.86004947
38.07699707
38.65623733
38.09570263
37.64340845
37.92623673
37.47079621
37.22071745
37.33563381
36.98103433
36.86231642
36.59332009
36.95069153
36.83671826
37.09026813
37.59625341
37.34406244
37.80445348
38.62568971
38.06964058
39.00143811
41.16837027
39.21183859
40.37914721
40.9677182
39.92118765
41.62012241
41.64342759
40.38580764
41.03904046
40.34499363
39.85953275
40.08829399
38.96100104
38.28645127
38.66279899
37.92331838
37.57224154
37.71724132
37.19969587
37.02929474
36.68223871
37.13103916
36.99342207
37.30835603
37.96585883
37.68787225
38.24382294
39.39209643
38.82586539
39.49465821
40.08456173
39.785395
42.6221917
43.30721741
42.79994192
45.06944991
43.63667784
42.27090757
41.99066688
40.05582946
39.22329435
39.58605386
38.48222024
38.05612838
38.18844655
37.4730043
37.26415584
36.79085528
37.32483307
37.17903023
37.53552543
38.3183657
38.05640741
38.6502442
40.01575257
39.56240941
40.33030907
41.09514249
40.87694411
44.77683334
45.96110573
45.75380475
49.58837278
46.82408331
45.66187484
43.83767993
41.18030258
40.34879671
40.54306457
39.07010782
38.6316042
38.68686659
37.76788196
37.54638667
36.91029519
37.51923185
37.37357666
37.75787561
38.63882264
38.40131994
39.00979444
40.52077263
40.14980865
40.95925251
41.81446251
41.65066653
45.82703023
47.21154298
47.16306332
52.23933184
49.09759289
48.3748919
45.26845862
42.14548257
41.45173414
41.38082034
39.6028711
39.21526149
39.14227808
38.04563554
37.83828044
37.03563454
37.70926365
37.56669621
37.97141804
38.93400493
38.71414036
39.33776764
40.97803228
40.63596671
41.49536919
42.42706634
42.27047409
46.11446565
46.72207679
46.88145712
53.46367775
50.38603334
50.02767757
46.22683567