/*--------------------------------*- C++ -*----------------------------------*\
| =========                 |                                                 |
| \\      /  F ield         | OpenFOAM: The Open Source CFD Toolbox           |
|  \\    /   O peration     | Version:  v1912                                 |
|   \\  /    A nd           | Website:  www.openfoam.com                      |
|    \\/     M anipulation  |                                                 |
\*---------------------------------------------------------------------------*/
FoamFile
{
    version     2.0;
    format      ascii;
    class       volScalarField;
    location    "0.33";
    object      nut;
}
// * * * * * * * * * * * * * * * * * * * * * * * * * * * * * * * * * * * * * //

dimensions      [0 2 -1 0 0 0 0];


internalField   nonuniform List<scalar> 
12556
(
1.155894596
1.155865757
1.155834673
1.155807243
1.156028028
1.156021001
1.156026757
1.156046476
1.15608692
1.156161104
1.156275086
1.156409029
1.156523281
1.156540065
1.156474698
1.156355808
1.156232977
1.156148403
1.156080668
1.156051106
1.155824168
1.155829365
1.155851269
1.15587826
1.155163214
1.155076153
1.154986665
1.154914234
1.155114291
1.155109451
1.155154424
1.155349113
1.155542887
1.155892804
1.156430431
1.157087681
1.157691453
1.1578327
1.157554096
1.156970284
1.156363222
1.155873797
1.15545784
1.155261231
1.154941005
1.154970214
1.155034669
1.155114382
1.15439901
1.154251155
1.154102392
1.153996991
1.154204718
1.154232553
1.154352248
1.154687675
1.155177779
1.156038671
1.157361744
1.044429869
0.9418492543
0.9250971098
0.9848492369
1.121512544
1.15703653
1.155950107
1.155053851
1.154597311
1.154160286
1.154127028
1.154210284
1.154341934
1.153617578
1.153415278
1.153221562
1.15310101
1.153311508
1.153412665
1.153675555
1.15428846
1.15532982
1.157224577
0.8882325624
0.7122861071
0.6364665447
0.6377516076
0.7016031556
0.8220026619
1.020173929
1.156774268
1.155081021
1.154170061
1.153406445
1.153332224
1.153405672
1.153566242
1.152813384
1.152553864
1.152320685
1.152208558
1.152464054
1.152683748
1.15324865
1.154262436
1.156374764
0.8659156072
0.5962649714
0.4412403656
0.3790433847
0.3934776605
0.4664839629
0.5804250504
0.750379424
1.022044941
1.155777961
1.1540879
1.152872104
1.152580874
1.152603942
1.152789138
1.152010219
1.151707606
1.151452287
1.15135801
1.151677321
1.152082401
1.153074048
1.154785945
1.025904495
0.6460248023
0.3980076731
0.2467963543
0.1880057895
0.2162275944
0.2979629223
0.4109448745
0.564085465
0.7953356016
1.154541539
1.154434599
1.152483531
1.151895239
1.15181639
1.151990211
1.151198989
1.150852272
1.150585052
1.150544035
1.150968628
1.151629723
1.153205468
1.155904899
0.8654561429
0.5197926565
0.2858720242
0.125004109
0.06756672443
0.1055093064
0.1930544941
0.3026145204
0.4427819762
0.6414649703
0.9846722404
1.155313876
1.152260373
1.151258781
1.151017726
1.151154562
1.15040926
1.150038652
1.149778847
1.149792133
1.150367039
1.151353167
1.153675285
1.157359882
0.7936056672
0.4874235273
0.2745061862
0.1085528773
0.0581776939
0.1425939714
0.2442596
0.3725486192
0.550759565
0.863162001
1.156562336
1.152249982
1.150715254
1.150242141
1.150311026
1.149656082
1.149253751
1.149010421
1.149133748
1.14990662
1.151267065
1.154420448
1.158879819
0.7880680533
0.5321556954
0.3780263945
0.2841153378
0.06770272118
0.1366081202
0.225078028
0.3417604395
0.5036355587
0.792626014
1.158022332
1.152441039
1.150268471
1.149510745
1.149491846
1.148971972
1.148560398
1.148348244
1.148619497
1.14951542
1.151365692
1.155353711
1.160359971
0.8161085626
0.6070636599
0.5210360777
0.6048038824
0.09316245922
0.1524977634
0.2325585433
0.3403512359
0.48981723
0.7592822427
1.110531975
1.152859235
1.150006655
1.148914231
1.148780641
1.148351868
1.147920958
1.147757346
1.148205864
1.14922721
1.151627034
1.156412334
1.161748121
0.851075703
0.6692576346
0.617865318
0.5788932922
0.1267778824
0.1822830562
0.2585633182
0.3614576303
0.5033140652
0.7586869629
1.078479855
1.15345535
1.149921985
1.148487454
1.14823447
1.147836574
1.1474026
1.147289122
1.147894713
1.149079862
1.152009146
1.157545356
1.163035385
0.8822640692
0.7010176388
0.6273595202
0.4959760077
0.1651330048
0.2246298598
0.3027291119
0.4039833809
0.5426196755
0.7864539929
1.078654693
1.1542682
1.15008111
1.148308069
1.147924124
1.147373831
1.146937085
1.146906394
1.147701976
1.149056164
1.152454558
1.158715043
1.164156348
0.9160445055
0.7168545608
0.5839985348
0.433883834
0.07574363463
0.2136658908
0.2878185523
0.3720046223
0.4736519161
0.6149752297
0.8394421774
1.104415395
1.155151209
1.150415105
1.148335684
1.14784721
1.147028205
1.146594499
1.146637092
1.147582456
1.149221528
1.153197952
1.159847385
1.165166931
0.9703582674
0.7555097402
0.5755466992
0.2737499784
0.1411892578
0.3185681459
0.4030146215
0.4844770567
0.5785251529
0.7116703367
0.9166408739
1.153663467
1.15607689
1.150929403
1.148578078
1.147985516
1.146714467
1.146279565
1.146390758
1.147498878
1.149375994
1.153781608
1.160783749
1.16579595
1.076215586
0.8661220283
0.6794925608
0.06983846693
0.1950233838
0.4761442543
0.6238356299
0.6677622086
0.7381830606
0.8524061666
1.036692265
1.165439514
1.156949676
1.151483297
1.148936429
1.148284715
1.14649762
1.146063028
1.146228681
1.147472799
1.149555615
1.154316989
1.161547778
1.16605253
1.155632892
1.077177239
0.8341655219
0.0423038271
0.2112361988
0.4841477459
0.7420039437
0.940505317
0.9614872358
1.037997146
1.163032556
1.166214931
1.157731314
1.15207098
1.149383149
1.148687702
1.146269269
1.145826099
1.146031345
1.147417293
1.149721717
1.154764888
1.162088542
1.165954087
1.154269883
1.095479317
0.8041862975
0.04331380778
0.2083992513
0.4790587688
0.7377665503
0.9402403697
1.06872484
1.134434414
1.163776209
1.16669331
1.158347622
1.152587606
1.149812077
1.149091937
1.146114592
1.145663653
1.145890337
1.147375524
1.149844105
1.155098556
1.162369983
1.165389027
1.151809056
1.087372449
0.7761680738
0.04927466999
0.2009284223
0.4702659212
0.7345308833
0.940898747
1.069611378
1.134774769
1.163878718
1.166850971
1.158785404
1.153024342
1.150235994
1.149505597
1.145910061
1.145444422
1.145677815
1.147261008
1.149905514
1.15530516
1.162389786
1.164428907
1.147996784
1.07369848
0.7288733374
0.05031509571
0.2009867804
0.4677187787
0.7366177248
0.942491131
1.069495219
1.134384446
1.163551778
1.166729835
1.159015608
1.153315051
1.15054926
1.14982082
1.145768878
1.145295017
1.145523667
1.147155357
1.149898293
1.15538418
1.162166073
1.16310368
1.143439717
1.055694256
0.6540379209
0.04390957291
0.2107183174
0.472493591
0.7387640487
0.9430554615
1.068725572
1.133506903
1.16290292
1.166381432
1.15913366
1.153562313
1.150839156
1.150112207
1.145550468
1.145067709
1.145287437
1.146972891
1.149830587
1.155345776
1.161725503
1.161468023
1.138220858
1.035329781
0.5850204513
0.04026314728
0.2198569118
0.4765910406
0.7385729291
0.9426333632
1.067503537
1.132308938
1.162020222
1.165863135
1.159091918
1.153669893
1.150998904
1.150275159
1.145399263
1.144919265
1.145131067
1.146829693
1.149715789
1.155210124
1.161102412
1.159563896
1.132354725
1.011681976
0.5305963232
0.03966639421
0.2276474402
0.4799647191
0.7371947737
0.9410604674
1.065888685
1.130886412
1.160973971
1.165225962
1.159010995
1.153776698
1.151157845
1.15042942
1.145152287
1.144677221
1.144886969
1.146621547
1.149574352
1.155001358
1.160331076
1.157421083
1.12576889
0.9826357343
0.4875414704
0.04058355022
0.2344057741
0.4827626282
0.7354002877
0.9384189899
1.063844106
1.129275296
1.159812795
1.164510402
1.15881402
1.153756504
1.151185002
1.150449885
1.144985552
1.144527537
1.144742791
1.146483173
1.149417658
1.15473978
1.159436193
1.155041934
1.118194139
0.9486284623
0.4522422412
0.04202260261
0.2403671302
0.4851272892
0.733475233
0.9350723294
1.061356532
1.127482265
1.158565816
1.163744524
1.158634335
1.15377961
1.151249218
1.150498424
1.144707755
1.144267848
1.144496507
1.146275453
1.149256899
1.15443734
1.158429166
1.152395452
1.109180683
0.9132161521
0.4226828019
0.04365589999
0.2457274281
0.4871583174
0.7315075128
0.9313726653
1.058494136
1.125516501
1.157251157
1.162946653
1.158353218
1.153675088
1.151178574
1.150410464
1.14452605
1.144114891
1.144365696
1.14615539
1.149090597
1.154097866
1.157309652
1.14942143
1.098356167
0.879169456
0.3976558115
0.04550099296
0.2506351474
0.4889100827
0.7295317088
0.9275409952
1.055366283
1.123402285
1.155884026
1.162128703
1.158129389
1.153654172
1.151187033
1.150394369
1.144221795
1.143837812
1.144115415
1.145948117
1.148922404
1.153720125
1.156069674
1.14605965
1.085706877
0.8474827075
0.3763158933
0.04760573469
0.2551719163
0.4904541551
0.7275734804
0.9236998306
1.052076484
1.121173859
1.154479429
1.161299351
1.157798123
1.153493063
1.15105034
1.150234098
1.144027971
1.143680682
1.143994202
1.145843452
1.14874503
1.153300997
1.154696345
1.142218927
1.071560939
0.818230196
0.3580542136
0.05000962306
0.2593987074
0.491856554
0.725662565
0.9199179812
1.048704087
1.118864815
1.153050421
1.160464426
1.15755922
1.153453701
1.151033875
1.150189282
1.143710489
1.143395002
1.143743077
1.145632351
1.148562138
1.152836606
1.153172661
1.137833152
1.056369716
0.7911907196
0.3421558601
0.05270928267
0.2633804236
0.4932017938
0.7238267726
0.9162351278
1.045305368
1.116503521
1.151607557
1.159628334
1.157197391
1.15325688
1.150857903
1.14998839
1.143505433
1.143231622
1.143625488
1.145536575
1.148365098
1.152323048
1.151479279
1.13286235
1.040537693
0.7661085239
0.328093535
0.05572192215
0.2671710148
0.4945130367
0.7220858752
0.9126733538
1.041918922
1.114112591
1.150159095
1.158795126
1.156958891
1.153211627
1.150833958
1.149935866
1.143198285
1.142957198
1.143388065
1.145326118
1.148159512
1.151755655
1.14959439
1.127292657
1.024379708
0.7427867754
0.3156081345
0.05905244736
0.2708110157
0.4958050682
0.7204508573
0.9092444813
1.038571827
1.111710714
1.148711722
1.157966705
1.156586516
1.153002727
1.150646009
1.149724895
1.142971068
1.142775334
1.143258957
1.14522548
1.147936258
1.151130135
1.14749441
1.121146316
1.008119181
0.7210341342
0.3044263024
0.06266889801
0.274326786
0.497080159
0.7189261845
0.905955887
1.035284827
1.10931401
1.147271064
1.157147215
1.156345061
1.152945355
1.150612489
1.14966433
1.14271152
1.142546464
1.143065851
1.145037816
1.147701741
1.150441174
1.145166366
1.114468115
0.9919155416
0.7006834049
0.2943329527
0.06654993772
0.2777369213
0.4983582742
0.7175183932
0.9028160662
1.03207591
1.106936493
1.145842423
1.156334375
1.156000209
1.152763764
1.150452887
1.149486325
1.142431855
1.142315929
1.142893002
1.144895431
1.147448552
1.149686047
1.142599227
1.107313859
0.9758761787
0.6816018853
0.2851783697
0.07065381743
0.281065321
0.4996576837
0.71624168
0.8998379212
1.028963377
1.104593712
1.144434689
1.155538793
1.155710542
1.152657991
1.150377834
1.149385974
1.142264488
1.142175101
1.142783241
1.144779494
1.147184298
1.148866394
1.139812119
1.099743731
0.9600689759
0.6636913212
0.2768584141
0.07494648213
0.284336876
0.5009992659
0.7151116971
0.897036229
1.025965045
1.102299368
1.143069737
1.154763431
1.155485021
1.15256455
1.150305321
1.14930167
1.141930826
1.141903268
1.142581783
1.144587061
1.14692816
1.148003239
1.136914759
1.091855277
0.9446437916
0.6469979669
0.2693051673
0.07944520224
0.2875602586
0.5023950674
0.7141489998
0.8944306387
1.023101106
1.100066631
1.14181704
1.154071012
1.155114466
1.152435146
1.150223866
1.149194886
0.2461380682
0.0599891284
0.05071093013
0.5853338174
0.08456420397
0.06280715837
0.589005049
0.1191921284
0.08862394107
0.5049748399
0.1513967685
0.1243615442
0.4394683591
0.0563833498
0.07107307289
0.1872222666
0.155448902
0.3244511233
0.1010352171
0.05802988591
0.1275743965
0.2559318698
0.190594236
0.1043778425
0.06893727793
0.05254242759
0.09981695064
0.03055224215
0.02151846028
0.06533201174
0.1159537135
0.121875341
0.4868799389
0.550928162
0.29471298
0.04461012804
0.05033668917
0.08978634231
0.1303261901
0.1178190357
0.6016420173
0.6868480612
0.5763334001
0.6281763191
0.2219988245
0.2589104046
0.07286877151
0.05412966766
0.122457483
0.1585394329
0.1363018359
0.6308234827
0.609661395
0.6776123431
0.5479082196
0.1340996713
0.180533317
0.1253502514
0.09567641473
0.5944089605
0.5258903022
0.6004559015
0.479350378
0.07441674945
0.1010842972
0.0234671994
0.1424335937
0.1370182494
0.5667950475
0.3854915404
0.514773008
0.3934567982
0.02771276072
0.04635514876
0.2474503627
0.1445444627
0.111050365
0.08515881469
0.2407542812
0.03896442326
0.07591246621
0.04872862166
0.03183967597
0.0525496525
0.03368107955
0.04681424588
0.264242062
0.3048864576
0.46938044
0.2324694988
0.2074924128
0.2843395144
0.2372810044
0.05367569604
0.04438246412
0.07418417596
0.06320327101
0.06994381963
0.0479987302
0.06355750851
0.07270663057
0.1840479852
0.2167987898
0.6184085204
0.1653209379
0.1350044644
0.2049742438
0.1678807844
0.09166603389
0.07444445413
0.1061235269
0.0979305607
0.1168472344
0.07052859122
0.09478003102
0.1015202572
0.1026414302
0.1321751486
0.5375522097
0.1043069158
0.076782899
0.1333143787
0.1058394351
0.1361122283
0.1294349453
0.04731155281
0.07257471491
0.4766303859
0.01601783771
0.05000032001
0.02953684457
0.07565052037
0.05156615417
0.01396404209
0.1482888478
0.1439239495
0.02656826103
0.004676556493
0.02737471879
0.3874257264
0.08490660127
0.01728796865
0.009490590392
0.02919805137
0.01762504626
0.08317740203
0.3437240438
0.2597920248
0.1273198365
0.141934048
0.08499318034
0.0465391651
0.0162710123
0.009184304827
0.4223418596
0.3106013235
0.265472515
0.009450822568
0.1578218688
0.1961180919
0.1671219352
0.009777288617
0.07819244865
0.06873783807
0.0971834832
0.1645240448
0.151913354
0.225807326
0.09540116484
0.1618530963
0.04275311296
0.01495814354
0.02611542729
0.02471061648
0.03196762591
0.05123478139
0.06673924469
0.04885914809
0.1396525761
0.129392105
0.1378932145
0.118132342
0.1281347765
0.1362390361
0.03807625642
0.01133791624
0.06893723223
0.02721752514
0.04729113439
0.03792988536
0.02192580814
0.03472533493
0.02592986046
0.01519196417
0.02464329224
0.02206041633
0.01100817413
0.01781500811
0.02334055149
0.05593176071
0.05679119414
0.06376610394
0.06245254063
0.02402761292
0.01104300212
0.1122753846
0.02033495352
0.03821426085
0.01008439341
0.0171954091
0.1079427027
0.0892957194
0.2670152889
0.2516174877
0.09741854639
0.08314331663
0.01014460767
0.04139862146
0.1865137257
0.1721567553
0.2064695934
0.1923515846
0.04178742547
0.05417651972
0.04310573298
0.1288712877
0.07115014192
0.07085335909
0.0402390555
0.07046041241
0.1469136167
0.04809054457
0.02738905432
0.01716332317
0.06156229115
0.03041788405
0.05336721983
0.02893162344
0.07668920278
0.03934787373
0.03899419429
0.2256926872
0.02993344044
0.2245577076
0.2627948718
0.03420965667
0.03907148822
0.03041380809
0.03362435015
0.2562488769
0.05178341001
0.05143250369
0.06711788259
0.07069271492
0.06597824964
0.07733680989
0.07230117224
0.06744326122
0.05823870764
0.05839756037
0.05333758697
0.06428702732
0.05978909615
0.0598398874
0.1502726792
0.1483175328
0.1875510449
0.1852330399
0.08709280066
0.009814855379
0.08551125454
0.09388762755
0.09192093703
0.1188327647
0.1169766587
0.04086184023
0.05984599317
0.1339918759
0.04552850356
0.02590499975
0.06326530104
0.22646048
0.2116460582
0.2464800745
0.231417273
0.0646049197
0.034539204
0.04548770691
0.04449666011
0.06817435979
0.06728854712
0.006565371974
0.04622577909
0.1165268095
0.1023503156
0.1665338583
0.1555665298
0.02161654632
0.01116177335
0.02869985518
0.01857248868
0.02772608531
0.01046331864
0.01690205463
0.01084060791
0.02774988054
0.07371514742
0.01204420767
0.02503658165
0.003654658082
0.0245396474
0.01823053501
0.6367567393
0.3565436239
0.3653566131
0.2364119246
0.007975930228
0.005317177441
0.1885219574
0.4001235122
0.2895202573
0.006350125471
0.01570149219
0.01141725065
0.1252344757
0.1215009873
0.05007646972
0.2059131409
0.1710400697
0.1006623073
0.01097629411
0.01905919896
0.01495311405
0.009528334703
0.01443686648
0.01021321929
0.04794758402
0.02156236956
0.02021605035
0.05518318201
0.06849132436
0.02114716344
0.02886825265
0.01350280806
0.01333433681
0.05630855923
0.1505175857
0.3498308874
0.333828795
0.3715687295
0.3552230689
0.1542605633
0.2873080746
0.2719216462
0.09068092747
0.03052602121
0.09094067849
0.08540148342
0.01020413192
0.01619626488
0.1199175028
0.04493907795
0.02433670576
0.02177168286
0.0389120311
0.04557909775
0.0414364969
0.05177710777
0.04701375681
0.04002307961
0.05269714308
0.01417815737
0.01359014389
0.0461762116
0.197822286
0.3936566871
0.3770125284
0.05806924956
0.06018429144
0.1406484125
0.03062762571
0.03337828746
0.07879480429
0.1077264298
0.1061812707
0.09805109935
0.07788980478
0.08528283649
0.07929449817
0.0950934566
0.08764831679
0.07919309457
0.1173564526
0.3078129231
0.2923632426
0.3285730722
0.3129919443
0.1193674759
0.09990672787
0.03455816136
0.03526651872
0.01996890144
0.02074004902
0.08144822659
0.1273176542
0.05369516775
0.05764254823
0.03557021555
0.03622967076
0.1104569776
0.1352899189
0.06267857009
0.08267528988
0.006767287351
0.02340479775
0.04767218491
0.03603694416
0.07238693338
0.01936213606
0.01983147847
0.01893617634
0.06078439529
0.01055511406
0.004384674399
0.1170656806
0.09735863889
0.08347965449
0.07895712603
0.02694783101
0.02718880309
0.04052076161
0.09022377931
0.01706181579
0.01067795101
0.02575582551
0.03350024404
0.002891759999
0.02869299162
0.01860742446
0.01293187887
0.006589836119
0.01270168802
0.00960498569
0.009461581789
0.03635439014
0.02755630786
0.006526167096
0.03891303953
0.04090641128
0.01732216415
0.01159067264
0.00823287256
0.01198496827
0.01894144999
0.01157848351
0.0166182321
0.05714403545
0.01015784602
0.009290372763
0.01082857553
0.01447602936
0.04594048934
0.01070687599
0.01008278716
0.01467323674
0.01080670644
0.01047841799
0.02509156678
0.01674697545
0.03561257725
0.02812953102
0.01036686836
0.02308595949
0.02242843938
0.01949674194
0.03112491209
0.02383811382
0.01906754536
0.017151841
0.01335367042
0.01858598
0.01447565903
0.05053950647
0.05697114126
0.01988107114
0.01867112777
0.019715583
0.02044580625
0.06695552474
0.01172092918
0.01212608378
0.01596246442
0.01194548665
0.01231199625
0.05775515932
0.01280550364
0.01926880354
0.01618079321
0.01432619332
0.02708007674
0.07032329615
0.06434986535
0.01316147159
0.0537764877
0.04645824948
0.06216264754
0.05626766203
0.01395469515
0.01276919762
0.04866562434
0.03991580499
0.09981962875
0.09296602957
0.03399182697
0.04393128192
0.1075134729
0.1017218427
0.04763492918
0.04648796756
0.07463511594
0.09813280837
0.1274799907
0.07279172743
0.0913294035
0.07590812617
0.06352679177
0.1615484744
0.1453046866
0.143816327
0.1662693662
0.06344632965
0.04403248498
0.05327012062
0.06675409764
0.03845400931
0.04354361398
0.0334626855
0.03178981791
0.04365970048
0.02327388611
0.0233699146
0.01863490156
0.03328033202
0.03281114271
0.02423545395
0.03355716813
0.0356575413
0.03783146104
0.03504270961
0.02798296092
0.1001392916
0.08615561242
0.1082137309
0.1031670253
0.02917785308
0.07617256886
0.07348631214
0.08219628479
0.07714603308
0.03598660385
0.1307639891
0.1244227937
0.1413411938
0.1330609059
0.03668839454
0.03169080102
0.1150344748
0.1100037488
0.1224305661
0.1168236758
0.03208085005
0.01515552576
0.01446700147
0.05243570119
0.04797323661
0.01515487748
0.01538961306
0.04142884083
0.04060729047
0.04371338699
0.04171162722
0.039128065
0.03803610536
0.04033986173
0.03940528506
0.06947950932
0.0672081915
0.07265984011
0.07028512135
0.0611036388
0.04653144555
0.06625047362
0.06390046808
0.0341365022
0.02882671227
0.04432516907
0.03702889672
0.009436461452
0.01820348352
0.01699772698
0.02688361915
0.01892207951
0.03360013107
0.03420753582
0.09840867138
0.01991767784
0.01971854821
0.02056237842
0.02010249029
0.01909003352
0.08393303174
0.02130716151
0.03159711965
0.03834455926
0.0517395118
0.1252558709
0.03509380093
0.02266808192
0.03789440251
0.03493764162
0.02133618971
0.02079957146
0.02226112061
0.02156352659
0.1120340562
0.03645684105
0.03732217265
0.006699700712
0.03710255233
0.009310387811
0.01021833456
0.009307571823
0.03432333464
0.006924489365
0.02628486494
0.009919628138
0.01048092106
0.04701350405
0.04062929119
0.01877387976
0.0192562327
0.07139648225
0.06299680769
0.01791310921
0.01870473021
0.009607463061
0.0258660727
0.07620595655
0.06750723126
0.01148145618
0.01112975372
0.01625596013
0.01080970911
0.01134386323
0.02344815207
0.02857614954
0.007273808425
0.01291996296
0.01057224126
0.01171788567
0.0193888679
0.0602240772
0.1289784668
0.1685567812
0.009495889798
0.009476359675
0.1949111625
0.2502585328
0.2076944439
0.006551036869
0.04849200445
0.01629480431
0.02410236637
0.1423653892
0.1483243864
0.1659697641
0.005306393821
0.00852062819
0.006235276598
0.005108030494
0.006384105502
0.0050357593
0.06476306425
0.04101565781
0.02523888321
0.02755239397
0.02420478028
0.02769332361
0.2377626451
0.4389398242
0.4218092157
0.4620017918
0.4446804995
0.2429870277
0.05964536273
0.05168609361
0.01472167703
0.08744879281
0.1015989143
0.1394140031
0.1152676015
0.109359595
0.04442191383
0.02926303204
0.03508216389
0.03428318796
0.4161310367
0.3992178867
0.2023334625
0.1585049948
0.06643930396
0.07062453808
0.07398489911
0.0858393408
0.1756825805
0.05483952617
0.1241217471
0.1173171248
0.01077814641
0.01112039901
0.01817157455
0.01848184391
0.01875407099
0.030332884
0.01221384075
0.009801755541
0.01008763561
0.03511608755
0.07124419697
0.06190619627
0.01725674978
0.02897735963
0.01807140352
0.01822593238
0.01763316115
0.01413037374
0.009799315242
0.01298014479
0.01169396079
0.00980679826
0.03026306933
0.03819176926
0.07766540201
0.041143436
0.04015249539
0.03661704072
0.0270430679
0.05972539139
0.01948682971
0.02732810076
0.0103284885
0.007151763673
0.0072342001
0.01055780923
0.0101894778
0.02631646921
0.01661996779
0.01113361899
0.0213044943
0.0203500825
0.01880858813
0.0221359016
0.02694482637
0.02194680779
0.01204728952
0.01307329501
0.007694252107
0.009445972199
0.01249748808
0.07864200358
0.07231649511
0.02956283109
0.009750805642
0.01813478367
0.01626542759
0.01102095196
0.01779048078
0.01511726852
0.05161407252
0.0388325349
0.0443167317
0.07244424393
0.1061713017
0.1041621981
0.04204107051
0.07112052573
0.06670040027
0.10268361
0.09990594123
0.06839909753
0.03987246431
0.04827267769
0.04029257928
0.03077338238
0.03243417713
0.02624886103
0.0511817691
0.04933937145
0.06099435332
0.02224908329
0.03262893361
0.03092556181
0.0524424522
0.05200846148
0.02965805363
0.02710851268
0.02667410751
0.02986589357
0.0291289179
0.03484323755
0.05995721376
0.05918091504
0.06469383131
0.06368620249
0.03818798986
0.03078479086
0.05392763172
0.05331476385
0.05838656336
0.05761253197
0.03308920347
0.06352222874
0.06564579059
0.1563856197
0.1424655108
0.06081601221
0.06285346869
0.09380458275
0.09760124178
0.1949190939
0.02503790818
0.02490234703
0.02642567674
0.02620543416
0.01899232296
0.02461911852
0.02452423501
0.1780696412
0.08835889391
0.0923922617
0.01019838974
0.01031511943
0.0156176438
0.01484141147
0.009871217187
0.01024400801
0.00988913461
0.08032956574
0.03469226033
0.04250973827
0.1329974061
0.1263920574
0.05800929575
0.06764623503
0.1409892255
0.134976293
0.02971613636
0.02978657816
0.04585379183
0.04415163486
0.02933178434
0.02930030216
0.009679503847
0.02057505092
0.0323472631
0.03221368274
0.008141808962
0.01323110964
0.02585401543
0.01181091947
0.01171603105
0.01721047708
0.01745268934
0.02816252496
0.01066322875
0.007575197712
0.01056820163
0.01058142581
0.02629636265
0.01674138313
0.01731262285
0.01643514293
0.04521420279
0.03813133058
0.009654882156
0.00972373763
0.01108257184
0.01173930824
0.02022889878
0.007036485756
0.004680332628
0.008683467667
0.01358747474
0.009382225203
0.01036119693
0.009333347672
0.009625701175
0.01201562205
0.01127325837
0.00746770073
0.005519548714
0.01838905918
0.01898611245
0.01769404031
0.01793932518
0.02096215153
0.03147840945
0.03193215854
0.0308664817
0.03128720725
0.02076488432
0.01324698549
0.02362599807
0.02357944538
0.02438431243
0.02377436575
0.0129800001
0.02318589799
0.03515136084
0.03884342453
0.03230033091
0.03330268321
0.02249074554
0.01409422082
0.02360631637
0.02358351327
0.02354152748
0.02358308208
0.01384979948
0.01698327227
0.01739884879
0.01641706013
0.01714173966
0.03471235277
0.05364030889
0.05316035675
0.02021176321
0.03330713847
0.0330676986
0.03456016069
0.03364590885
0.02040042837
0.01000503909
0.009785507413
0.01017868599
0.009986314576
0.01878068597
0.0186000456
0.01917520092
0.01897133291
0.0146627206
0.03225078106
0.01932435088
0.02019905701
0.01953620454
0.03260958227
0.03239686748
0.0329231364
0.03274698028
0.01966034224
0.02002565812
0.01946050867
0.02920291683
0.0209498466
0.01504827368
0.006713024474
0.009790953494
0.01110590429
0.00659099744
0.03858830666
0.02650895256
0.003069938063
0.02694590274
0.04113831209
0.04074509408
0.01702031721
0.01060493591
0.007750397768
0.004530530854
0.01122052262
0.01125744244
0.01786580285
0.01800771915
0.02889389649
0.01804540192
0.009058985688
0.008027850141
0.01539514722
0.004101016743
0.009635898076
0.007432177585
0.005180103772
0.006457971456
0.009543559773
0.008502103041
0.009546875768
0.0110686038
0.01012219293
0.04089567456
0.03072315762
0.009114573546
0.01126486883
0.01275269346
0.01894173882
0.02131967306
0.01366216214
0.01691877704
0.01476184666
0.009520101486
0.006579890109
0.00959770998
0.01016562504
0.006877956783
0.01014028083
0.01013178653
0.01277958588
0.01060131483
0.01060975426
0.01030116113
0.01008376593
0.01166986967
0.01117117258
0.01068099409
0.01041686776
0.01072358973
0.01312597326
0.01212910098
0.02839006265
0.02221338892
0.02439487331
0.02771004547
0.03132101703
0.02791107727
0.02593205578
0.02782915453
0.01766579021
0.02783618654
0.02955008418
0.0203098373
0.02796129911
0.01875013945
0.0194449657
0.03024596807
0.03067523315
0.02954710196
0.03010588666
0.01921209383
0.01993153227
0.03498143695
0.0344561357
0.01189931533
0.0120096693
0.01370953102
0.0106969057
0.01106410814
0.01150400272
0.01223701048
0.01176759751
0.01543679685
0.02913972575
0.02606762183
0.03359048227
0.0319244229
0.01804151186
0.009353741616
0.01073583734
0.01922687326
0.007208859055
0.009333894191
0.009335745763
0.01367279863
0.009433261323
0.009680547794
0.02385506224
0.021181048
0.01132794947
0.04931795092
0.04506522374
0.09027957824
0.07953547899
0.04423339734
0.06804043021
0.09861271229
0.09384457379
0.03765621004
0.034151533
0.03455670284
0.02380255369
0.02922215973
0.05095655289
0.04906815255
0.04179669871
0.03335857933
0.04435395626
0.04257528157
0.04296428163
0.04438558702
0.03152362657
0.02216237927
0.02361610055
0.03543385367
0.02529540287
0.02413162755
0.02681532877
0.02554892483
0.03466007924
0.02481201158
0.02542220801
0.02048428403
0.02645054721
0.04737688137
0.04760150858
0.02951702348
0.02912837541
0.05081882268
0.05080755365
0.02783798374
0.02741915211
0.02865446293
0.0282048464
0.06141366762
0.06065182333
0.03530309447
0.03743119603
0.062912859
0.0621657138
0.05539789396
0.05473099942
0.0312938148
0.03252700016
0.0568221148
0.05610837701
0.01482925918
0.02362577532
0.02362607063
0.02363802764
0.02364883829
0.01473211174
0.0156014529
0.02187522158
0.01909360995
0.02348540054
0.02304570817
0.01548958336
0.04114092151
0.02375054362
0.02401941446
0.0233451243
0.02354196652
0.04088053178
0.04255838385
0.02493569167
0.02539175736
0.02427600807
0.02458272412
0.04205234977
0.03872716256
0.02215681522
0.02239398413
0.02179950731
0.02202598619
0.03849219121
0.04004433981
0.02296681299
0.02314908405
0.02255177163
0.02278466463
0.03976341824
0.02548217576
0.02530431146
0.06873080547
0.04478296222
0.04513106032
0.04401584157
0.04431387488
0.06788999478
0.02593651582
0.02573313381
0.02342412366
0.0246643415
0.05888174371
0.04007492738
0.03974828354
0.02625632294
0.02763199816
0.05210028919
0.06572348079
0.04325113676
0.0434605637
0.04247381194
0.04241619136
0.06431711558
0.02418827605
0.02424323361
0.01013190514
0.01051982303
0.009729394919
0.01397199579
0.01194263249
0.01779471767
0.0109411272
0.01078591624
0.01103743556
0.01101053476
0.01749293598
0.02403852324
0.01262657259
0.01482941882
0.01105385951
0.01063120747
0.02081087971
0.03354708585
0.0510088731
0.05069300015
0.05244068541
0.0520734542
0.03410758125
0.01987668637
0.01964699513
0.02044286617
0.02017041093
0.02021210782
0.01587970892
0.02237641524
0.04139064904
0.03679203466
0.04852334311
0.04674478669
0.03165154808
0.02449747775
0.01725340212
0.02202625236
0.02334376289
0.03720017538
0.02146416851
0.02174269805
0.02084559751
0.02152739206
0.03726389201
0.02117295462
0.02094356988
0.02200342677
0.02175526539
0.009569980873
0.01340310648
0.01265810496
0.01801182029
0.01494539163
0.009448590904
0.009298523336
0.009580806423
0.0117415697
0.01051158038
0.006860483132
0.01011210427
0.01105521291
0.01084486731
0.01353124332
0.01201410154
0.009899324113
0.01818687525
0.01815018933
0.01841323398
0.01835929935
0.02782985118
0.02774905682
0.04224402921
0.01742830292
0.01840327799
0.01793156286
0.01799321985
0.01898364707
0.03184575482
0.03151116273
0.03225094617
0.03198396021
0.01906489721
0.01843711154
0.03083653589
0.02913346553
0.03137947383
0.03084755353
0.01843035773
0.00991019244
0.03916703951
0.03853871181
0.02572874306
0.01148189832
0.01008584389
0.0102942151
0.007454669338
0.010405897
0.01112744249
0.01682636498
0.01101056984
0.01157696956
0.01130183276
0.02828889325
0.01755751209
0.01775740711
0.01038601008
0.01065644439
0.01060573319
0.01077863354
0.01099158591
0.00766760938
0.007604166347
0.01123445397
0.01059178123
0.01087527073
0.01425394466
0.01752573429
0.02638288334
1.154832646
1.155108706
1.155484035
1.155230781
1.15572857
1.155791552
1.155932524
1.156698095
1.156286075
1.156981084
1.15794954
1.156931015
1.128719774
1.025340606
1.157563036
1.012697935
0.9922779178
1.157832422
0.9948511105
1.03478041
1.157676418
1.053479182
1.15730401
1.157120259
1.157960507
1.157048391
1.156500443
1.156786844
1.15605999
1.155980341
1.154356758
1.154953001
1.155025446
1.155225337
1.156313049
1.15578427
1.156807573
1.041675501
1.156975488
0.976172147
0.8258697377
1.08382851
0.7911571225
0.7242558188