/*--------------------------------*- C++ -*----------------------------------*\
| =========                 |                                                 |
| \\      /  F ield         | OpenFOAM: The Open Source CFD Toolbox           |
|  \\    /   O peration     | Version:  v1912                                 |
|   \\  /    A nd           | Website:  www.openfoam.com                      |
|    \\/     M anipulation  |                                                 |
\*---------------------------------------------------------------------------*/
FoamFile
{
    version     2.0;
    format      ascii;
    class       volScalarField;
    location    "0.33";
    object      p;
}
// * * * * * * * * * * * * * * * * * * * * * * * * * * * * * * * * * * * * * //

dimensions      [0 2 -2 0 0 0 0];


internalField   nonuniform List<scalar> 
12556
(
714.129141
713.4062099
711.5852536
707.7284648
702.0510971
689.8895471
669.7001035
637.0916052
587.6469243
515.7519122
416.7823323
289.4799918
138.7254067
-23.60708407
-182.0834487
-323.4697495
-440.3557375
-531.330607
-598.7139788
-646.1463356
-685.9317303
-704.0715124
-714.560703
-719.4014741
714.5825351
714.1500569
712.9118975
710.1385475
704.5032159
694.2503272
676.5146001
650.2504288
606.1870937
540.0915366
445.9032185
320.214543
166.2702179
-3.217817381
-171.0532263
-319.9094166
-441.3432861
-534.5022086
-609.4536414
-654.0090572
-693.0740964
-708.9921928
-718.2369305
-722.5023215
715.6309792
715.844118
715.9675362
715.4464413
711.7608734
705.7437583
693.888705
671.7306194
635.6332034
577.1310415
485.3004576
351.025128
177.681023
-13.17599877
-196.8827399
-355.3324809
-478.2635959
-566.7023101
-639.0905022
-676.2728253
-709.5289758
-720.7454662
-727.2258307
-730.1193711
716.7617525
717.8873198
719.973027
722.536938
722.2510489
722.2519244
719.2814645
706.1446232
684.3457698
639.5325436
553.2546422
405.8446357
193.8109327
-47.54326261
-263.3369911
-428.8001745
-547.5749568
-626.4264271
-685.4552029
-710.102956
-733.3451635
-738.0479575
-740.3506812
-741.2203262
717.0460979
719.2106608
723.5464805
729.8507261
733.294398
741.3392715
749.4891668
750.5220299
749.6016531
731.4683761
669.9693748
514.3653989
223.4036469
-125.3152139
-396.3578879
-565.5899466
-660.6899587
-711.5619295
-746.9061095
-753.6868798
-761.070315
-757.82121
-755.0401115
-753.4822857
715.4562007
718.652343
725.1907931
735.2569034
743.530664
759.7766021
780.4816901
797.8930347
827.1878661
858.2048912
865.0975038
752.1840309
304.5864567
-308.5632212
-652.3406216
-781.6814214
-819.0075567
-822.6057561
-819.2179407
-801.9512116
-789.4650144
-777.1814014
-768.673219
-764.5032765
711.0115851
715.1066178
723.5240656
736.901904
750.0884138
773.7923982
805.9348422
840.3924437
902.2052858
995.8911014
1135.88271
1296.602846
618.9191074
-854.3072408
-1105.36474
-1080.62578
-1014.204574
-947.3595152
-893.9607322
-848.6118739
-814.7745074
-792.6761413
-778.5918284
-771.9426106
702.8690394
707.6188111
717.3938015
733.0993055
750.6569529
779.8141031
820.0213062
868.1791738
953.7701513
1090.340557
1323.26925
1799.493454
-2399.147816
-1764.845251
-1417.364428
-1207.294463
-1063.746004
-956.5507157
-885.5670547
-830.467671
-800.5630566
-782.1220182
-773.4174869
690.3909815
695.4678378
705.9049463
722.7237673
743.5307233
775.4148986
819.251496
874.4688184
967.1008107
1103.171375
1288.166058
1487.617235
-3811.982869
-2268.591782
-1661.087979
-1341.021825
-1140.675314
-992.043541
-903.6671111
-832.4749863
-797.8046554
-776.8411915
-766.8822056
673.2276111
678.2707566
688.6081677
705.226861
727.9541497
759.6920429
802.7168061
858.5796383
945.2839142
1059.681563
1185.820033
1285.488271
-3615.983342
-2296.167227
-1699.065206
-1366.384171
-1154.20625
-990.1475281
-897.0566962
-818.229542
-782.7320244
-761.3552841
-751.1514459
651.3616077
656.0362107
665.5592374
680.705912
704.1275422
733.1971495
771.9114896
823.727329
898.5336795
990.9766221
1086.727069
1168.08537
-2750.8157
-1960.137158
-1542.186504
-1280.658044
-1100.617783
-949.0451408
-864.908483
-787.4344146
-755.1076906
-735.4582133
-726.0066178
625.082751
629.1054065
637.2851421
649.6664114
673.315533
697.3629769
729.2944345
774.0109948
834.3239782
907.7886161
989.6041761
1083.361997
-1819.369555
-1478.010819
-1272.344123
-1116.894569
-994.7367833
-876.2222759
-810.9392528
-742.1782786
-716.3472645
-700.1009682
-692.2040539
594.9650224
598.1398052
604.699876
614.0713394
635.3418665
653.9193794
677.3833826
713.3518909
756.8679805
809.5931787
875.1460626
979.3942639
-765.3100902
-946.6729168
-1001.907536
-973.6155925
-920.9453757
-861.4667532
-784.3724514
-741.6725186
-687.050279
-669.1589572
-657.1597133
-651.3056955
561.7279171
563.9669748
568.7520527
575.2944726
593.1265143
605.8424242
620.3469828
646.0138288
670.8090901
696.8381411
724.619259
802.2738185
235.1675661
-400.6861347
-627.0857027
-709.4484782
-731.7452093
-722.9649193
-686.5302065
-664.8865615
-627.151693
-616.590679
-608.9903472
-605.347677
526.1992671
527.4186739
530.1207993
533.5736552
548.0543083
554.1230021
559.9682001
573.7595119
579.1370919
575.6893832
552.370195
479.5641173
191.2716533
-171.6093358
-391.2704101
-509.8981179
-571.4259253
-597.4247767
-591.299038
-587.9295053
-565.3427277
-561.3521976
-558.0021957
-556.4635024
489.2332976
489.4859522
490.1321716
490.6301854
501.7321836
501.9424635
500.0899119
503.2061889
492.8040272
468.2220698
415.8396943
312.3329039
139.6283865
-81.55261101
-254.3532288
-372.6160724
-447.6961677
-491.4372649
-505.2053239
-514.8846542
-504.5095123
-506.0329659
-506.3502297
-506.6081538
451.6875395
451.1106238
449.9728505
447.9162291
455.8208126
451.1034856
443.0216347
437.9055079
416.7095834
380.4275366
321.178942
229.4543868
108.4810832
-42.05423639
-174.2632864
-278.3164532
-354.2053534
-404.6346342
-429.9037631
-448.0482778
-446.9840666
-452.630416
-455.8657538
-457.4195298
414.3474024
413.0978182
410.5127799
406.409065
411.4492495
402.9657518
390.295507
379.5074493
352.4759848
312.4329915
255.482399
179.1752677
87.30277506
-23.92007777
-127.496223
-215.7435015
-284.7739553
-335.1010435
-365.7903235
-388.5365922
-394.0171102
-402.4380483
-407.6844359
-410.1385455
377.8507519
376.0840082
372.3850312
366.7507376
369.4732581
358.3610316
342.7313201
328.445028
298.8431472
258.7866436
206.977737
144.8877588
69.43224822
-16.93260681
-99.82377287
-172.9331138
-233.0280327
-280.0273274
-312.1405879
-336.5562264
-346.0270689
-356.0763246
-362.5545356
-365.623396
342.6874322
340.5569038
336.0715083
329.3970379
330.3607776
317.6340699
300.3429855
284.3889397
254.4321169
216.1501827
169.6820007
116.4940584
54.25666643
-14.75852454
-81.44641863
-141.8374395
-193.5301741
-235.8735029
-267.2703539
-291.504186
-303.0833594
-313.8545878
-320.9542937
-324.3267381
309.2114687
306.8598731
301.8922307
294.6073127
294.3330027
280.8134511
262.8443584
246.5154157
217.563004
182.1029034
140.8745954
94.87750478
43.28397165
-13.30312614
-67.96174454
-118.3176349
-162.6216431
-200.1323303
-229.4901254
-252.5496812
-264.9474503
-275.7731054
-283.0267828
-286.4812062
277.6537638
275.2020159
270.013905
262.4755906
261.3931395
247.7134833
229.8715998
213.9151356
186.7311338
154.4914832
118.1489057
78.55555927
34.95977893
-12.08859392
-57.55296911
-99.89300868
-137.8576914
-170.7735786
-197.5044802
-218.8499137
-231.199832
-241.6353757
-248.7172306
-252.0965328
248.133337
245.676992
240.4782616
232.9757754
231.4016619
218.0409329
200.8796413
185.7475293
160.7175434
131.7722085
99.84773725
65.66946342
28.54846436
-10.98579298
-49.19728192
-85.03233676
-117.59191
-146.3122724
-170.2465857
-189.6222419
-201.3731314
-211.1464887
-217.8470434
-221.0488032
220.6765887
218.2881189
213.2358989
205.9863002
204.1771261
191.4608068
175.3657166
161.2787705
138.5610067
112.8148312
84.84358481
55.27046456
23.52308033
-9.940574466
-42.28297602
-72.75376127
-100.6974365
-125.658487
-146.8373116
-164.1795832
-175.0104522
-183.9706043
-190.1643555
-193.1265069
195.2408813
192.9734331
188.180038
181.3356374
179.4878582
167.6268161
152.8179037
139.9118195
119.5169787
96.78420573
72.34560205
46.73462854
19.51980091
-8.933072241
-36.42675038
-62.40777992
-86.3907297
-108.0130784
-126.5821834
-141.9364556
-151.6806706
-159.7596655
-165.3807526
-168.070162
171.734844
169.6256562
165.1681179
158.8299114
157.0893429
146.2101443
132.7725158
121.1368362
102.9988918
83.05665168
61.78270216
39.62054896
16.28119839
-7.959660532
-31.37645801
-53.54816439
-74.11047073
-92.77647653
-108.9259886
-122.3964654
-130.9872043
-138.1720473
-143.1963783
-145.6003621
150.0311299
148.104659
144.0329291
138.2633032
136.7401126
126.9077666
114.8700453
104.5266679
88.54160884
71.16358586
52.73225371
33.60540528
13.62200087
-7.023284056
-26.95998712
-45.85956848
-63.44616676
-79.49332671
-93.42584811
-105.1433816
-112.5710919
-118.8826805
-123.3133976
-125.4327338
129.9773167
128.2481577
124.5916988
119.4249105
118.1998483
109.4378356
98.79136979
89.720188
75.76949201
60.74380861
44.87675691
28.44865177
11.40492934
-6.12856176
-23.0537979
-39.10974529
-54.08691676
-67.80738977
-79.71857608
-89.82123596
-96.1102382
-101.588359
-105.4447969
-107.2883083
111.4061997
109.8818543
106.6552545
102.1053209
101.2402596
93.5445512
84.28194877
76.41519362
64.37992643
51.51569251
37.97619836
23.9691825
9.526045462
-5.279815465
-19.56604864
-33.12296817
-45.79223787
-57.43589945
-67.50543262
-76.12709741
-81.31703598
-86.01060479
-89.32057232
-90.90127252
94.14362597
92.82655768
90.03408274
86.10119847
85.6434377
78.99223999
71.08337474
64.36471438
54.12560574
43.25369338
31.84117149
20.02381594
7.90566342
-4.479859133
-16.42493494
-27.76068842
-38.36880579
-48.14553531
-56.53631366
-63.79911302
-67.934906
-71.89502762
-74.68973377
-76.02247638
78.00548121
76.8959844
74.53617025
71.20899416
71.21215627
65.56670805
58.96183204
53.35905987
44.80081423
35.7723483
26.31590233
16.49903366
6.481130344
-3.730003671
-13.57252701
-22.91120982
-31.65864308
-39.72989466
-46.60040691
-52.60898134
-55.7278793
-59.00570553
-61.31599043
-62.41499048
62.83407848
61.92857314
59.99676707
57.26161135
57.7440599
53.07089927
47.6566045
43.22130878
36.2285892
28.91490961
21.27163327
13.30088686
5.202113483
-3.030364667
-10.96058245
-18.48267712
-25.53515145
-32.0466754
-37.49272639
-42.35090103
-44.50351723
-47.14264861
-48.99746309
-49.87766639
48.36793086
47.67204612
46.17017283
44.00350131
45.09969653
41.32444932
37.04082954
33.75540022
28.24766951
22.54383315
16.59712326
10.34856909
4.027302239
-2.379550699
-8.546465109
-14.39480404
-19.88788754
-24.99092537
-29.03718279
-32.84017349
-34.00489586
-36.0594301
-37.47931096
-38.14569012
34.74364978
34.23304883
33.15032163
31.59393457
32.87056054
30.15557587
26.97953638
24.80963921
20.71769896
16.53726018
12.19290849
7.570694835
2.921905089
-1.774493448
-6.291246085
-10.57453199
-14.60868213
-18.37581581
-21.12462122
-23.88371217
-24.32403621
-25.78009004
-26.78766836
-27.26805933
20.67197685
20.43524318
19.79174881
18.85359222
21.16783575
19.42174788
17.3109468
16.24598933
13.51545435
10.78226588
7.962213005
4.899729103
1.856451397
-1.209781124
-4.157817438
-6.954737704
-9.600703643
-12.0971566
-13.60556336
-15.42437373
-14.50957468
-15.38426996
-15.97699311
-16.2000219
10.82160175
10.56735301
10.22254646
9.645332524
9.717441847
8.822475549
7.819426081
7.940106739
6.539981496
5.168127326
3.793152547
2.258773888
0.8132979733
-0.6742733812
-2.108172828
-3.473732365
-4.776358101
-6.027375637
-6.254467651
-7.092508988
-7.626176917
-8.094587654
-8.386732676
-8.611788988
1527.422212
-4063.539622
-2526.071222
1303.763402
-3934.564055
-4134.910281
1180.03415
-2990.588321
-3841.880182
1094.188895
-1980.087533
-2861.015461
987.8785396
-820.3948614
-856.8790892
-1058.890721
-1858.672315
827.8520337
323.4055144
-774.368631
188.2373501
-412.4773068
-954.9174444
1784.331161
809.0212224
-2194.021792
-673.6182898
-5234.531234
-3096.230902
-3739.069147
-2411.190127
-1892.35515
1211.769198
1294.773834
1467.066164
-5569.037286
-5782.7185
-3693.450721
-2569.348407
-2511.611948
1110.827015
1170.549488
1276.492934
1235.440342
1259.216968
1324.655163
-4153.087898
-4909.696782
-2868.275529
-2229.308736
-2519.380302
1014.61451
1081.190059
1158.322225
1135.496231
1168.15385
1197.596239
-2767.053946
-3356.033441
906.7970979
978.9832298
1069.915752
1042.035982
1098.696827
1134.393788
-1585.670328
-1530.040255
-2058.39648
764.7083776
820.0291375
963.693512
921.5853233
1000.279766
1045.228369
546.7747142
297.9348196
334.405223
1876.653658
1533.117754
2465.524405
1953.084541
-5784.267474
-5301.136174
-3631.518126
-5076.274986
-5631.455826
1332.63027
1387.810204
1367.216059
1387.572372
1335.558611
1506.367805
1396.941478
-4954.255305
-5541.164322
-4077.513476
-5416.161867
-4867.138102
-5632.624682
-5441.649833
-4101.307557
1203.052689
1250.485103
1220.26764
1254.99309
1204.242059
1331.39076
1259.876023
-3442.982648
-4098.191801
-3374.081404
-3998.64381
-3373.68956
-4823.369546
-4096.78567
-3498.408811
1137.058898
1166.732825
1125.273315
1169.576977
1140.840361
1201.358949
1170.72719
-2135.45876
-2685.783021
1048.632095
1096.198753
1035.101259
-1545.055204
1101.126232
1053.153403
1138.077179
1103.648018
-1584.532303
-986.8259002
-1455.578528
-1538.35207
1039.075161
998.4787881
910.7109343
-49.26396627
1004.871412
927.3162467
1049.761989
1005.50628
-124.9396921
1309.32149
1501.375551
1700.163105
1716.828694
1927.419541
2330.670057
-6277.127841
-3665.674305
1392.503481
1398.055077
1514.341581
-3304.115324
-1932.87418
-1683.364127
-2102.465908
-1968.125072
-1906.611353
-2183.539372
-178.6491809
-482.3093824
-850.4463918
1541.290569
1860.840602
1668.744076
1558.053023
3319.304295
2617.552087
-2971.067006
-4922.866401
-3407.395242
-2228.79106
-2527.223166
-2352.244677
-2643.524521
-2109.501789
-3290.149747
-2722.180586
-2478.437173
-1158.508777
-323.5081122
-466.8823188
1315.962259
1887.812097
2459.991032
-2664.286431
-636.4536668
1078.8364
-6404.345414
-4598.181265
-6238.38004
-3528.765442
-6069.769449
-4275.428323
-5680.867165
-5697.748234
-4513.673288
-4564.960654
-2929.307958
-3241.551521
-3014.627372
-3219.077645
-2902.765843
-3609.731076
-3266.183012
-3098.770078
1115.141845
1089.427919
1072.718928
-1565.806555
-1821.784699
-1895.892582
1020.496989
986.1713656
963.6824399
1014.081127
993.2773235
1022.984144
1825.586984
1586.502603
1690.798491
1601.464033
1856.084501
1458.840239
1575.970607
1642.832371
2302.017766
2579.811439
3162.445752
1912.828715
2476.988446
2214.178604
2495.967971
1890.681677
-5673.917448
-5648.925018
1362.319309
1384.339
1358.853745
1446.218211
1405.455307
1453.118367
1384.423077
1401.53503
1431.45524
-5234.359306
-5270.237355
-5175.878768
-4609.263038
-4735.136224
-4382.776932
-4558.381959
-5140.246935
-5575.577154
-4837.909655
-4812.292703
-4767.065706
-4829.964585
-5559.645818
1228.084587
1224.408756
1299.396523
1294.048469
-3712.318989
-3645.575972
-3760.414736
1156.999786
1154.774449
1183.848189
1181.835023
-2855.821532
-2549.344727
-2446.698962
-2569.571272
-2877.965555
1067.37655
1040.833882
1020.747803
1066.761521
1047.58754
1071.804234
-1206.514882
1075.577773
1070.672631
1120.595575
1118.849253
-1904.558006
-1205.914146
-1226.863131
-1480.999216
955.1706684
928.2073227
950.3538761
965.8830673
474.9112967
171.3369678
1028.688539
-313.2386798
126.1481202
-229.8862107
1026.892832
-376.1309538
-260.8098723
93.67871575
-4386.436738
-2104.860678
-2248.997555
593.6983121
563.7965795
786.7853389
680.1590197
694.951197
968.8333701
204.8903067
-124.1257559
-302.9907288
4281.020586
-2282.217924
-2437.900941
-899.6022747
-1143.166401
-1159.379259
-138.8370874
-379.2371141
-106.9305629
2123.091188
2632.609056
3316.142283
-3117.601228
-580.7034026
1438.77168
-5626.245684
-6259.296646
-6190.664337
-5758.349517
-4306.511616
-4495.62077
-4309.749493
-5166.035019
-5015.150164
-4768.697732
1180.0938
1165.686209
1152.00616
1186.570872
1170.592503
1182.431515
1110.196786
1094.699681
1117.181126
1007.736383
991.8513756
981.5758195
870.988015
618.05925
359.1163143
-5752.763514
-6229.718732
-6289.434483
-5485.31218
-4562.294995
-4247.059416
-4785.018783
-4636.631067
-5504.021066
-5081.402862
-5351.855806
-5217.598027
-5437.388362
1220.777154
1211.005082
1192.32788
1208.942132
1215.532789
1212.182951
-4251.790738
-4086.820797
-3950.584052
-3720.248815
-3483.006434
-3716.899338
-4495.327487
-4103.666594
-4317.039443
-3795.369239
-4028.318207
-4446.125419
1151.718395
1129.628688
1115.233331
1147.626975
1134.27469
1153.912097
1165.521657
1177.837691
1178.206251
1151.939519
1165.23792
1148.259438
1193.376876
1196.93421
1206.229079
1177.942503
1179.164754
1174.618611
-2368.420889
-2507.24028
-2221.231616
-1402.267602
-1400.310504
1092.391825
1052.928329
1129.483163
1136.090115
1149.814157
1127.908015
1110.083238
-1715.048927
847.5044808
919.6290428
885.2413262
977.8247371
964.1043569
986.7163335
137.8947554
381.2475794
144.2510022
996.0092817
445.4353226
687.7544012
510.2310398
624.7484873
1035.907937
1014.651721
-5609.672375
-4279.148718
-5256.188988
-3431.095168
-3488.306191
-1928.70518
-2060.596571
-2077.636171
1510.052286
1493.886781
3111.191486
3511.1288
3972.150223
3303.958555
2997.330948
-2600.206328
-2443.531262
-2396.70567
-2451.053523
-2619.344614
-1173.010201
-1004.262326
-1011.986552
-1008.822732
-1177.108442
-796.6340499
-961.5455168
-570.0998192
-589.1911317
-748.3132634
-381.857289
-537.0125223
-473.1477337
-6552.483058
-5742.465347
-5272.537403
-6128.097132
-5861.2886
-5085.543803
-4389.840818
-5251.674272
-6035.821027
-5965.518753
-5638.611783
-5745.647964
-6158.767639
-6065.211454
-4724.21937
-4554.136829
-4359.088451
-4609.380083
-4791.251328
-4365.969596
-4554.733913
-4841.896621
-4718.786342
-4964.123463
-4778.755499
-3063.568824
-3119.063558
-3088.133504
-3004.819602
-3134.623017
-3464.217608
-3360.608178
-3499.110365
-3178.171302
-3314.778283
-3413.076848
-1773.801875
-1747.347096
-1881.850718
1004.942848
995.5119878
1007.331647
1029.047103
1017.418474
1008.599092
1698.596533
1666.666006
1686.397023
1738.758705
1648.94087
1897.987063
1773.755556
1720.774322
1504.065154
1542.720903
1497.790724
1623.71508
1560.430962
1521.094376
2114.104818
2112.360173
1945.536024
2187.987583
2098.663369
-6229.118787
-6220.485708
-5736.939212
-6364.319805
-6401.897214
-6343.946226
-6301.350665
-6203.810334
-6423.933261
-6315.068078
-5533.592838
-6113.012852
-6224.720591
1369.0353
1372.72561
1365.622334
1386.581505
1376.196966
1374.207633
1357.683611
1351.503465
1364.774175
1359.376955
1421.334961
1447.367875
1426.3371
1485.997219
1455.803595
1427.128093
1393.696865
1401.820501
1389.901003
1420.525594
1406.248308
1398.182889
-5510.667266
-5394.107631
-5121.456067
-5393.515037
-5678.05243
-5541.284183
1241.227872
1231.278504
1258.387818
1243.754976
1216.251477
1210.806869
1227.130347
1217.826196
1327.424466
1309.888235
1348.327439
1333.154867
1279.813585
1262.538339
1303.962191
1286.066417
-3728.742878
-3875.667475
-3545.874559
-3683.67521
-3780.485554
-4135.149936
-4303.621815
-3924.541929
-4083.625547
1165.816048
1175.704891
1163.692246
1180.832063
1167.895157
1180.764211
1183.498521
1166.134061
1149.521746
1164.467145
1163.528872
1189.074358
1193.972189
1190.596695
1196.644439
1191.493925
1208.009693
1198.741086
1179.61957
1179.63734
1186.262172
1180.443774
1176.187107
1180.21617
1186.231713
-2629.457373
-2702.992096
-2767.7736
-2617.259451
-2814.311283
-2744.797788
-1187.849675
-1355.374836
-1387.873826
-1187.037602
1089.421974
1058.295114
1128.757026
1133.014567
1126.85265
1112.721069
1131.136198
1128.883993
-1792.02008
979.3164425
958.5334174
945.9368184
645.1923044
546.582374
990.896153
256.3380182
418.0866152
308.2174696
1031.131098
-466.0722274
-30.23400555
198.5112979
-76.47640992
1006.711154
-2125.939504
-1675.042981
-1089.350609
-2237.485196
-2289.212644
-1075.482647
-1125.438941
-1539.487068
-2299.465652
-965.314877
-958.4421116
-800.4247573
-2034.72651
-1549.913967
-1501.757433
2673.050712
3404.225796
4187.678122
-3243.031568
-462.620866
1903.495543
-1349.272578
-936.529123
-2609.860352
-4942.65328
-5590.02173
-5868.304926
1287.709031
1273.091676
1247.889753
1307.810735
1281.757673
1297.401548
-1568.11978
-1702.050041
-1717.593918
-2137.250804
-1886.391346
-1828.440625
1030.746671
1021.209253
1033.102494
-5945.484934
-6081.107586
-5496.056539
1239.905383
1217.785777
1227.500132
1242.724282
1244.184069
1258.018146
1262.346825
1278.558622
1273.883159
1052.536224
1042.686592
1034.328943
-1558.833315
-1514.685076
-1502.668287
1057.705256
1062.517778
1055.712703
-1649.748483
-1662.476294
-1572.614173
-1397.369499
-1385.377639
-1522.018989
1003.105452
1046.589732
1052.753033
1054.651887
1004.480663
-6153.519085
-3339.288455
-1949.361087
-2012.222892
-2019.951005
-2230.551932
-2093.82138
-2056.486609
1535.276921
-4107.712294
-3582.233945
-4272.822363
-2354.807504
-2410.992942
-2271.935307
-800.8461616
-816.3523231
-644.3271285
-648.6770371
-744.2921486
-1550.66173
-954.9476659
-3070.07543
-6394.420537
-6080.564408
-5923.468656
-6550.705994
-6511.695501
-2973.667065
-3003.937632
-2957.875397
-3257.774104
-3248.596191
-3220.50147
-2830.407802
-2959.334251
-3037.716195
-3574.435576
-3525.194614
-3572.030185
-1887.408362
-1864.41307
-1896.894569
1774.848206
1822.550024
1613.430516
1628.218137
1647.266193
1620.229662
1466.612138
1484.350504
1473.151506
1595.174744
1572.732685
1554.072487
2375.927805
2180.363386
2196.184263
2385.81838
2369.600438
2513.985816
1875.457925
1929.840613
1951.154407
1362.996204
1363.571924
1368.491933
1384.436497
1381.993967
1382.410776
1363.832369
1363.494037
1369.046077
1366.393469
1411.810267
1418.342783
1412.634725
1463.805482
1454.529585
1445.173026
1384.811942
1387.965736
1386.013007
1408.088809
1405.291697
1400.876479
1230.554436
1240.814164
1238.527656
1215.263192
1217.734056
1226.870406
1307.257985
1323.883385
1313.765939
1321.099468
1314.642137
1361.889847
1356.563859
1266.97807
1308.244979
1301.908658
1279.261098
1284.392337
1301.584347
-3890.76566
-3947.702952
-3617.456276
-3670.005911
-3695.96652
-4002.190753
-4026.405547
-3899.595511
-4035.482323
-3883.052708
1056.192443
1046.263294
1055.758278
1084.144784
1070.212275
1060.209011
1079.052497
1085.366055
1080.767984
1066.273287
1069.488337
1073.734255
-1901.858284
945.0918591
948.1198999
946.6287049
718.8534
955.0798618
350.8267223
487.4664878
614.1814706
1034.36718
1032.860113
1029.139828
-376.3752418
-222.9054782
-198.8016162
-213.0834851
1023.191029
1029.437272
1033.367582
-109.3196909
-183.8452398
-329.8112526
-2141.085267
-2181.672319
-2273.76702
-2228.577292
-2206.904321
4226.929555
4690.553576
3987.780727
-2333.358462
-2358.893831
-2287.301702
-2455.856695
-2405.642491
-2392.254488
-1751.803883
-910.8000971
-3176.37348
-5873.925543
-5872.28557
-5820.326954
-5852.358125
-6235.246683
-6089.942039
-6107.790106
-6051.10049
-6071.617837
-6213.251807
-5120.555188
-5041.142443
-5088.711582
-4937.554606
-4992.03192
-5071.452357
-6279.451686
-6108.19845
-6081.490194
-6122.897879
-6125.054888
-6302.611855
-5304.42522
-5223.983449
-5267.261455
-5136.915119
-5180.807784
-5263.334143
-5769.524541
-5794.028829
-5683.068771
-5729.417143
1178.533217
1174.290937
1173.144321
1154.536865
1151.542415
1148.552352
1157.96993
1155.28984
1159.42931
-1519.172051
-1568.941812
-1395.776874
-1469.277628
1103.150361
1103.208497
1107.531728
1103.892079
1053.985526
1054.628864
1061.754182
1050.598889
1140.579149
1138.484007
1134.762037
1145.870708
1142.498876
1145.848911
1114.547558
1113.456755
1121.121164
1106.895727
1112.575649
-1723.294036
-1714.231541
-1702.196975
-1574.420732
938.7425735
994.1253053
1144.521827
991.987001
983.3464775
977.8413359
1001.04059
385.4584408
367.0532305
1120.785615
995.3658834
750.5916976
1036.390533
1046.596722
1041.983893
1009.274001
-5849.277658
-6154.819428
-5920.828363
-5083.952258
-4840.197872
-4047.135306
-5622.851543
-5290.310102
-3380.495408
-3518.542885
-2072.759641
-2059.726815
-2070.557858
1521.454588
1472.315983
3714.553032
3549.492284
3396.099867
2793.101368
2648.856639
3204.370635
2975.339405
3078.100776
-2520.417353
-2463.650521
-2567.107099
-1025.609234
-1022.629434
-1011.009189
-1121.618133
-834.7981879
-817.5775448
-802.6627446
-953.1877119
-898.3187969
-894.8323191
-574.1325993
-628.3484956
-628.2390667
-452.1053172
-456.0897396
-503.6705676
-6341.47522
-6217.492314
-6473.963772
-6044.04961
-6301.899574
-6375.259707
-6489.456814
-6451.313148
-6003.574477
-5902.551641
-5924.657194
-5878.248862
-5886.271082
-5977.171546
-6122.293975
-5999.065714
-6026.299514
-5948.890075
-5973.401063
-6093.257142
-4670.801556
-4597.754186
-4650.892827
-4668.339755
-4733.728589
-4421.768208
-4448.138649
-4408.631544
-4498.758824
-4898.251909
-4941.262927
-4902.613043
-4819.280443
-4879.486362
-4705.224342
-4762.069466
-4839.603084
-3099.709838
-3024.981723
-3011.263629
-3038.34726
-2973.078593
-3023.888806
-3175.447668
-3203.141105
-3148.262754
-3427.049118
-3471.550451
-3500.820975
1734.387348
1638.395462
1517.437862
1498.876158
1481.277579
1536.65707
1553.125164
1535.213712
2161.339625
2252.580451
2285.365856
2519.808926
2396.615252
2019.345596
1995.706371
2075.304378
-6231.752577
-6043.341792
-6035.208494
-6059.208051
-6048.828042
-6225.708806
-6389.30453
-6396.767255
-6287.556573
-6509.194981
-6484.742397
-6463.793926
-6501.18343
-6260.822613
-6416.156722
-6492.370196
-6516.012822
-6357.469704
1370.624233
1368.118404
1366.296663
1378.931442
1378.617705
1374.704178
1363.67143
1363.660231
1364.464184
1363.84545
1429.739889
1423.973661
1417.001339
1435.516629
1445.105276
1436.626262
1395.838413
1391.422945
1388.193041
1400.39422
1402.953029
1399.886011
-5475.433253
-5388.658386
-5423.448584
-5307.944737
-5348.442073
-5433.066495
-5627.397935
-5548.580051
-5624.597898
-5456.303448
-5494.642774
-5579.590374
1238.522829
1239.439936
1241.161933
1232.048786
1236.421295
1235.191011
1252.628481
1250.209714
1258.312755
1242.087502
1244.408823
1247.316708
1214.79516
1216.145892
1216.718369
1213.077287
1215.014346
1213.034214
1223.269246
1222.671993
1227.053236
1217.374747
1219.269721
1220.115748
1334.145531
1327.694823
1321.674034
1324.880468
1330.9262
1312.469775
1318.680717
1315.811047
1348.274307
1340.607317
1283.43679
1277.934575
1273.688815
1275.812539
1281.576784
1263.229722
1262.966512
1266.198227
1298.028852
1300.156587
1306.299987
1287.979375
1294.060198
1292.076644
1295.767797
1289.698908
-3811.91611
-3845.192204
-3753.534682
-3722.202821
-3757.491998
-4185.357668
-4217.905663
-4172.454232
-4342.659358
-4274.317112
-4240.879772
-3971.020003
-4006.691175
-3969.261875
-4124.88673
-4076.064906
-4027.932497
1168.522105
1165.587189
1162.891942
1171.229751
1168.544003
1172.169314
1175.552249
1170.735719
1182.129687
1183.212487
1165.837277
1157.946597
1154.08699
1154.799382
1156.838361
1160.293447
1158.374589
1162.868476
1186.558538
1189.66472
1198.906175
1192.597117
1204.84455
1206.407911
1209.992492
1200.807328
1203.413253
1201.848459
1179.040733
1179.004499
1182.746381
1181.296571
-2719.086885
-2700.472986
-2754.243366
-2605.04153
-2651.243669
-2684.423042
-2878.847032
-2919.48024
-2796.842322
-2811.467636
-2822.572528
-1326.308039
-1326.570181
-1380.362996
-1198.750992
-1258.544115
-1268.247426
1089.598365
1081.134939
1102.37309
1097.799097
1062.70741
1065.270656
1061.911346
1067.555025
1065.147681
1075.221767
1071.253516
1129.547351
1127.991381
1126.769266
1131.856238
1129.665569
1130.954838
1131.178407
1125.324302
1123.603762
1126.045699
1125.707885
1129.964269
-1847.417675
970.5446897
962.8062775
971.3768125
599.5957495
621.6267471
689.2776707
556.656237
565.3478044
544.4468556
985.4194217
354.2199788
300.0710019
231.2861716
1029.318702
1030.481413
1030.447709
-443.352165
62.60735292
1.893702159
179.3364736
164.8642037
179.0886728
-18.4336469
-151.7910623
-133.5402203
-31.50741534
1016.666443
1026.468106
1020.191667
664.9626406
637.8975564
619.5787495
626.2861525
583.2319646
559.6595529
565.2082866
499.7000866
472.8927072
472.85954
378.4979403
354.6969407
341.6123054
219.2607928
206.2670028
174.5064644
37.74629563
38.0625563
-9.023086001
-144.2034067
-131.2959515
-187.715505
-307.318926
-285.2600033
-343.6959647
-438.4434269
-413.4267541
-466.1480338
-536.0532395
-513.1054835
696.4711869
678.6011945
646.496132
670.4887478
636.7787872
594.4775412
621.4862442
559.6674818
512.1366016
532.7348707
430.4001449
388.8607107
388.7192871
243.246605
224.1359039
189.1336777
20.16808856
35.12984465
-35.86603646
-193.7581547
-152.6832014
-241.6913513
-368.6567402
-318.5544744
-405.4242415
-500.0373675
-450.8449363
-526.5706164
-591.6801311
-547.3295209
738.8621844
734.745536
691.3471565
731.8165273
714.8146897
653.8215603
705.2793197
658.4648123
579.869747
634.6658226
528.4744127
449.2087671
479.2991639
288.6287491
251.6473828
213.7222696
-23.88924999
12.248659
-99.9494192
-299.5574325
-213.7713583
-354.7626498
-488.0765456
-392.2207016
-523.632645
-607.2897794
-521.524052
-628.3423734
-675.9983718
-610.2708836
786.1839847
802.0235384
750.9156132
807.3554676
821.1026911
738.6540251
823.7375265
817.593869
691.7832541
807.4757238
726.2316695
565.4489817
673.0963602
401.2146925
307.2878249
275.7043201
-126.0815511
-41.47790228
-245.0198228
-510.8625334
-339.2530014
-572.3878934
-695.7258453
-530.7178909
-720.2400997
-766.3709108
-642.290433
-775.3369674
-790.4935911
-701.7513386
830.7453697
869.3232464
819.3325387
884.832843
940.8539042
851.0211053
963.0603147
1039.391413
868.7079279
1066.465196
1126.050656
802.7238185
1120.003774
723.0445072
453.0679878
568.3557835
-455.5460647
-173.4268724
-649.367555
-936.4086746
-591.1120601
-970.5737578
-1001.341689
-761.9991389
-998.1874969
-974.6243025
-814.2488034
-963.7215821
-928.274163
-823.3354853
863.1170587
920.3937646
884.2084148
944.2755648
1035.327817
968.7512571
1074.00377
1228.323238
1095.952383
1298.336
1686.260316
1266.016863
1525.95636
1649.504135
1215.783155
843.5229346
-382.7230792
-30.70050414
-1206.92012
-1233.086807
-983.0264091
-1593.551322
-1390.570599
-1093.892773
-1335.777005
-1199.741331
-1031.642847
-1161.915301
-1064.980292
-963.5952255
875.0382928
940.5599794
928.5883419
967.4418392
1066.657593