/*--------------------------------*- C++ -*----------------------------------*\
| =========                 |                                                 |
| \\      /  F ield         | OpenFOAM: The Open Source CFD Toolbox           |
|  \\    /   O peration     | Version:  v1912                                 |
|   \\  /    A nd           | Website:  www.openfoam.com                      |
|    \\/     M anipulation  |                                                 |
\*---------------------------------------------------------------------------*/
FoamFile
{
    version     2.0;
    format      ascii;
    class       surfaceScalarField;
    location    "0.33";
    object      phi;
}
// * * * * * * * * * * * * * * * * * * * * * * * * * * * * * * * * * * * * * //

dimensions      [0 3 -1 0 0 0 0];
oriented        oriented;


internalField   nonuniform List<scalar> 
25162
(
0.0004311598452
0.9162188402
0.0005293709322
0.9166017889
0.0006147371293
0.9165646338
0.0002982793397
0.91659583
0.0003706277808
0.4583393295
0.0003089498858
0.4583097845
0.0003778867749
-0.000387671297
-0.0004786200901
0.4582867615
0.000541858586
-0.000602275882
0.4582358806
0.0007013953146
-0.0008094491427
0.4582128758
0.000926573375
-0.001061506159
0.4581895221
0.001206984069
-0.001354205798
0.4581876193
0.001501586459
-0.001646607617
0.4582139683
0.001764139364
-0.001857538457
0.4582759169
0.001915121521
-0.001930996454
0.4583596964
0.001906300032
-0.00184595936
0.4584262039
0.001749755484
-0.001636110477
0.4584632073
0.00150790322
-0.001362660646
0.4584700588
0.001227601837
-0.001092237413
0.4584758159
0.0009314214979
-0.000868614434
0.458449022
0.0007695924687
-0.0006354895789
0.4584601692
0.0005253204113
-0.001707203874
0.9186411598
0.0001906613178
-0.0004746172081
-0.001064966578
0.9187077627
6.19242774e-06
0.915778841
0.9138061924
0.001185691785
0.9150331484
0.001870451362
0.9159170293
0.00210918713
0.916325898
0.0005874432775
0.9171387527
0.000978821205
0.4580856276
0.0007021062392
-0.4582002905
-0.4581873591
-0.000861129947
0.4579872202
0.001061268847
-0.4580448759
-0.001309868308
0.4577444927
0.0007571855571
0.0008530659712
-0.2289626729
-0.0009217333707
0.2288827992
0.001001607062
-0.001346517329
-0.2289014258
0.2287955777
0.001452365446
-0.001889737827
-0.2288487791
0.2287094025
0.002029114451
-0.002534672957
-0.2288371246
0.2286804591
0.002691338505
-0.003179232706
-0.2288883195
0.2287678192
0.003299826086
-0.003376108706
-0.2290236065
0.2288858553
0.003513707636
-0.003844122979
-0.2292018111
0.2291832428
0.003862691294
-0.003668707307
-0.2293188318
0.2294006335
0.003586905565
-0.003210298106
-0.2293906225
0.2295345799
0.003066340658
-0.002617606853
-0.229402641
0.2295653908
0.002454856979
-0.002029595142
-0.2293736459
0.2295219274
0.001881313665
-0.458849654
-0.002860787268
0.4602485564
0.001461884846
-0.0001804587256
0.4609064138
-0.001484560346
-0.4592413947
-0.001678778553
0.9181258398
0.0004958932417
0.001698205302
-0.001022495787
0.9180514799
0.0003405909448
0.9144157543
0.9141467834
0.001501150296
0.9135319981
0.004026632215
0.9133915474
0.006807715991
0.9135448143
0.002765297399
0.9149586089
0.006222562398
-0.4580525292
0.4578867261
0.002931100553
-0.4578158827
-0.002901139569
0.4584796825
0.002237339774
-0.4573353599
-0.002302368715
0.4571242973
0.001216691301
0.001296740043
-0.2284958676
-0.001514075899
0.2283278201
0.001682123414
-0.2282623863
-0.002289015149
0.2280252275
0.002526173974
-0.2280773162
-0.002929644719
0.2299218097
0.00108985229
-0.2317886299
0.005241056244
0.2335065459
-0.006940033838
-0.2311815761
0.0105443442
0.2318859786
-0.01123544761
-0.2280984412
0.01178446246
0.227808588
-0.0114979545
-0.2255831058
0.009209084731
0.2243404675
-0.007984313513
-0.2265282144
0.002962025209
0.2244373124
-0.0008890836592
-0.2301977241
-0.005615238603
0.2300498623
0.005762010878
-0.2302675192
-0.004835869964
0.2305837126
0.004519676586
-0.003345118242
-0.2302016485
0.2308567729
0.002689993881
-0.4628323248
0.0002458888945
0.4616165179
0.0009699179802
-0.4599783908
-0.001145122345
0.4599416533
0.001181859817
0.0001258482438
0.9198632989
-0.001103972178
-0.0007593351641
0.001599112347
0.9165782158
0.0007461630802
0.9152687036
0.9148929465
0.0005016690618
0.913030329
0.001096055862
0.9127971606
0.002282834972
0.9123580352
0.00311449366
0.9120476605
0.002079289685
-0.4571483692
0.4567373035
0.003525559358
-0.4600432726
-0.00471266934
0.4570208063
0.007735135648
-0.4586266903
-0.008963830201
0.4602178895
0.002005234804
0.005367396173
-0.2277111948
-0.001969500512
0.2275199594
0.002160735917
-0.2283218819
-0.002176661318
0.2308475413
-0.0003383936409
-0.2368874331
0.00738083882
0.2389010655
-0.009347550277
-0.2377444757
0.01361417058
0.2386304563
-0.01445169602
-0.2331209462
0.0154563547
0.2331062982
-0.01541699274
-0.2268874039
0.01472913032
0.2265613065
-0.01441118755
-0.2213263449
0.01321283654
0.2207257711
-0.01265091522
-0.218904096
0.009964847274
0.2175237844
-0.008639324629
-0.2227653737
0.003280438566
0.2205573648
-0.001114744342
-0.2340917926
-0.001263935133
0.2371616721
-0.001807432539
-0.003518646874
-0.2316701317
0.2316691363
0.003519642274
-0.461561006
-0.00537586186
0.46272852
0.004208347889
-0.4606394944
-0.003030075681
0.4616061292
0.002063440937
0.002969464248
0.9198184135
-0.001557206013
-0.001367372785
0.002080994105
0.917466686
0.0009631890172
0.9163865086
0.9158561355
0.0001193438539
0.9129109852
0.0002891089608
0.9126273955
0.0006116773555
0.9120354668
0.00121846799
0.9110298274
0.0004110424679
-0.4564840971
0.4557004857
0.002002079444
-0.4556210333
-0.002406259014
0.4550175804
0.003009711881
-0.4541647206
-0.003841789728
0.4534293865
0.002431105104
0.002146018646
-0.228198267
-0.004241544248
0.2266412757
0.005798875687
-0.2385648646
-0.00241656171
0.242721717
-0.001682912427
-0.2432400419
0.009606719543
0.2440672614
-0.01035126902
-0.2389588659
0.009995749706
0.2381572035
-0.009129827186
-0.2311463292
0.005119286946
0.2296917016
-0.003638111158
-0.2255066104
0.000414817966
0.2251261237
-4.358896548e-05
-0.2207926719
0.001194121786
0.2217556825
-0.002202835379
-0.215662476
0.005719070147
0.2161062703
-0.006241919083
-0.2247892865
0.01520918789
0.218748655
-0.009242594747
-0.2241813581
0.0006609622277
0.2221951579
0.001281817974
-0.005262251868
-0.2330028255
0.2335332296
0.004731847813
-0.4643522328
-0.006348500732
0.4659137284
0.004787005104
-0.4625233775
-0.003666412336
0.4634719247
0.002717865152
0.003782674721
0.9217158092
-0.003212744327
-0.002467326183
0.00208742663
0.9191619341
0.0009490067305
0.9175249285
0.9168051422
-0.0001515993935
0.9130625846
-0.0002068794659
0.9126826756
-2.279094453e-05
0.9118513783
0.0002002236968
0.9106091319
0.0001976808166
-0.4548377809
0.4545407491
0.0004972554557
-0.4545322786
-0.001443876711
0.4537871171
0.002189038154
-0.4526425276
-0.002713012395
0.4516573754
0.001819005496
0.00187915911
-0.2309805421
-0.0007685057986
0.2325046717
-0.0007268864233
-0.2433454578
0.004404357015
0.2442047985
-0.0051749973
-0.2449077198
0.00339347806
0.2426449321
-0.001035054258
-0.2333477601
-0.006576030515
0.2336085664
0.006370711527
-0.2225868321
-0.016367135
0.2203854178
0.01858152456
-0.2236070019
-0.02671921083
0.2229704253
0.02735402475
-0.2294479956
-0.01983394923
0.2320017817
0.01725463766
-0.2270125042
-0.001983502277
0.2268170117
0.002103675897
-0.214182921
-0.0004576724464
0.214777415
-0.0002374301849
-0.2180625669
4.959656844e-05
0.217368531
0.0005631901864
-0.003563709903
-0.2335890053
0.2328384383
0.004302238974
-0.4672913222
-0.00665984602
0.4686832548
0.005267913362
-0.4640353691
-0.0042305702
0.4645608603
0.003705079078
0.003188196274
0.924032615
-0.002659352346
-0.002845649631
0.00174779221
0.9206023382
0.0007256785601
0.9185470422
0.9175308208
-0.00055424958
0.9136168342
-0.0009775849298
0.913106011
-0.001245981366
0.9121197747
-0.0001079760501
0.910311285
-0.0008401583895
-0.4544216074
0.4541256191
0.0001880122481
-0.4527551272
-0.00041412108
0.4523973448
0.0007719034172
-0.4513001628
-0.001730444921
0.4510014542
0.001010743846
0.001018162402
-0.2354573012
0.0006621540702
0.2362885912
-0.001442410077
-0.2469673058
0.002834832423
0.2450547388
-0.0008112074348
-0.2387513324
-0.0005656940756
0.2375923999
0.001821417589
-0.2209048175
-0.009028275961
0.2164506838
0.01351536385
-0.2113113456
-0.0302321303
0.1074726365
0.1018154664
0.01404151561
0.01821385734
-0.02263965556
-0.1088501935
0.1082462226
0.02324362648
-0.01853470247
-0.2467882925
0.03547711113
-0.01890716034
0.1239309012
0.124822143
-0.02253938668
-0.2340424654
0.2385200081
0.01801269098
-0.2190103894
-0.008787180271
0.2217719755
0.005918828003
-0.2173665053
-0.001546125619
0.2173772118
0.001440820357
-0.002386136985
-0.2293388332
0.2287104713
0.002978095133
-0.4700808229
-0.005768520573
0.4709548931
0.004894450388
-0.4655407097
-0.003706713407
0.466514013
0.00273341017
0.001888135442
0.9257108674
-0.001668687116
-0.001897700818
0.0008877280551
0.9216027455
0.0003305055989
0.9191042647
0.9178613264
-0.0009736130093
0.9145904472
-0.001890727839
0.9140231258
-0.002605925956
0.9128349728
-0.001344528643
0.9109484404
-0.001898552651
-0.4541021339
0.4541091466
-0.001351541342
-0.4522389151
0.001406401282
0.4521426122
-0.00131009837
-0.4500180219
0.001145237033
0.4501779301
-0.0004605648308
-0.000841817899
-0.2374508764
9.936844208e-05
0.2374223603
-6.651472857e-06
-0.2446429249
-0.000574230987
0.2445768135
0.0007527684558
-0.2342272893
-0.002269887436
0.2335412782
0.003045013936
-0.2092378013
-0.005879661573
0.2082170261
0.006910968387
-0.09586842202
-0.004665947035
0.09593835903
0.004596010028
-0.02640902727
-0.1353620164
0.1379551014
0.02381594224
-0.02527001343
-0.2532852994
0.2576445759
0.02088677222
-0.2274864427
-0.01208752095
0.2293713404
0.01010779796
-0.2190386693
-0.005970292546
0.2198865145
0.005015427705
-0.001449939857
-0.2282355467
0.2280655845
0.001573982704
-0.4722012212
-0.003576900868
0.4732312903
0.002546831769
-0.4672932656
-0.001832054652
0.4679464684
0.001178851874
-0.000232106028
0.9265244804
-9.724572193e-06
-0.000571782335
-0.0004050922377
0.9217757317
-0.0002615864534
0.9189607589
0.9175997399
-0.001386035953
0.9159764831
-0.002695396154
0.915332486
-0.004065023589
0.9142046003
-0.002360402377
0.9121495553
-0.002905736164
-0.4543115867
0.4545041254
-0.002552941018
-0.4522180853
0.002773962856
0.4524205211
-0.002976398688
-0.4502971249
0.003154609298
0.4507166131
-0.001686130544
-0.001879789239
-0.2380679317
0.002140512634
0.2381296455
-0.002145648746
-0.2437237724
0.001692154754
0.2435330907
-0.001407934717
-0.231988071
0.0004401435492
0.2317909178
-0.0001720335071
-0.2079295927
-7.049250001e-06
0.2083133437
-0.0003729052581
-0.09949903878
0.001674374776
0.09997418277
-0.002149518772
-0.01185128825
-0.150904647
0.1516117978
0.01114413737
-0.01312603323
-0.2677761798
0.269681765
0.011209041
-0.2347317129
-0.006497991004
0.2359069121
0.005246878329
-0.2220243506
-0.002289815463
0.2225606185
0.001662838713
-0.0004998859803
-0.2284777773
0.2285602378
0.0003691926237
-0.4744882036
-0.000393178331
0.4754940593
-0.0006126773077
-0.4682770549
0.001065571751
0.4684533421
-0.001241858971
-0.002794653222
0.9259823168
0.001921186852
0.001415629883
-0.001990543025
0.9209716215
-0.001039119507
0.9180093353
0.9165606204
-0.001762641235
0.9177391244
-0.003629463868
0.9171993086
-0.005419097823
0.9159942342
-0.00337330732
0.9140332999
-0.003929535077
-0.4548975827
0.4552854456
-0.003761170208
-0.4527010097
0.004204125834
0.4532058608
-0.004708976928
-0.4512902484
0.005180666167
0.4522189544
-0.002858249535
-0.003242016382
-0.2384013062
0.003507571661
0.2385640857
-0.003625018066
-0.2432570863
0.003638546044
0.2432525176
-0.003561661473
-0.2316952637
0.003315697764
0.2317415471
-0.003308761923
-0.2097631154
0.003784106108
0.2102425255
-0.004261916831
-0.1020156454
0.003106701746
0.1022037291
-0.001634676648
-0.001660108792
0.005056328112
-0.1503463744
0.1495263467
-0.004236300489
0.00313963701
-0.2700671985
0.2688572907
-0.001939803426
-0.2368830565
0.0003379518539
0.2367258063
-0.0002450260724
-0.2237487074
0.0006219538127
0.2239094229
-0.000860710668
0.001545739298
-0.2293675016
0.229511293
-0.001731617967
-0.4754887473
0.004124603504
0.4749819074
-0.003617763571
-0.468254435
0.003460350045
0.468553445
-0.003759360113
-0.005637949905
0.9240107726
0.004131906906
0.003477587267
-0.003711859721
0.9190455314
-0.00188022131
0.9161776969
0.9146803991
-0.002226118129
0.9199652425
-0.004433719095
0.9194069096
-0.006765879611
0.9183263947
-0.00435892183
0.9165294117
-0.004903069626
-0.4558622662
0.456434599
-0.004931254631
-0.4537801223
0.005629322404
0.454416583
-0.006265783146
-0.4535203885
0.007001878187
0.4551042929
-0.004186398521
-0.004390415759
-0.2392067208
0.004775805928
0.2394637379
-0.004999854834
-0.2434280944
0.005387927813
0.2435399079
-0.005448974249
-0.2320576284
0.005645357198
0.2322112356
-0.005762787642
-0.2116733263
0.006437564935
0.2121547584
-0.006918614956
-0.1032669927
0.004167923781
0.1033769241
-0.002125225402
-0.00215262985
0.01461984199
-0.1419157605
0.1406846402
-0.01338872167
0.01500860614
-0.2620423348
0.2588580179
-0.01183790515
-0.2341688242
0.005042287404
0.2342503018
-0.005179010216
-0.2238579733
0.004054539565
0.2237154622
-0.003974446799
0.004247459489
-0.2304544668
0.2305824614
-0.004405614245
-0.4740967638
0.008426457628
0.4728793817
-0.007209075606
-0.4686969703
0.006127523732
0.4677153371
-0.005145890525
-0.00827541748
0.9208343178
0.005955513455
0.0054963588
-0.00538278129
0.9161528952
-0.002649863312
0.913444779
0.9120305358
-0.002650954363
0.9226161969
-0.005310347746
0.922066303
-0.008078666614
0.9210947136
-0.005259605081
0.9193083847
-0.005598034457
-0.4571622934
0.4578780312
-0.005975342865
-0.4552539439
0.006801013913
0.4561348007
-0.00768187072
-0.4567357351
0.008635273936
0.458199465
-0.005163826823
-0.004926864765
-0.2403496124
0.005944501218
0.2406938105
-0.006269950984
-0.2440103425
0.006954090844
0.2442076149
-0.007123084383
-0.2327905593
0.007592702532
0.2330094547
-0.007791888142
-0.2137170675
0.008653415281
0.2143061078
-0.009242456479
-0.1040713804
0.005385804929
0.104177411
-0.002726598323
-0.002765237126
0.01818085387
-0.1322773614
0.1310551618
-0.01695865429
0.02033340294
-0.2492011773
0.2458521359
-0.01699976337
-0.2303353495
0.01153737289
0.2272416768
-0.008484143793
-0.2227014753
0.005244660423
0.2221404418
-0.004735557345
0.00637044054
-0.2310873998
0.231193608
-0.006495491954
-0.4713854711
0.01196396115
0.4696344676
-0.01021295765
-0.4666532172
0.008689878101
0.4653447345
-0.007381395442
-0.01062187816
0.9182449225
0.006876006944
0.006335266534
-0.006839369044
0.9123703861
-0.003322830412
0.9099282403
0.9087077054
-0.00671694448
0.9293331414
-0.01359712905
0.9289464876
-0.02055116782
0.9280487524
-0.006249715838
0.9266477553
-0.02164082258
-0.4587620019
0.45965996
-0.007147673943
-0.4570485542
0.008123650718
0.4581443678
-0.009219464291
-0.4606441016
0.01029108777
0.4627038098
-0.006258208691
-0.006096120967
-0.2415455026
0.007748646731
0.2422300582
-0.008436184118
-0.2448610024
0.008492177612
0.2448632308
-0.008489946797
-0.2337326385
0.008464525038
0.2346185651
-0.009344728749
-0.2163780845
0.01051333649
0.217169523
-0.005608257159
-0.005696517807
-0.0526577497
0.003398784357
0.0526998708
-0.003440905453
-0.05821210477
0.006614527992
0.05772913901
-0.01289747585
0.006765913614
0.0169071083
-0.123756333
0.2441321148
-0.03013804648
0.01655976762
-0.1237046113
-0.2370828073
0.0196775536
0.2330891157
-0.01569778735
-0.222506698
0.01111453158
0.2214349005
-0.01007061242
-0.221285104
0.008752582605
0.2211433579
-0.008636102762
0.008610568467
-0.2321058374
0.2320636054
-0.008574210612
-0.4675548363
0.01427669939
0.4654756046
-0.01219746762
-0.4639840824
0.01059991684
0.4625114779
-0.009127312289
-0.01245643883
0.9144611617
0.008350682395
0.007889517327
-0.008019783533
0.9079337308
-0.003945004709
0.9058534616
0.9047627007
-0.003173813303
0.9325069547
-0.006429250708
0.932201925
-0.009852546711
0.9314720484
-0.006685557041
0.9303374756
-0.006856709979
-0.4625739312
0.4635236799
-0.007635305742
-0.4610367971
0.00869415356
0.4621686885
-0.009826044854
-0.4653086315
0.01105026203
0.4654680924
-0.005702561868
-0.005506694675
-0.2435659661
0.005705806552
0.243572168
-0.005713022341
-0.24584479
0.005953313776
0.2460750565
-0.006184424944
-0.2348990969
0.007636326275
0.2357111657
-0.008448404414
-0.2202561233
0.01199596209
0.2212306114
-0.006468577024
-0.006501873159
-0.05426909473
0.008390595991
0.1089216393
-0.05419789764
-0.004399413453
-0.004445829486
-0.1122522105
0.009254445475
0.1121886036
-0.01820582695
0.009014988434
0.03005485263
-0.2374408663
0.2349448446
-0.02755890532
-0.2255402489
0.01516057343
0.2239899907
-0.01361350462
-0.2197785594
0.0109745374
0.2178258537
-0.009032223728
-0.2210714051
0.007411480716
0.2226201043
-0.008974326054
0.009513978266
-0.2328445816
0.2326220175
-0.009292485519
-0.4636477614
0.01513257752
0.4620194003
-0.01350421634
-0.4610235639
0.01192736997
0.4593029306
-0.01020673666
-0.01199203446
0.9098205392
0.008256525415
0.008376131577
-0.008767775829
0.9047094722
-0.004290083793
0.9013757695
0.9004726169
-0.003346158472
0.9358531132
-0.006774308709
0.9356300753
-0.01036879305
0.9350665328
-0.007043081468
0.9341829802
-0.007171216152
-0.4645686059
0.4655949662
-0.00806944176
-0.4633262576
0.009179340717
0.4645008223
-0.01035390533
-0.464902135
0.01161647581
0.4643088446
-0.005437958157
-0.005578554698
-0.2426533134
0.004224246846
0.2420490764
-0.003619100705
-0.2463425997
0.002296170359
0.2462294773
-0.002179938481
-0.2387846033
0.003324101343
0.2397870628
-0.004321885326
-0.2260881831
0.0094656051
0.2285351572
-0.01191052313
-0.1118956288
0.0167237357
0.2225138828
-0.0161346638
-0.1112073259
-0.2270287858
0.02237903348
0.2276283115
-0.02297855917
-0.2278993083
0.01951856631
0.2259364331
-0.01755133457
-0.2187131574
0.01300253557
0.2177557137
-0.01203683197
-0.2150524795
0.01068077509
0.215017992
-0.01063947166
-0.2228304117
0.01117806152
0.2219964794
-0.01034487206
0.01136288783
-0.2323389893
0.23000923
-0.009033128544
-0.4605892112
0.01676711956
0.4575036977
-0.01368160607
-0.4575681401
0.01224672788
0.455587363
-0.01026595077
-0.01240882098
0.9052764935
0.008555473789
0.008397392873
-0.008847627762
0.901148279
-0.004508897091
0.8970370389
0.8959637198
-0.003439663694
0.9392927769
-0.006955186349
0.9391455979
-0.01062279009
0.9387341365
-0.007225392486
0.938082617
-0.007297034392
-0.4666473594
0.4676978031
-0.0082758362
-0.4656762469
0.009392024249
0.4668461881
-0.01056196545
-0.4645821638
0.01180865096
0.4658899096
-0.006544107906
-0.006572125827
-0.2394506198
0.004637971668
0.2383674364
-0.003553236152
-0.2449953737
0.0005900847131
0.2442721979
0.0001383768563
-0.2418662386
-0.0009658155107
0.242134129
0.0007070131018
-0.2341045717
0.001640468505
0.2353004207
-0.002826363894
-0.2227724324
0.006356731591
0.2232704867
-0.006846374139
-0.2267457251
0.009229160531
0.2265334932
-0.009007704246
-0.2220518243
0.007229959635
0.2214293801
-0.00659537528
-0.216380116
0.005557523591
0.2164481446
-0.005613621475
-0.2161370032
0.006962460259
0.2168974032
-0.007715176411
-0.2237422716
0.01031331587
0.2245746954
-0.01114370172
0.01074180103
-0.2281309447
0.2275553044
-0.01016616071
-0.4568265686
0.01704739474
0.4542039814
-0.01442480758
-0.4527860874
0.01108590772
0.4512612849
-0.009561105206
-0.01160400579
0.8992836919
0.009059565871
0.008537241516
-0.006438615082
0.8959828883
-0.004568561912
0.8951669857
0.8913951579
-0.003460645023
0.9427534219
-0.006987630351
0.9426725833
-0.01064423884
0.942390745
-0.007249817494
0.9419365197
-0.0072483241
-0.4687323161
0.4697669139
-0.008284415355
-0.4679964784
0.009371165486
0.469123798
-0.01049848504
-0.4671891599
0.01168569997
0.4684434085
-0.00649026514
-0.006449683392
-0.2347549055
0.007134365015
0.2338238281
-0.006202559291
-0.2412621961
0.002290221476
0.2400454003
-0.001068932208
-0.241553839
-0.001803606
0.2409536424
0.002413384954
-0.2371087284
-0.003118917122
0.2372108833
0.003030351576
-0.2248926351
-0.002347763195
0.2253757984
0.001880057787
-0.226697859
-0.0007630321782
0.2269605691
0.0005162869425
-0.2212970687
0.0003265568299
0.2217256875
-0.0007402729913
-0.2180831759
0.002702817916
0.2190178166
-0.003626346585
-0.2200740893
0.007039028542
0.2213351009
-0.008294773888
-0.2267769252
0.01169635992
0.2263837802
-0.01130327526
0.009891974584
-0.226020166
0.2255567327
-0.00942854127
-0.4505927048
0.01606568248
0.4489505725
-0.01442355018
-0.4497532733
0.01285071872
0.4482278552
-0.01132530066
-0.01078674739
0.892419883
0.009713679631
0.00793687665
-0.006052399373
0.8912485403
-0.004207010865
0.8933215972
0.8871881471
-0.003420768651
0.9461741906
-0.006896304245
0.9461481189
-0.01047460879
0.9459690495
-0.007136304402
0.9456704082
-0.007072192891
-0.4707696444
0.4717614518
-0.008128111805
-0.4702176263
0.00916093281
0.4712777103
-0.01022101682
-0.4696463845
0.01132273639
0.4707929307
-0.006269392764
-0.006199889891
-0.2345436899
0.006869148216
0.234850491
-0.007175949272
-0.2361673487
0.007357675276
0.2349151989
-0.006104521618
-0.2383500529
0.002544623773
0.2373368317
-0.001525854123
-0.2364790987
-0.0007613752328
0.2360040874
0.001246205301
-0.2263462171
-0.002000230674
0.2264899629
0.001868915178
-0.2281169546
-0.0009405451241
0.2285721592
0.000497971792
-0.2239134886
0.001545458563
0.2248187814
-0.002440477306
-0.2224882475
0.005703826993
0.2237334304
-0.006943235912
-0.2252459263
0.01079660611
0.2258608508
-0.01141097309
-0.2251515682
0.0104143603
0.2247955908
-0.01005838294
0.008963892595
-0.2243299078
0.2239574624
-0.008591447164
-0.4474320732
0.01484089628
0.4460328809
-0.01344170394
-0.4468189546
0.01206847901
0.4454605547
-0.01071007911
-0.01363465269
0.887506265
0.009156434111
0.009391836575
-0.008961774494
0.8865756621
-0.00161748223
0.885977305
0.8855706648
-0.003331882948
0.9495060735
-0.006705902061
0.949522138
-0.01015418568
0.9494173332
-0.006911986323
0.9492303882
-0.006802179336
-0.4727154526
0.4736506443
-0.007847178088
-0.4722964434
0.008812230442
0.4732761406
-0.009791927636
-0.4718810793
0.01079683515
0.472910606
-0.005957105716
-0.005869256182
-0.235708991
0.006486539447
0.2359755188
-0.006753067189
-0.2352112283
0.007552834972
0.2354765336
-0.007818140226
-0.2344156895
0.008602906929
0.2345549613
-0.008742355831
-0.2343313927
0.007074611476
0.233783234
-0.006524161601
-0.2261575644
0.005416448912
0.2257670076
-0.005021705239
-0.2299698879
0.006239594499
0.2304016333
-0.00666719804
-0.227572171
0.008624679807
0.2284036965
-0.009454190212
-0.226695191
0.01088320296
0.2265486232
-0.01073663521
-0.2250797799
0.01017079844
0.2248549299
-0.009945948484
-0.223860149
0.009188683876
0.2235863077
-0.008914842553
0.00805184176
-0.2229723774
0.2226690536
-0.007748517968
-0.4447440767
0.0135363838
0.4435573908
-0.01234969796
-0.4442156764
0.01116104554
0.4430191846
-0.009964553758
-0.01280556282
0.8830185392
0.008509398257
0.008783890407
-0.008459019254
0.8822291185
-0.004202224212
0.8817205099
0.8813684406
-0.003206303331
0.9527123769
-0.006442349276
0.9527581839
-0.009725744593
0.9527007285
-0.006610101468
0.9525846799
-0.006469934784
-0.4745451338
0.4754162369
-0.007481204646
-0.4742115561
0.00837237397
0.4751066093
-0.009267427228
-0.4738838878
0.01017387449
0.4748003104
-0.005589931879
-0.005500365223
-0.2367176501
0.006055391142
0.2369475724
-0.006285313401
-0.2362002327
0.006961198765
0.2364195057
-0.007180471818
-0.2352345132
0.007813678418
0.2354357015
-0.008014866773
-0.2339017645
0.008578860649
0.234071744
-0.008748840205
-0.2245185599
0.00889476958
0.2242256302
-0.008601839874
-0.2309783449
0.009670280603
0.2310134342
-0.00970536995
-0.2285875947
0.009698717307
0.2285472504
-0.009658372984
-0.2261637421
0.009423373272
0.2260502078
-0.009309838968
-0.2242646465
0.008875014943
0.2240913502
-0.008701718692
-0.2228573917
0.008111606914
0.2226410364
-0.007895251598
0.007201702269
-0.2218695247
0.2216204201
-0.006952597708
-0.442463136
0.0122573451
0.4414519556
-0.01124616476
-0.4419267189
0.01021817072
0.4408762339
-0.009167685775
-0.01188333917
0.8789577529
0.007830026001
0.00811409947
-0.007884973098
0.8782307524
-0.003927103804
0.8777626406
0.8774413368
-0.003056036095
0.955768413
-0.006130629797
0.9558327776
-0.009228769931
0.9557988686
-0.006259400781
0.9557178778
-0.006102567107
-0.4762461614
0.4770518802
-0.007065119573
-0.4759577654
0.007882108735
0.4767701281
-0.008694471454
-0.4756622822
0.009507531828
0.4764728239
-0.005198458542
-0.005119614912
-0.2375875047
0.005610901738
0.2377859106
-0.005809307728
-0.2370193592
0.006382261169
0.2372018286
-0.006564730613
-0.2359759256
0.007082122162
0.2361375049
-0.007243701495
-0.2345190906
0.007690173454
0.2346495754
-0.007820658226
-0.2235527608
0.00781855912
0.2233895959
-0.00765539423
-0.2310861302
0.008498713945
0.2311013591
-0.008513942908
-0.2284272307
0.008476743977
0.2283875454
-0.008437058701
-0.2257432248
0.008235646741
0.2256502108
-0.008142632726
-0.2236271173
0.007792193442
0.2234881198
-0.007653195927
-0.2220576093
0.007178066001
0.2218821208
-0.00700257753
0.006433888662
-0.2209638149
0.220756911
-0.006226984717
-0.4405160614
0.01105602387
0.4396489822
-0.01018894465
-0.4399184942
0.009296934925
0.4389957083
-0.008374149052
-0.01093593299
0.8753001579
0.007156930261
0.007436597732
-0.007283340973
0.8745781604
-0.003635399569
0.8741146992
0.8738059373
-0.002891008132
0.9586594211
-0.005790989316
0.9587327588
-0.008694741305
0.9587026206
-0.005881837122
0.9586264864
-0.005721512765
-0.4778163527
0.4785589013
-0.006624385786
-0.4775410852
0.007370415828
0.4782761229
-0.008105453554
-0.4772348725
0.00883373723
0.4779516383
-0.004808702223
-0.004741800825
-0.2383387201
0.005174520629
0.2385104599
-0.00534626033
-0.237703404
0.005834986953
0.2378567481
-0.005988331037
-0.2365757799
0.006417318992
0.2367082227
-0.006549761713
-0.2349926375
0.006910968628
0.2350923919
-0.007010723036
-0.2230523866
0.006930746657
0.2229841006
-0.006862460656
-0.2311254047
0.007524570466
0.2311272708
-0.007526436552
-0.2282694959
0.007470358781
0.2282304952
-0.00743135804
-0.2253933141
0.007252428265
0.2253140132
-0.007173127456
-0.2231093321
0.006879978614
0.2229940905
-0.00676473699
-0.2214030115
0.00637114215
0.2212571908
-0.00622532146
0.005749619438
-0.2202080617
0.2200334416
-0.005574999308
-0.4388439141
0.009952501989
0.4380951831
-0.009203771003
-0.4381542979
0.00842581001
0.4373415789
-0.007613091118
-0.01000674673
0.8720128739
0.006515198247
0.006778832412
-0.006685007209
0.8712564209
-0.003342924966
0.870772617
0.8704630123
-0.002720402517
0.9613798236
-0.005441897158
0.9614542535
-0.008151788304
0.9614125117
-0.005500398318
0.9613178046
-0.005342708217
-0.4792602398
0.4799428224
-0.006182980893
-0.4789734084
0.006863255973
0.4796383253
-0.007528172874
-0.4786263442
0.008181224698
0.4792619446
-0.004436947451
-0.004379877647
-0.2389902014
0.004762172597
0.2391397403
-0.004911711529
-0.2382807543
0.005332236478
0.2384111724
-0.005462654641
-0.2370713048
0.00582420566
0.2371821952
-0.005935096034
-0.2353537649
0.006232397884
0.2354294717
-0.006308104643
-0.2228867377
0.006190263592
0.2228850782
-0.006188604147
-0.2311182127
0.006708693038
0.2311110147
-0.006701495048
-0.2281145253
0.006633186317
0.2280762295
-0.006594890533
-0.2250915857
0.006432096553
0.225021982
-0.006362492806
-0.2226755223
0.006109995518
0.2225773079
-0.006011781209
-0.2208546373
0.005677597705
0.2207308208
-0.00555378128
0.005148410711
-0.2195670814
0.2194174163
-0.004998745615
-0.437396912
0.00896057497
0.4367446176
-0.008308280495
-0.4365994639
0.007625244401
0.4358804937
-0.006906274171
-0.009127026586
0.8690581074
0.005919521385
0.006162271741
-0.006112501696
0.868241896
-0.003061371249
0.8677214866
0.867401641
-0.002550828826
0.9639306524
-0.005096485829
0.9639999105
-0.007619102724
0.9639351286
-0.00512795217
0.9638044676
-0.004977813539
-0.4805853896
0.4812124651
-0.005755027738
-0.480269444
0.006375681759
0.4808719327
-0.006978170478
-0.4798611099
0.007565576746
0.4804272741
-0.004092043544
-0.004039697413
-0.239558782
0.004381159732
0.2396898957
-0.004512273459
-0.2387740183
0.004877635605
0.2388863766
-0.004989993843
-0.237489174
0.005299903462
0.2375838384
-0.005394567928
-0.2356269696
0.005642489419
0.2356838666
-0.005699386369
-0.2229550265
0.005567194039
0.2229998311
-0.005611998632
-0.2310791922
0.006020113089
0.2310656405
-0.006006561306
-0.2279624256
0.005930099479
0.2279248693
-0.005892543173
-0.2248245641
0.005741998726
0.2247621494
-0.005679584037
-0.2223026969
0.005457122663
0.222217106
-0.005371531771
-0.2203857925
0.005081865988
0.2202786827
-0.004974756171
0.004623608518
-0.2190151512
0.2188850898
-0.004493547147
-0.4361335266
0.008078824856
0.4355601029
-0.007505401179
-0.4352226566
0.006901488115
0.4345833314
-0.006262162859
-0.008313496038
0.8663977561
0.005377346714
0.005596500605
-0.005578610016
0.86550701
-0.002797535052
0.8649404116
0.864604106
-0.002387497078
0.9663181495
-0.004764995721
0.9663774091
-0.007111327444
0.9662814603
-0.004774135353
0.9661026051
-0.004635329604
-0.4818014727
0.4823780787
-0.005350741415
-0.4814445598
0.005918138372
0.4819921049
-0.006465683449
-0.4809631276
0.006996133532
0.4814709
-0.003775818497
-0.003728087452
-0.2400584875
0.004032948721
0.2401743149
-0.004148776162
-0.2392009355
0.004469419496
0.2392990232
-0.004567507225
-0.2378480079
0.004837495191
0.2379301354
-0.004919622658
-0.2358312625
0.005128590644
0.2358734145
-0.005170742627
-0.2231853749
0.005037941041
0.2232614106
-0.005113976688
-0.2310178164
0.005433322657
0.2309997906
-0.005415296861
-0.227813413
0.00533349761
0.2277766582
-0.005296742791
-0.2245836986
0.005155992925
0.2245268467
-0.005099141015
-0.2219756498
0.00489972275
0.2218997331
-0.004823806048
-0.2199778853
0.004568458681
0.2198837713
-0.004474344708
0.004165880955
-0.2185334579
0.2184190685
-0.004051491563
-0.4350205018
0.007302191933
0.4345119376
-0.006793627688
-0.4339968846
0.006255801172
0.4334251254
-0.005684041952
-0.007575430932
0.8639953274