/*--------------------------------*- C++ -*----------------------------------*\
| =========                 |                                                 |
| \\      /  F ield         | OpenFOAM: The Open Source CFD Toolbox           |
|  \\    /   O peration     | Version:  v1912                                 |
|   \\  /    A nd           | Website:  www.openfoam.com                      |
|    \\/     M anipulation  |                                                 |
\*---------------------------------------------------------------------------*/
FoamFile
{
    version     2.0;
    format      ascii;
    class       volScalarField;
    location    "0.45";
    object      k;
}
// * * * * * * * * * * * * * * * * * * * * * * * * * * * * * * * * * * * * * //

dimensions      [0 2 -2 0 0 0 0];


internalField   nonuniform List<scalar> 
12556
(
36.90869595
36.90874412
36.90881987
36.90892731
36.95442549
36.95491671
36.95578029
36.95767498
36.96137527
36.96760843
36.97636726
36.98558157
36.99158593
36.99056651
36.98378496
36.97488086
36.96698122
36.96112954
36.95786104
36.9558599
36.90970194
36.90903432
36.90867981
36.90842433
36.72747532
36.72768328
36.72791687
36.72839481
36.77402156
36.77647771
36.78148308
36.81121274
36.82821904
36.85708279
36.89801759
36.94243762
36.97223019
36.97233413
36.94289034
36.90098769
36.86209388
36.83331484
36.79352116
36.78215903
36.73173843
36.72917415
36.72792434
36.72724268
36.54740988
36.54790554
36.54852756
36.54964038
36.59622143
36.60231894
36.61421582
36.65517174
36.69608559
36.76401306
36.85700194
36.94297011
36.99329538
36.99412925
36.94512331
36.86160539
36.77306305
36.70806292
36.64137835
36.61600508
36.55791864
36.55252089
36.5498443
36.54870704
36.36874768
36.36928427
36.37032022
36.37280981
36.42105472
36.43359688
36.45841265
36.52166296
36.60663223
36.74177479
36.88649699
37.01368478
37.08863536
37.08910722
37.01662125
36.89319578
36.75111895
36.62176004
36.51230875
36.46337687
36.39100209
36.38024828
36.37506049
36.37298075
36.19193834
36.19268009
36.19455569
36.19941774
36.25095913
36.27304075
36.32043958
36.41866238
36.58060569
36.78220452
37.00419131
37.21445086
37.34127945
37.33514741
37.2079778
37.00973164
36.79673183
36.60307033
36.41876269
36.32887954
36.23129318
36.21221868
36.20302033
36.19936912
36.01661493
36.0176775
36.02081848
36.02907544
36.08673
36.12393766
36.20609897
36.35960033
36.59735935
36.89127417
37.26108994
37.68948545
37.97295815
37.92429251
37.60844273
37.25783835
36.92267414
36.63742708
36.369294
36.21684324
36.08256252
36.04822776
36.03301674
36.02696127
35.8435173
35.84529243
35.85063667
35.86364524
35.92905755
35.98651199
36.11612756
36.34039619
36.65780612
37.08651895
37.72628848
38.81838077
39.59897233
39.39199614
38.37436568
37.68194932
37.14180271
36.72523261
36.36686283
36.13164727
35.9430325
35.88865143
35.86466729
35.85519776
35.67323715
35.67594916
35.68404564
35.70323308
35.78009666
35.86232407
36.05026395
36.34173968
36.75075845
37.34572048
38.3745144
40.73373697
41.91554282
39.64441387
38.30406012
37.45300416
36.86302105
36.39079448
36.07108482
35.8146667
35.73409029
35.69848373
35.68458756
35.50749269
35.51174406
35.5238784
35.55185976
35.6404342
35.75205569
36.00207109
36.3532799
36.85807864
37.60555981
38.94076016
42.36780162
46.06589111
41.23169248
39.063522
37.83373805
37.0379295
36.43316568
36.03193223
35.69765404
35.58628949
35.53640022
35.51713033
35.34722659
35.3531219
35.36952514
35.40762886
35.50922692
35.65426497
35.96420898
36.37154494
36.9634585
37.82725382
39.33152626
43.00724108
49.08809722
42.68810379
39.82691694
38.22933517
37.22872417
36.48777966
36.00800139
35.59319886
35.44756972
35.38148118
35.35593801
35.19421085
35.20240937
35.22442322
35.27481365
35.38673128
35.5669641
35.93250547
36.39240388
37.06119311
38.01843303
39.65621258
42.91377524
50.61613371
43.7745467
40.47515795
38.58863893
37.41199583
36.54514897
35.99329953
35.50040378
35.32023717
35.23682389
35.20435044
35.0482292
35.05845354
35.08542934
35.14739609
35.27299957
35.48731663
35.90418091
36.41434281
37.15369656
38.19959714
39.97671208
42.5067514
51.26894671
44.48070311
40.96078454
38.88058212
37.57106269
36.596712
35.98176583
35.41937587
35.20446474
35.10415927
35.06446257
34.91005062
34.92292867
34.95694768
35.03204036
35.16575316
35.41166159
35.87474267
36.43664763
37.24222291
38.38350444
40.33429283
41.97734752
48.80304121
51.05895817
44.87894552
41.28128776
39.08773096
37.69290979
36.63553298
35.96596731
35.34538028
35.09987756
34.98325047
34.93673236
34.77793822
34.79325869
34.83355083
34.91900089
35.07123659
35.35702775
35.86620448
36.47456582
37.35083631
38.61033615
40.75473229
40.77050383
56.20273841
51.0168786
45.03640905
41.43629161
39.21402032
37.77454041
36.65906234
35.94229272
35.27268866
35.00323289
34.87187518
34.81914387
34.65121715
34.66881281
34.71477151
34.80967489
34.9741928
35.28722623
35.83168936
36.49318442
37.44161516
38.80669579
41.02979747
37.04618236
55.58010767
50.50300078
44.90706457
41.44857109
39.2613445
37.81599583
36.66058454
35.90547824
35.19953803
34.91091461
34.76691385
34.70899411
34.52708966
34.5467804
34.59766566
34.70131539
34.87763327
35.21220926
35.78509459
36.49738276
37.53187764
39.00555203
41.12140992
31.63646806
53.64158885
49.48261684
44.56245721
41.33973683
39.24191086
37.8117863
36.63295536
35.85101818
35.11982317
34.81729889
34.6641831
34.60201859
34.40516591
34.42667343
34.48142459
34.59227758
34.77875277
35.1294999
35.7229606
36.47248107
37.59049995
39.17086193
40.80014171
26.41468371
51.88251683
48.28395855
44.01378202
41.13218331
39.17292862
37.76416274
36.5665949
35.77821913
35.03329192
34.72167068
34.56094993
34.49531004
34.28217364
34.30522147
34.36305553
34.4801344
34.67564799
35.03767362
35.64465989
36.41267103
37.58235329
39.20066591
40.10559598
24.4133956
50.3413658
47.16951376
43.45117578
40.87086303
39.03407302
37.66157651
36.46918395
35.68360921
34.93449086
34.61771454
34.45353105
34.38530313
34.15929691
34.18356274
34.24349655
34.364973
34.56717806
34.93648474
35.55104275
36.32864722
37.50566828
39.07378203
39.1302266
23.74054862
48.96067376
46.27970121
42.98800424
40.60350319
38.85112509
37.52191066
36.34881697
35.57234424
34.82579122
34.50716406
34.34110494
34.27150948
34.03298291
34.05819735
34.11974911
34.24500909
34.45306258
34.82659551
35.44414873
36.22528059
37.39623555
38.84879015
38.20948377
22.84580232
47.68790302
45.58873278
42.5761266
40.32472171
38.6461537
37.35890682
36.21138376
35.4473226
34.70710162
34.38851631
34.22172456
34.15127807
33.90665747
33.93253021
33.99493731
34.12216242
34.33352253
34.70914189
35.32645133
36.10692458
37.26288652
38.57906827
37.31646172
22.1118496
46.50079453
44.94374093
42.18555546
40.04699643
38.43173557
37.1823541
36.06157214
35.31151531
34.58102023
34.26439438
34.09777761
34.0269129
33.77561715
33.80196058
33.86513783
33.99445972
34.20928526
34.58548783
35.20038434
35.97725827
37.11110145
38.27443588
36.46458271
21.5777148
45.38911444
44.33293565
41.81606356
39.7763035
38.21495948
36.99879001
35.90327105
35.16771435
34.44741871
34.13301317
33.96680267
33.89576144
33.6461445
33.67274615
33.73610304
33.86571157
34.08114587
34.456994
35.06803727
35.8392461
36.94495797
37.94508752
35.66198157
21.17121896
44.33811773
43.75039075
41.46341616
39.51510359
37.99989045
36.81240714
35.7397341
35.01830697
34.31010928
33.99906024
33.83360795
33.76256763
33.51082715
33.53761029
33.60141259
33.73241806
33.95014566
34.32495737
34.93120332
35.69518997
36.76751056
37.60161904
34.91413915
20.83674397
43.33662754
43.19109466
41.12347488
39.2634337
37.78875277
36.62589531
35.57348642
34.86531441
34.16740377
33.85877217
33.69377483
33.62274829
33.37998668
33.40680843
33.47049436
33.60077193
33.817028
34.19051724
34.79141205
35.54692295
36.58079013
37.25113688
34.22238275
20.54230709
42.37377228
42.6507428
40.79350319
39.02007241
37.58254162
36.44098546
35.40636212
34.71025826
34.02459714
33.71954865
33.5552181
33.48424837
33.24125658
33.26813007
33.33223953
33.46400373
33.68273162
34.0546114
34.64990303
35.39576155
36.38605253
36.89765404
33.58511741
20.26653591
41.44688549
42.12560691
40.47149198
38.78348976
37.38138147
36.25864637
35.23959357
34.55435613
33.87698851
33.5735993
33.40934554
33.33831938
33.11140346
33.13822633
33.20211158
33.33241712
33.54764905
33.91799333
34.50760863
35.24256454
36.18431204
36.54496903
32.99916591
20.00060356
40.55158059
41.61264195
40.15573357
38.55229234
37.18493449
36.07933314
35.07399148
34.39838867
33.73305929
33.43322493
33.26936614
33.19828715
32.96964242
32.99648423
33.06089554
33.19327812
33.41259822
33.78122259
34.36513823
35.08779163
35.97684617
36.1959808
32.45994152
19.74035584
39.68145685
41.10900574
39.84453391
38.32518373
36.9925956
35.9031289
34.91001996
34.24305469
33.58271472
33.28336821
33.11913061
33.0478262
32.84342119
32.87020106
32.93437322
33.06457921
33.27752723
33.64471502
34.22288334
34.93168951
35.76505235
35.85220469
31.96223409
19.48728899
38.8340451
40.61251787
39.53627997
38.10096835
36.8036834
35.72992645
34.74794381
34.08860997
33.44118339
33.145554
32.98146003
32.909949
32.69794891
32.72476394
32.78957413
32.92272438
33.14333342
33.50879646
34.08107204
34.77440578
35.55018473
35.51444998
31.50105178
19.24285797
38.00895375
40.12094589
39.22940544
37.87850151
36.6174745
35.55948801
34.58788538
33.93555341
33.28817669
32.9916666
32.82681369
32.7548954
32.57855599
32.60533952
32.66998264
32.80026104
33.00946517
33.37371064
33.93985697
34.61609088
35.33351592
35.18325386
31.07197301
19.00751267
37.20399487
39.63255439
38.92245427
37.65672566
36.43326592
35.39153264
34.42989989
33.78377559
33.15284239
32.86045773
32.69553678
32.62327587
32.42718998
32.4540495
32.51937123
32.65336415
32.87723509
33.23970316
33.79937061
34.45695078
35.11598688
34.85898314
30.67135909
18.78267228
36.41682367
39.14598294
38.61416932
37.43473439
36.2504445
35.2257665
34.27400963
33.63387259
32.99467418
32.70013868
32.5342315
32.4613956
32.31901373
32.34588837
32.41123738
32.54221612
32.7454094
33.10700493
33.65979338
34.29721745
34.8983115
34.5418621
30.29660817
18.57018424
35.64578144
38.66080919
38.3035341
37.21179527
36.06848644
35.061888
34.12028758
33.48540335
32.87140627
32.58110549
32.41489344
32.34163268
32.15744118
32.184447
32.25040935
32.38464516
32.61646156
32.9761289
33.52148297
34.13720008
34.68119231
34.23220328
29.94612814
18.3725504
34.89006502
38.17549543
37.9899773
36.98747497
35.88705292
34.89973268
33.96910504
33.33969687
32.70120346
32.40880578
32.24155833
32.16755726
32.06675858
32.09384326
32.16010453
32.29361811
32.48870955
32.84812393
33.38564175
33.97721043
34.46541921
33.93051704
29.61938303
18.19425739
34.15049057
37.68969175
37.67350849
36.76164635
35.7059664
34.73913375
33.82173849
33.19676727
32.60106596
32.31036632
32.14256073
32.06811323
31.8606644
31.88800562
31.95514766
32.09154329
32.36884096
32.72591264
33.25662328
33.81795398
34.25238935
33.63950146
29.31810446
18.03622215
33.43268376
37.20850273
37.35691598
36.53536915
35.52563726
34.58017588
33.68220183
33.06218744
32.38189988
32.08962686
31.92037692
31.84485673
42.23921224
46.49798081
42.25719374
42.97906418
49.87936977
46.9288813
42.95092147
51.5326239
50.17006491
42.56797185
52.20122095
51.64511345
42.01410836
44.59254668
47.8969043
52.48462181
52.23893497
41.1772516
54.04639301
45.0088953
55.91871388
52.97391118
52.50693681
40.44022122
39.51357996
41.85982094
39.34401737
49.30865639
43.55241024
45.5912574
41.6045016
40.12883548
39.24412792
42.20578572
41.57314567
54.43600693
54.92956675
48.80503217
43.43731538
42.09436635
39.57768867
42.45412957
42.26702561
43.0350607
44.46741686
45.32498058
54.00744506
53.4802878
50.49230326
44.773567
43.82115924
39.90620382
42.3455831
42.4513763
42.78094113
41.36144561
43.05412463
55.05860999
54.48670434
40.25130643
42.10261818
42.32470123
42.29396578
37.24379597
39.34863681
39.63414029
55.67189265
55.45618135
40.67527433
41.63959494
42.06073797
41.68614718
32.37878159
34.40682202
39.83270053
54.98223797
54.34019991
45.95567836
47.4099218
42.68512582
45.6302411
54.77327034
49.60413005
44.61763419
48.81293934
53.49062814
45.4323252
46.10715885
42.78489538
46.63861986
45.49968395
47.42891075
46.77456424
53.52733286
54.30879822
48.57935401
54.93300267
54.54210535
53.71696085
54.9646094
48.34871339
43.21799257
44.32420431
43.02744607
44.05199338
42.48456893
45.42644001
44.14911206
54.37958884
54.06877094
51.07376174
54.99436287
55.1793434
54.52469693
54.94983252
50.88966339
39.46537534
41.25494052
42.73158108
40.44164122
38.25968512
42.3787695
40.56275663
55.42567485
55.11555646
34.53789069
37.09106152
42.26183626
39.87809145
35.44162556
32.93966849
38.13427034
35.62267936
40.2576738
55.95813468
55.70058171
39.69152211
40.18714981
32.32093014
41.64382114
51.21095541
32.20865367
71.22048585
32.86668441
32.20320106
50.60053742
38.81961877
41.45766846
40.15980361
41.52648746
44.80829309
42.33773579
57.76978269
45.56107499
42.69538951
46.19068062
46.42536856
43.94377942
51.23193316
45.61525046
45.02401583
48.00680146
50.59939162
49.35062648
53.28331241
56.20827649
56.02780352
46.30956883
45.06255254
41.74066214
51.82479135
44.31527125
50.15699457
43.22703652
47.97186168
44.04583716
49.00119356
45.75448396
52.00352483
55.33298691
55.43390138
55.1918657
55.31800624
51.93562643
40.71262994
43.83856836
47.37007743
40.98308065
40.58863864
42.32205527
43.15330796
41.06190541
41.05262109
61.45524225
46.6617
57.41256733
44.90073626
54.5930355
45.91488683
55.26657588
55.29721492
53.70578749
53.67248641
41.41156048
42.81951129
54.86292645
41.72154699
44.29423487
44.00469503
41.69338121
54.79685196
38.38609204
41.8932334
41.58527664
52.85214445
51.26038918
44.70340866
33.55514853
39.95881373
39.51646351
40.52083348
40.11676128
33.70686619
55.26498557
52.19478723
46.69375725
52.45158726
53.37594605
48.90076813
52.17921907
46.89515691
44.03120345
48.23570885
43.79068538
52.78668839
48.86703969
44.4913496
50.71952052
55.12854624
52.69886649
52.33350119
46.09902943
42.85233942
46.02567135
47.24655128
45.72235833
48.44979029
43.18619597
45.35903642
47.14265676
53.99109819
54.06517481
54.73820863
52.14230688
51.53743249
52.76469437
52.31442064
54.70738514
54.80092479
50.22826419
49.25288864
51.30876075
50.52016938
54.89224907
43.33931611
43.23788369
44.87125406
44.79036033
54.46927988
44.48761206
54.42210175
39.57578508
39.42615856
41.53175004
41.40826293
44.83012038
48.36947412
55.26759425
45.10309984
41.58565254
36.10329569
41.02794357
40.6529741
41.47894216
41.14514753
36.22811544
40.15546775
34.66221827
34.56192155
37.25469808
37.12679798
48.96317786
42.33174633
54.31638746
53.2869338
39.34756604
38.93891677
32.07158978
33.68580071
41.90286793
41.04321233
32.49170217
59.9604641
41.09725044
53.51411428
32.43367432
48.28987507
42.28176985
40.66733885
55.80605689
39.99967762
40.03387689
40.97177333
41.25901412
41.56353772
40.3275485
32.95251737
41.03714078
56.05685188
52.44181026
52.90307387
48.72205082
40.17500022
41.69042592
55.2635838
54.58866237
43.23584409
56.29638899
56.24270572
53.71922396
42.44908347
41.93669182
43.98376732
44.93120807
42.25605134
42.43445163
54.87076808
56.7999683
56.00225794
55.24211662
53.83209345
46.26958461
46.88450527
48.35812211
47.63077925
53.43373078
42.12224646
43.25839889
43.02973015
43.54681547
43.33225903
42.24482576
42.2746724
41.99048427
38.50910915
32.66695578
36.93413112
36.55372573
63.57533028
48.31363771
54.71233122
54.03104147
57.59660703
56.99579136
51.05644125
47.31322219
45.99829666
48.89421513
47.72943632
51.3894084
53.69892005
49.46493541
48.65829164
54.12406502
43.7127639
43.80465654
43.61465778
39.37397621
39.82366345
42.81353204
47.1554971
47.49827309
54.21980292
55.09846443
53.66840607
53.54358818
54.59296075
53.2024949
52.88745971
53.4938278
53.28448955
54.60995468
40.37131473
42.62551058
42.36497089
42.95123658
42.70911542
40.49155505
40.07908851
35.45496549
35.72582361
33.60538608
33.77632576
38.68552556
42.02626015
38.66715388
39.24313442
35.82946132
36.12421252
40.92540326
55.30669978
48.82277894
51.82038788
52.16240893
39.54732634
35.07245362
33.54165658
37.76038797
33.35252713
33.54868493
32.92080593
36.46019863
45.23755083
39.56888679
37.78539869
37.08845603
36.43126402
36.06735301
32.21644439
40.8064234
43.01702715
52.85470459
32.25629138
77.98141657
43.56764482
42.16019513
47.45645719
32.70226391
32.2416443
52.28224106
51.02406912
51.37198749
44.30176187
44.44767931
41.32415682
40.18011362
48.21615402
50.18454745
50.09264913
46.44505461
53.7113458
46.47501712
54.06941376
47.1583166
41.58360758
40.33043718
47.34298084
43.2085865
45.7825355
43.79098007
40.12286986
42.17595253
44.95143246
52.45477328
40.14505847
43.17733362
57.39951328
39.6905195
39.83178309
40.30839409
39.75328738
51.62903004
62.16618657
52.43422566
49.31243413
55.86625084
53.1269014
48.71387903
46.10935338
50.30874617
54.58130032
54.07531973
55.03662449
55.29096223
55.7521755
54.8848239
46.86105635
46.35034679
53.77623896
46.43240823
46.98413027
45.40414726
46.17130711
47.17606919
53.47870223
47.52546331
47.01469097
41.2217311
41.40678085
42.30864395
51.53561136
50.84801859
42.67893899
49.48442129
48.35628682
50.58022885
49.8264742
42.28876131
40.48859142
43.75833444
41.99451387
37.47006539
37.04842093
32.88772518
33.99817587
37.94032138
37.58924518
54.14548823
53.69350859
53.35323833
49.17806035
49.65877755
48.28820104
48.97905949
53.61683691
50.90319104
49.73594705
49.53701541
49.74650135
49.76552213
51.13257122
51.37915705
47.23581961
48.05336491
53.78911098
54.16063726
57.30034707
57.07181932
53.70491639
58.18465353
58.78298472
58.80289061
57.81721007
56.68556264
58.96103845
57.74562587
51.16501856
56.04671735
57.31402925
41.679339
46.19247404
45.44787309
46.89867463
46.39484302
42.15365282
44.40814497
43.88931433
45.18844075
44.58648033
46.82194541
48.83849754
48.36916781
49.41600962
48.98995438
47.21328162
44.05807396
47.56381459
47.06803917
48.20987225
47.72699557
44.37495378
50.51400342
49.66362743
53.7686033
54.13917183
51.69200742
50.81963491
39.01322455
38.57011368
39.78714122
39.16942085
37.8649545
37.44012458
38.43027299
37.99418631
43.05260818
42.55522067
43.72123983
43.22275788
41.56328743
40.17283545
42.37320628
41.87214252
46.23425864
45.37307838
48.02161968
46.73358978
45.06526724
44.6504408
45.22042854
45.06783296
44.54005804
35.06416126
35.358334
39.95735952
34.03542929
33.82192932
34.31212764
34.11030898
33.72214466
38.86694077
33.84592217
34.88630662
36.76760809
38.40534278
41.90656836
36.49147685
35.1839471
37.34838508
36.76336117
34.67193504
34.4026083
35.09853254
34.77774057
41.04575542
36.22674992
36.56786753
45.81018028
43.40850608
45.20644491
42.90561071
45.09421677
42.86620205
53.89864781
39.58254887
52.20170688
47.41270869
34.97102128
33.97289534
33.11507418
33.29380934
37.63487153
36.6781261
32.96037916
33.06797729
48.78981941
32.1800103
35.90980872
35.20306183
60.88734995
67.26524916
32.19775593
70.66353592
52.88905207
41.20073159
32.63982969
59.83709255
42.37495195
69.0291834
43.52701713
32.34045884
41.55467972
39.68136973
38.58108593
47.38192348
47.11029693
51.67167631
46.08477822
45.76207026
47.30560152
42.77583229
39.79417463
39.56983421
55.43727245
55.25909965
52.36835921
43.92298044
43.51012155
45.54865333
49.46456085
43.9001866
44.02708461
40.58998746
40.89695738
42.88401398
48.08211537
50.95709749
53.38405964
44.86240463
44.18823508
44.06785454
44.30698098
44.22200514
44.9841188
46.1074565
44.39422681
39.96793474
52.33257057
53.50067322
55.58739383
38.38721138
38.05131391
34.10587596
54.08552963
55.74490927
50.81069137
44.0208712
43.8626212
43.87066895
43.7478728
41.19116246
41.75254048
42.02101746
42.84467409
44.43984864
35.27033531
38.84719952
38.49749398
43.22890444
41.84599413
39.6958986
32.5016815
32.51681047
33.04431949
41.08248027
49.71250172
45.95385434
40.37750358
48.46833712
46.61160001
32.21728322
32.81006468
32.49071767
32.49814476
32.20398168
58.12322422
44.01045828
40.36924462
41.07205533
47.61573915
40.7963257
42.08315053
50.72060396
51.21073463
45.54441375
44.14618715
45.7492195
47.80036938
40.22977979
40.46946146
55.0566832
56.79401096
58.13574232
50.29966869
55.74176383
42.0054207
42.25742718
44.43714846
59.19916791
55.44410686
53.3554865
62.14466832
60.03348131
41.29329009
41.76114124
41.38264194
44.84664124
44.2066683
42.08431998
52.3734806
51.77264866
42.6806045
44.00462057
42.50136191
42.54960346
42.43706049
39.79906122
39.98302279
55.00872271
55.65559536
52.73331488
52.77002714
51.93467608
51.77924702
49.37495718
50.21383538
49.89316448
51.62412188
51.435059
51.82181143
46.00147976
46.97169503
50.92625172
51.96612356
56.19831209
53.28309508
56.51018592
56.81631056
54.6609814
40.34405939
42.11414868
41.65486569
45.20787489
45.006389
42.6487886
39.86280773
39.6609071
41.28413747
40.99015821
46.08858893
47.90422336
47.62536726
49.59562214
49.31018801
48.02339048
43.43755867
45.73128629
45.49413245
47.34424157
47.07058735
45.02377966
40.57455308
41.03314956
43.64912889
42.91755708
39.96951421
40.42446097
43.66569039
44.10548535
45.11790869
38.43650398
38.30832291
39.47785604
39.31440518
36.64199831
38.11329864
38.00486449
44.52753917
43.04889131
43.51271625
44.97682348
45.07447858
42.80723174
43.01632902
44.48404515
45.2276376
45.56561765
54.26573865
47.66764695
48.88452534
39.28454859
38.95943851
35.54853112
36.59137356
39.67440118
39.38183227
33.15481857
33.22366352
34.77368289
34.41429373
33.0093399
33.10648828
49.09834374
32.20048315
32.721998
32.25547196
107.5183312
32.81150102
41.35177835
49.38730648
45.72399984
32.34375225
32.36180318
32.528144
59.05141652
63.49300745
61.65268898
48.36335077
32.41677119
32.32535663
32.33949129
40.59976704
42.15074793
40.69354921
47.23305427
46.91428221
41.85597472
41.09916163
39.9340027
50.75036262
50.53412664
53.99519648
40.45033637
46.08821844
43.60776334
46.40034526
45.76667264
40.88475755
43.24992486
43.69894489
46.72601654
53.14564872
53.41343376
52.7323638
52.94953748
56.55549147
56.04199467
56.22400221
55.67116616
55.86114269
56.26490909
48.0925414
48.87363706
49.04940167
48.60995413
48.6977059
47.9376495
57.35560975
56.57514982
56.54423289
56.38680554
56.52242484
57.1715542
49.10335325
49.65144557
49.84963518
49.24851325
49.44127923
48.87831402
52.17150988
52.33873343
51.64647702
51.80208738
35.53400046
37.45650017
37.34277538
33.67230802
34.67910417
34.59102842
34.94723759
34.78305563
33.72114542
50.17807368
51.1031565
46.55952968
50.72517231
32.85464182
32.82903177
32.91580445
32.885368
32.86865646
33.22266188
32.54799756
32.64947831
33.42344893
34.36656987
34.28622414
34.51650305
34.44049517
33.48295271
33.01412585
32.96143517
33.38542195
33.14817699
33.13403256
50.50670137
49.2193654
42.46378753
51.01086304
33.84438756
33.21463475
40.04012491
32.23946652
33.34249851
33.21439606
32.19824669
75.34137828
76.21880481
62.27495897
66.40503018
57.42183301
32.44316438
32.47043622
32.75862178
32.21828364
55.34658061
60.24959611
55.78697763
56.7193414
53.70953993
47.51199919
59.01723242
54.26343748
44.40196552
44.79560895
48.26860399
42.0908031
44.20461721
50.91633276
48.64081235
51.0578512
47.59754296
50.02951044
55.49459177
56.89776903
50.80030822
54.44029633
57.5441624
45.43426121
46.38118774
45.17250477
48.33557412
54.65097344
54.7828552
53.13374875
40.71579736
49.24538691
45.07596854
53.77204753
54.46103395
41.82173852
43.56968564
45.94221659
56.51228662
47.63125266
41.07617906
41.9633777
58.79065974
55.86596334
58.91628603
54.80612014
57.08069916
59.27163077
60.30704003
59.58938855
54.1903095
54.42063924
54.6419416
53.89963022
54.06473214
53.99499199
55.44710778
55.27759666
55.48127168
54.86158068
55.06985129
55.17370174
46.67771779
49.44741521
49.44863759
46.59093464
46.85649396
45.63432291
46.37945835
46.17345694
46.07549987
47.5164914
47.79878631
47.20440307
48.85690157
48.62778489
49.3937768
49.19746875
47.12871587
44.02353975
42.69184871
41.19986945
45.05418538
44.68787245
44.61982993
41.73073383
44.26217069
43.96077948
42.72953029
42.5527719
43.15140462
54.62160944
53.16722516
50.87343278
50.54804561
49.8334241
51.56701797
51.27059832
51.0384053
57.28808397
56.95556899
53.03921927
57.28941774
59.16745753
54.51023676
57.16911786
57.28487233
57.23792109
56.05903563
55.91542831
56.34475937
56.26781454
57.184208
58.4415261
58.57934909
57.49060312
59.96559558
59.92561529
59.73513242
59.92583168
57.29056639
59.05790774
59.62299764
60.80235153
59.03961547
44.02763932
43.89018704
41.59130964
42.29464914
44.68046432
44.53635689
40.28400969
40.06728644
40.7399719
40.50612256
48.46358873
48.18170314
46.43929772
47.61519793
49.0282907
48.74586785
46.26202267
46.00906987
43.77707058
44.67636411
46.79423461
46.53149464
50.27906768
50.48227074
50.69237949
50.06064587
50.27095778
49.94109694
51.38327115
51.23172291
51.3462121
50.90023397
51.08498979
51.14780789
38.85973466
36.58342764
36.70908284
36.35204575
36.47311533
38.71602528
39.53291352
37.12136959
37.30972046
36.83185303
36.97200374
39.34006075
37.71194782
35.67820918
35.79882797
35.48152813
35.60154301
37.59823033
38.28354372
36.11903735
36.24390459
35.88945668
36.01520592
38.14606785
38.77458772
38.62802569
42.88850722
41.12188091
41.28764587
40.77691596
40.92822265
42.71469358
39.12424797
38.96354724
37.46406903
37.30966309
41.32638039
39.59030088
39.66731693
37.59310372
38.0088871
40.72630821
42.22307745
40.44286348
40.56864183
40.1029825
40.19534547
42.01613639
37.80133342
37.70841404
44.43037372
44.69984363
44.76400524
43.3643762
43.76717436
44.83031818
45.6284174
45.5357656
45.95321231
45.89256142
45.02320554
44.71627413
44.52693275
44.19069269
45.26465225
45.08917984
44.55152866
35.16604361
36.96275629
36.84040739
37.21697751
37.10781499
35.2798682
33.97323198
33.89065932
34.24348735
34.1656083
33.69013999
33.78295778
34.0080304
35.79237153
35.24892684
36.6081497
36.37940691
34.5737272
35.48348552
35.00251484
35.04584051
35.29080912
37.15936286
35.28851012
35.41292671
35.10098792
35.22294335
37.07499435
34.58204351
34.48274442
34.98966635
34.87649269
44.70099971
40.76355319
41.14482939
40.40281793
40.51588078
44.915609
44.44435331
44.33670311
41.63277522
42.78285371
45.47802469
51.38823124
42.11773603
43.61892522
40.19811777
41.02082238
51.96527983
32.74855747
32.71094772
32.80687852
32.7806127
32.73412678
32.96303302
34.26235077
32.57549036
32.47533617
32.66462474
32.6140993
33.17366239
34.0508526
33.97043498
34.20936628
34.12743615
33.22735776
32.98856498
33.72232689
33.62526884
33.89283328
33.81463167
33.02753465
48.4152376
33.15614939
32.89636
32.15515155
58.64493612
85.28511927
90.83278766
83.94082291
85.0027433
63.23583783
32.43103256
62.38637677
46.86227043
49.49936128
32.58459619
32.37760251
32.41247844
60.03427861
66.15589703
64.80514017
52.68756552
58.63788535
70.70387994
66.42402987
45.63958864
62.68652047
55.76753702
32.74878976
32.20691553
32.28640585
36.69248925
36.71601405
36.82274455
36.72590155
36.76626592
36.84822144
36.78178229
36.83940415
36.88638774
36.85871322
36.92153025
36.93133281
36.93770118
36.9761136
36.96694012
36.98304879
36.98781569
36.97550558
36.98381382
36.95340742
36.95234978
36.93965463
36.88316014
36.91218207
36.86391325
36.80674354
36.87143921
36.79059344
36.74701045
36.83976863
36.5525047
36.60183259
36.6838102
36.62365404
36.70696608
36.7448547
36.74039701
36.84019609
36.8323663
36.87248489
36.96193675
36.92500917
36.98715025
37.04376609
36.98547652
37.05478613
37.06213757
36.9985899
37.05593583
37.01139636
36.96102391
36.9899055
36.90889276
36.88419968
36.87846262
36.78245058
36.79285949
36.7495967
36.66200101
36.72098225
36.4415184
36.53962571
36.58058993
36.58152723
36.71784074
36.7052494
36.76559264
36.91405137
36.8507962
36.96382181
37.1056946
36.98547902
37.14664898
37.23990229
37.07677082
37.25945698
37.27008583
37.09580668
37.25553129
37.17855296
37.04086742
37.14436912
37.01828816
36.92686106
36.97077903
36.82559732
36.78682416
36.77825757
36.64440636
36.64967429
36.37000088
36.53014733
36.53310497
36.58863445
36.78381067
36.72941665
36.85663639
37.09542004
36.94796151
37.1809535
37.44895534
37.16530461
37.52865597
37.72870716
37.3234746
37.77132392
37.77376082
37.34294056
37.71209039
37.54916139
37.24934245
37.48086447
37.2580822
37.06301955
37.18097153
36.95464183
36.84907698
36.88302383
36.68566005
36.64939349
36.34265373
36.55825458
36.53373611
36.63899357
36.92046591
36.81138909
37.03040681
37.42625206
37.16162251
37.58661786
38.19515622
37.57557891
38.42064957
39.26354104
37.938551
39.27919367
39.05748404
37.93218646
38.77231835
38.30538087
37.69269599
38.1406368
37.69263567
37.34649337
37.55725705
37.18822548
37.00254856
37.0780071
36.7845872
36.70436086
36.3399312
36.61622518
36.57034771
36.72443833
37.11590951
36.96523944
37.27677011
37.91321544
37.53681054
38.20716323
39.9137805
38.46217205
39.36107354
39.99096146
39.07781698
40.61002113
40.65398378
39.59149922
40.12702553
39.50182247
39.09303345
39.28084785
38.36991159
37.83925134
38.13048433
37.5349674
37.26464053
37.36825316
36.94348458
36.81884952
36.34951842
36.69412098
36.63508011
36.83097587
37.33322123
37.17151572
37.54365113
38.40487008
38.04595252
38.53567525
38.99170863
38.78773213
41.01731256
41.66682414
41.31146627
43.46365002
42.26172494
41.1150667
40.83365277
39.24562515
38.57665736
38.86414567
37.97176422
37.63662367
37.73451033
37.1508656
36.99185032
36.36671275
36.77588048
36.71457235
36.93786069
37.52917754
37.38481629
37.77551871
38.77212847
38.50798892
39.05059235
39.62300267
39.4938925
42.4819874
43.45601656
43.33445209
47.39707048
45.00283646
44.00405818
42.35669662
40.15708725
39.4807488
39.63562078
38.4416289
38.09008007
38.13116367
37.38164545
37.20772605
36.38718974
36.85407253
36.79582189
37.0375117
37.69968359
37.57373552
37.97240702
39.06182701
38.84867937
39.41551326
40.04560164
39.94753179
43.02644212
43.88256623
43.92785351
49.80996589
46.97640354
46.34990917
43.54405515
40.94895613
40.3759758
40.3219498
38.87710647
38.55794859
38.50375219
37.60675058
37.43943984
36.40943358
36.92839825
36.87278264
37.13130188
37.85766455
37.73963878
38.15469331
39.339527
39.12973465
39.73948065
40.42557152
40.32909835
42.87275775
43.26390073
43.42038692
50.94669506
48.08171112