/*--------------------------------*- C++ -*----------------------------------*\
| =========                 |                                                 |
| \\      /  F ield         | OpenFOAM: The Open Source CFD Toolbox           |
|  \\    /   O peration     | Version:  v1912                                 |
|   \\  /    A nd           | Website:  www.openfoam.com                      |
|    \\/     M anipulation  |                                                 |
\*---------------------------------------------------------------------------*/
FoamFile
{
    version     2.0;
    format      ascii;
    class       volScalarField;
    location    "0.45";
    object      omega;
}
// * * * * * * * * * * * * * * * * * * * * * * * * * * * * * * * * * * * * * //

dimensions      [0 0 -1 0 0 0 0];


internalField   nonuniform List<scalar> 
12556
(
31.93118602
31.93204442
31.93291716
31.93366426
31.96679681
31.96730897
31.96776739
31.96868658
31.97049001
31.97349243
31.97771346
31.9821375
31.98504982
31.98459937
31.98125382
31.97698538
31.97317916
31.97006849
31.96873626
31.96753589
31.93382997
31.93275808
31.93171414
31.93073385
31.79516527
31.79780778
31.80038954
31.80244872
31.83601976
31.8377858
31.8402849
31.86003718
31.86818211
31.88199911
31.90160844
31.92280027
31.93712556
31.93691811
31.92279583
31.90279947
31.88421979
31.87058517
31.84598085
31.840015
31.80347746
31.80025033
31.79715204
31.79437299
31.66104312
31.66552521
31.6697552
31.67288323
31.70693146
31.71051433
31.71628134
31.7410736
31.76035048
31.79244632
31.83614829
31.88039139
31.91187926
31.91205292
31.88118861
31.839289
31.79757591
31.7663267
31.72920944
31.71636834
31.67621677
31.67063088
31.66527748
31.6605175
31.52825068
31.53419779
31.53980471
31.54411022
31.57916573
31.58575351
31.59763173
31.63275682
31.67259679
31.73690128
31.82366867
31.91575463
31.97374447
31.97207606
31.9087715
31.82417195
31.74255587
31.68083941
31.62344595
31.59955957
31.55234015
31.54354388
31.53571119
31.529084
31.3977387
31.40515787
31.4120504
31.41777869
31.45407637
31.46486505
31.48613152
31.53818052
31.61493122
31.73740979
31.92784508
32.17502634
32.32179017
32.30844799
32.11855556
31.91199776
31.74139762
31.62721706
31.53491629
31.49161476
31.43294384
31.41959146
31.40869207
31.3996781
31.26815272
31.27682174
31.28506125
31.2925977
31.33190909
31.34956975
31.38689541
31.4642229
31.59083554
31.83327992
32.30315851
33.18066521
33.87084019
33.64383372
32.82175002
32.23171999
31.84302132
31.61724886
31.46739627
31.39467617
31.31788043
31.29755167
31.28293107
31.27154327
31.14072147
31.15081091
31.16071252
31.17058241
31.21277441
31.23956248
31.29859087
31.40983857
31.61455873
32.07291229
33.23500582
37.32362604
43.11470053
40.12246252
34.87216003
32.99437179
32.10639148
31.6668235
31.42234697
31.31073202
31.2083154
31.1784358
31.15895641
31.14478916
31.01472181
31.02606293
31.03767512
31.05051287
31.09759528
31.13562778
31.22118647
31.3684369
31.67931526
32.43081559
34.73643956
47.3267728
62.20970844
39.78109729
34.4345714
32.57513501
31.79374998
31.40155786
31.23866113
31.10398995
31.06144321
31.03590107
31.01873894
30.89175768
30.90477021
30.9187894
30.93529683
30.98730617
31.03824124
31.15220182
31.33629925
31.7592726
32.77295158
35.87899037
54.65191128
111.7242828
47.17471061
36.47605911
33.22969612
31.98546893
31.40409405
31.1769037
31.00540872
30.9483308
30.91549904
30.89491982
30.77116057
30.78564674
30.80202109
30.82276577
30.88222482
30.94664563
31.08830103
31.30936373
31.83205631
33.02767869
36.51835425
61.12824827
139.0746357
53.67977071
38.57663995
33.94253595
32.21124439
31.42011916
31.12319079
30.9124812
30.83897638
30.7980336
30.77378385
30.65525974
30.6716477
30.69096502
30.71702961
30.78128631
30.86001622
31.02746762
31.28398676
31.89141904
33.22419363
37.08664435
68.74000933
139.6287518
57.40233922
40.18416128
34.5661694
32.42891504
31.44221773
31.07507778
30.82548248
30.73570939
30.68607039
30.65774027
30.54222338
30.56010518
30.58196338
30.61333088
30.68426056
30.77720748
30.96822209
31.25903893
31.94257591
33.40586399
37.82675851
79.13295913
129.6290647
58.61101764
41.1195218
35.01279185
32.6056819
31.45866896
31.02942345
30.74352459
30.63719175
30.57901991
30.54651298
30.4343831
30.45422048
30.47949765
30.51668355
30.58994903
30.69679095
30.9085352
31.23519103
31.98870067
33.59661712
38.8867715
89.35490416
556.3771642
112.1901661
58.21153219
41.46218497
35.25080782
32.71910785
31.45898747
30.98241031
30.66555836
30.54461692
30.47799655
30.44131362
30.32876632
30.35028836
30.37869046
30.42058631
30.50157321
30.62639879
30.86347202
31.22174564
32.05768475
33.87636122
40.70488076
138.9359832
349.8336277
104.4140876
57.11308719
41.35686927
35.32041012
32.76864421
31.44408106
30.93143987
30.58743581
30.45477746
30.38052847
30.3401848
30.22710562
30.25033501
30.28154393
30.3271839
30.41231524
30.54886333
30.80317194
31.19842278
32.10726651
34.1273893
42.80523081
499.2255367
250.1701662
96.64456758
55.25552575
40.95925956
35.25974032
32.76243902
31.40706613
30.8737603
30.50973838
30.36789632
30.28627072
30.24213327
30.12545385
30.15026395
30.18408223
30.23367546
30.32357088
30.46913254
30.73762432
31.16946469
32.16120157
34.46221507
46.51796491
791.2232331
215.3680608
89.30973266
53.27549226
40.4015969
35.1135613
32.7021597
31.35186534
30.80747535
30.42794548
30.27884016
30.1920087
30.14498395
30.02630891
30.05277012
30.08877809
30.14101446
30.23400557
30.38607057
30.66515201
31.12570975
32.21111932
34.97032174
53.78559965
893.1951845
183.7427242
82.30139189
51.29561547
39.83382368
34.95338829
32.61524103
31.27862598
30.73266241
30.34363183
30.18964903
30.09779829
30.04820281
29.92475993
29.95268587
29.99076609
30.04599974
30.14276755
30.29902648
30.58553509
31.06311383
32.22317436
35.61853131
67.08088008
790.489127
159.8173319
76.62075554
49.71837314
39.39170177
34.78487209
32.50691166
31.19095886
30.64707038
30.25232877
30.09473608
30.00009888
29.94840146
29.82489282
29.85427153
29.89409957
29.9509436
30.04924685
30.20788058
30.4991567
30.98908976
32.18867054
36.20349258
82.18666401
679.9721076
145.7857993
73.30426492
48.81988253
39.07550149
34.60949604
32.38611408
31.09354923
30.55364261
30.15694365
29.99742882
29.90070252
29.84776581
29.72078775
29.75128404
29.79284716
29.85213572
29.95329921
30.11294295
30.40698469
30.90617858
32.14627579
36.71461972
90.20124735
599.4131077
139.7867944
72.06672144
48.23933186
38.79145217
34.43721417
32.25939606
30.98937601
30.45376263
30.055247
29.89401203
29.79583651
29.74217896
29.61876403
29.65021051
29.69311077
29.7533521
29.85479343
30.01470668
30.31019132
30.81677067
32.10311212
37.29359703
95.26848436
535.7152028
135.3521197
71.1557613
47.79629641
38.54174767
34.273214
32.13128869
30.88064034
30.34876105
29.95078301
29.7891491
29.69016239
29.63614387
29.51118734
29.54315018
29.58734881
29.64976318
29.75387555
29.91367019
30.20988687
30.7229115
32.06313902
37.98895594
98.33004984
483.3552508
131.570887
70.39947828
47.50020785
38.33100355
34.12068179
32.00489587
30.76923155
30.23996123
29.84075147
29.67810744
29.57853648
29.52455015
29.40734623
29.43960816
29.48453138
29.54715022
29.65053628
29.81022679
30.10693843
30.62638608
32.03025258
38.86636898
99.9626753
439.8558191
128.314621
69.76061543
47.32231859
38.16598846
33.98281928
31.88268529
30.65694231
30.12860697
29.73031955
29.5679032
29.46816955
29.41439013
29.29658772
29.32877908
29.3744657
29.43896464
29.5452
29.70477092
30.00211712
30.52896763
32.01173952
39.85356858
100.5097301
403.2394107
125.492754
69.22725017
47.22272876
38.04881705
33.86290333
31.76694264
30.54537022
30.01592866
29.61512507
29.45147884
29.35142354
29.29802406
29.19230949
29.22428286
29.27009241
29.33393064
29.43809314
29.59780921
29.89630773
30.43281354
32.02090777
40.78723074
100.2313052
372.1416804
123.0276968
68.79003067
47.17645363
37.97586235
33.76330223
31.65965666
30.43596592
29.90302463
29.50242296
29.33898665
29.23890469
29.18590755
29.0789023
29.11042725
29.15662324
29.22230912
29.3299857
29.48995877
29.79055773
30.34046577
32.06918888
41.58256034
99.35152879
345.4760348
120.8607099
68.44226734
47.17467322
37.94219596
33.68517242
31.56238576
30.33001204
29.79095116
29.38489322
29.2192484
29.11862381
29.0660254
28.97594871
29.00697514
29.0529142
29.11722423
29.22111072
29.38189693
29.68598537
30.25466111
32.1589557
42.23382571
98.05295353
322.423424
118.9513112
68.18105494
47.21334152
37.94416508
33.6291373
31.47636869
30.22854858
29.68049973
29.27330015
29.1074751
29.00659232
28.95432885
28.86004849
28.8904652
28.93664209
29.00318902
29.11237519
29.27425923
29.5836453
30.17798345
32.2821101
42.76174308
96.4808159
302.3177582
117.2688501
68.00506667
47.29483296
37.98054267
33.59568293
31.40240168
30.13228862
29.57241477
29.15520281
28.98567645
28.88373028
28.83167185
28.76040144
28.79023703
28.83601761
28.90067837
29.00371135
29.16762811
29.48450566
30.11248826
32.42689072
43.18923472
94.75245379
284.6369029
115.7883524
67.91278073
47.42158871
38.0506155
33.5847743
31.34078602
30.0416502
29.46705362
29.04770233
28.87754164
28.77493139
28.72299537
28.6414969
28.67070653
28.71673131
28.78432708
28.89617765
29.06251837
29.38939177
30.05918321
32.58196993
43.53264488
92.9379096
268.9959277
114.4961315
67.90709056
47.59527488
38.15358305
33.59448813
31.29127107
29.95674612
29.36486771
28.92938576
28.75379443
28.64949651
28.59746908
28.54757482
28.57625054
28.62194511
28.68740896
28.78926633
28.95937198
29.29894426
30.0179126
32.73811679
43.80091691
91.0687727
255.0722626
113.3874607
67.9876294
47.81573114
38.28738691
33.62438676
31.25297872
29.87739624
29.26577113
28.82898245
28.65242437
28.5470389
28.49488425
28.42427591
28.45238738
28.49839426
28.56745992
28.68440513
28.8585782
29.21357258
29.98745371
32.88797384
43.99761782
89.14441402
242.6037628
112.4568389
68.1469184
48.07973757
38.44801405
33.67125078
31.22446007
29.80314344
29.17003792
28.70888075
28.52529578
28.41765462
28.36509158
28.33926098
28.36696942
28.41289173
28.48019636
28.58047536
28.76048377
29.13346604
29.96572632
33.02580708
44.12389275
87.17783904
231.3768125
111.6968793
68.37983053
48.37892073
38.62894626
33.73098228
31.20380531
29.73334362
29.07716321
28.61944162
28.43454074
28.32547347
28.27257743
28.20892475
28.23615996
28.28246479
28.35318164
28.47980561
28.66554386
29.05869997
29.95045979
33.14720707
44.18134239
85.16914835
221.1983507
111.0887299
68.66200354
48.69885548
38.8213776
33.79879264
31.18875298
29.66734752
28.98763777
28.49302092
28.30044079
28.18866581
28.13507578
28.13708796
28.16411957
28.21069191
28.28173815
28.38075902
28.57448979
28.98960477
29.9396216
33.24984525
44.1697131
83.1046771
211.7785792
110.585764
68.96477073
49.02191533
39.01541342
33.86957908
31.17697683
29.60477531
28.9010617
28.42093929
28.2255888
28.11221246
28.05815483
27.97233459
27.99900427
28.04641965
28.12145218
28.2883103
28.48893097
28.92763681
29.93220915
33.33565191
44.10809523
81.0887818
202.9092514
110.1175881
69.25013628
49.32662817
39.19999237
33.93816548
31.16631808
29.54604999
28.81977772
28.26093063
28.05610839
27.93891281
27.88370424
54.1431967
129.5363051
69.09206396
60.25284832
165.3262725
134.399929
67.68468565
164.4636646
166.7919897
77.84205198
149.5100136
162.6919871
88.27739239
682.5032746
581.958738
134.8543046
147.287318
117.9693466
431.9704596
668.8389748
364.7190443
131.0628321
133.4170552
45.74257724
42.12611382
64.18033694
40.08242841
342.0309517
129.2601524
106.1442481
50.70551353
42.62085881
36.38356895
52.06207588
48.58593641
1095.78628
766.0705096
137.4968467
60.51364335
53.4577322
36.95676443
57.57970143
52.70859768
63.82691933
188.3865198
163.998785
666.6898895
883.6494122
140.5184212
65.90383469
62.31939959
37.67461087
64.36460524
58.3116783
72.23812465
295.415694
225.7396552
397.2570679
513.5044057
38.65812268
74.03339725
65.29547263
81.35422981
490.7851412
377.1057756
1499.497598
261.4012518
303.9564249
40.39728013
95.03525069
75.55897662
98.05648872
1170.263246
739.170993
148.1533011
330.7056717
425.4284538
122.8826456
150.60017
80.95793382
118.5632768
744.2144984
358.4262286
102.5925803
295.6996354
535.489934
160.9867119
141.285776
57.31947543
188.3633862
206.6119732
155.8400555
184.9720725
891.9155423
1097.76148
152.1151747
785.2949725
705.2197204
552.6411768
781.4851014
149.9968683
222.1398841
192.4129105
64.75538397
252.8905174
300.96423
208.8927015
249.4558567
534.4475619
653.6678765
167.5092893
509.6346527
408.8984238
699.1869679
526.1613681
167.9775349
372.2504067
299.1061221
73.50668066
374.813574
487.7871657
304.1638697
370.2651522
312.9035968
383.8512879
726.7079185
501.6817056
81.78184293
2230.913072
704.7215239
1118.943587
493.7514129
686.0928669
2635.110499
241.4514883
257.1834794
1325.682375
8561.336608
1182.765446
99.53354239
493.5001324
1871.70141
7757.617452
1129.550693
1836.438203
506.8817518
35.66458642
48.20438608
43.1187315
51.22287462
98.43274174
71.74528214
1818.478616
321.9992021
56.65798061
138.8910494
119.9056359
4412.08494
131.2550244
67.39544607
66.59598802
4873.43047
567.258926
629.9310349
442.7409191
215.5540296
233.6374663
116.4799924
100.8874804
52.11341059
1181.308071
167.3489738
393.1929056
110.260223
263.3692302
95.1292005
644.3754889
818.081507
155.2077914
316.7437359
270.6284846
396.2670918
325.3431524
157.3644515
934.8668717
3737.985946
590.9695668
62.69045945
52.09168146
75.28495067
115.3039266
60.43782929
64.03951884
2404.656201
242.9642194
1712.407162
252.0374689
1268.401621
219.7154752
892.6958161
880.173956
755.24703
770.2263048
1527.256564
3580.041152
441.4071924
1819.088451
1014.140934
4068.570072
2152.965891
458.3367479
418.525922
146.5602158
154.6250089
476.9210777
540.787346
4291.793194
808.8112094
202.2580171
217.243762
184.6565109
196.6988484
804.8990765
980.6684691
1179.271991
132.7145602
707.5129657
536.468887
1191.444122
711.2997638
136.0140115
99.25238556
273.9329957
135.2757224
461.3809751
298.7304793
105.3442533
415.4864421
682.7675261
530.776024
505.1693721
191.7380281
1425.776631
192.4715988
168.2401981
1321.711249
1217.418322
1412.906907
1335.349195
172.2913288
934.3401627
942.2286516
737.4772855
270.683281
263.6600274
272.9604051
271.9204655
733.5139619
656.744727
241.0839721
221.7896647
260.2617278
246.7451605
670.1473634
274.6983866
277.8004211
226.1381553
228.6397036
564.6360785
4230.967246
574.5515938
409.2396644
416.7758445
335.8985773
340.4613357
959.4628918
709.6426427
349.6148307
864.6863924
1419.027948
562.8548954
169.9813423
180.5915367
157.5448162
166.716874
552.7257735
1021.448466
759.4481828
774.4861557
537.3533176
542.8135501
5129.164278
794.6460531
412.9789772
458.5196789
223.8005415
237.5565262
1487.153404
3008.262928
1082.583488
1858.214292
1176.682682
5983.104093
2130.446996
5041.131853
1172.774595
564.1519355
3317.191163
1351.120007
2108.310235
1451.197852
1966.827775
42.22766675
106.6858712
98.32594889
159.6484669
4180.227417
7754.485296
261.7772038
119.6172665
128.3065842
588.5930134
2297.602968
3416.923387
366.0786074
398.7776265
747.594152
199.2142863
209.7352271
431.3132683
113.7125256
82.85322332
154.5651227
266.3980248
103.3086609
117.186933
1030.422937
2370.515742
2479.774584
822.5074315
705.5738333
1925.39759
1426.048465
3194.045946
3191.051387
848.7810794
267.0010406
114.9549051
119.8894451
108.9011809
113.3862964
261.0637647
137.2073265
144.1818738
413.2048677
1071.007323
394.9082963
417.0688492
6433.068393
2923.483702
396.4037578
646.6181804
2143.011396
2357.971614
385.8152016
180.5153247
153.1785683
214.0319772
189.7561885
401.6693305
911.9352289
3106.01965
3193.341588
1050.429524
208.5500475
103.3820092
107.488348
667.9121038
650.8497958
290.6674028
1351.961016
1250.506596
620.2058422
463.9523426
249.3100228
257.517948
635.318186
268.9825421
272.521476
260.392738
266.9710874
625.2863558
331.1968234
128.9532714
135.0705109
121.6078996
127.0318772
326.3653964
388.5028253
1028.760327
1015.369572
1701.51182
1646.276098
463.847668
316.4092321
711.3159066
670.8268509
1009.485717
999.073487
357.2975887
339.0731067
684.7168508
552.6086868
5414.344017
1503.149203
732.3566986
932.0383691
511.8158822
1741.159348
1710.170539
1755.440651
592.2957663
4175.027087
8946.757305
310.1283823
367.8238359
425.5595471
446.175667
1197.382807
1236.793312
824.4185921
457.6720827
1896.771678
7595.597075
1170.812128
1028.980107
16238.47218
1144.083319
1742.722493
1072.656392
1255.544901
965.0797589
4365.515255
4447.787607
995.8594148
1293.450297
5087.559634
1263.1207
1196.363116
251.9105787
882.5292826
364.1637894
882.2070717
274.0761927
3336.199166
2172.141984
725.0327632
4064.424661
4805.670097
3908.589704
2504.735645
795.7609944
4086.809094
5280.723152
2465.408011
3849.792165
5680.763101
1386.678547
2107.015886
986.3138148
1239.784524
5063.665356
2468.206407
740.0299069
470.9696004
1182.576133
810.682877
427.987123
276.912805
722.7496115
2611.82314
3313.586475
981.8350751
836.2324049
2507.078233
2616.909977
2099.458038
1997.334256
720.7979992
3567.27924
3471.608865
2530.760317
3483.874322
3425.824277
828.5901582
3312.504168
2158.577727
2270.475784
2593.578627
1376.811984
649.6459668
699.8765521
2924.803528
812.1190704
915.9546319
720.3542179
782.4986195
2713.988992
2913.200542
780.9124958
919.8840755
363.7957333
387.2330646
967.431871
771.3996044
341.0733016
357.882926
1099.7072
1119.340689
684.2187265
227.6525802
251.0090265
202.3948997
221.1478141
675.3817398
773.5111503
290.5786476
322.8929854
259.090761
282.2682895
777.8777102
398.954342
180.8130472
197.0349538
589.5943436
621.8452515
1552.955235
1625.724102
614.20504
2272.41357
2289.335116
2860.507814
1577.083757
1312.309237
2217.827515
1561.630998
433.5184618
1117.079257
1484.035524
1487.141324
442.9969269
509.5920742
415.0342984
431.3876755
1440.411279
566.1299834
580.8773036
532.1494075
560.926497
1282.980472
355.1486736
370.3516015
331.4649669
349.8672697
1267.704678
1380.476733
395.0717165
409.5049368
375.3606958
390.1253324
1372.634931
2957.899508
3051.085148
917.8922002
1011.598212
3023.619258
2930.034334
936.6686323
945.5394243
903.5728325
933.7936779
964.7904843
982.3475092
948.6098943
960.9861784
604.1710711
618.2435395
585.5353556
599.2993625
666.7503867
855.2809158
624.9296181
641.2020502
1187.561558
1380.575983
952.2788984
1106.800326
4469.231705
2167.163993
2355.802674
1471.310285
2069.892547
1047.201979
1036.561326
393.4616687
1726.498058
1733.349997
1684.762173
1714.147908
1787.105075
451.6539813
1604.931034
1108.860565
960.3139605
734.5452203
320.8954513
1041.377499
1563.587643
983.8358959
1052.328034
1638.757852
1669.45335
1587.317419
1625.792847
353.0804036
995.6327373
981.6985911
4876.681997
1023.738679
4714.554465
3979.155478
4697.603638
1094.183912
5668.335908
1336.177022
5334.421299
4466.687896
740.7275503
836.1867993
1782.5299
1747.394157
517.4545963
574.1090857
1859.345994
1786.250082
5079.189071
1246.217853
460.6497413
512.4607859
5465.682868
6280.12919
1985.502129
6856.490134
4753.132092
1383.755438
1146.517816
5984.688283
3070.461162
6614.528173
3562.748383
1676.728424
58.49985454
40.36592901
35.64930822
4934.391426
4910.654929
122.5994785
66.64574095
67.35510198
5156.179
763.057489
2181.831951
1446.224554
264.1419388
224.4858126
141.8395772
229.1008308
169.529162
319.6903348
1091.200064
228.1454509
248.4438543
49.56509816
57.03502381
100.0330005
299.8523542
542.163693
778.2624038
177.1363521
93.58943872
97.0859279
89.23625429
92.46882964
173.7015972
671.5968562
746.1188618
2458.605126
527.9044983
465.9301398
283.7138033
321.0146103
336.0792424
765.2157885
843.3164101
1073.475477
411.1426304
98.29568074
102.0769067
204.4814199
262.3581312
607.3059981
577.6309996
553.8341111
483.7488401
239.5813019
637.322712
300.7865287
316.0920487
3864.625418
3568.238064
1949.385343
1773.358894
1748.570235
1092.637544
3129.468306
5091.584831
4466.313871
1009.668412
592.3563069
654.0839836
1874.74408
1136.410744
1812.073063
1797.407157
1836.159462
1914.666562
4242.185134
2862.60318
3267.674387
4807.528277
1190.991891
964.317793
574.1467419
1215.762493
143.4022875
115.0533954
190.9582872
700.8728497
1846.348534
1314.132136
5480.350691
5855.495944
5985.315931
4796.582878
5651.285658
80.13602924
99.47420177
218.9986462
1973.108729
1297.959685
1009.045928
2576.384659
2030.266807
1670.120555
3182.588336
2865.290373
4769.822308
4470.657833
3053.003036
590.9114033
634.5980646
1269.623163
4232.719325
2078.019055
2325.61657
3644.384442
2002.6094
2378.628044
1026.473957
1392.650358
1156.847837
698.436225
465.0923007
473.0122973
1149.410879
681.0922139
723.1471209
478.7001235
490.6477763
728.7253993
158.7027374
176.1979719
373.0131609
475.9923974
860.48725
607.152025
1058.737239
1105.580095
683.0780995
1820.010207
1284.836885
1342.580669
843.8031415
847.3589422
1432.658257
1472.642611
1489.995368
1378.998056
1405.069317
1306.635904
776.2484204
782.4301315
741.8978525
749.8266675
1235.99471
1403.238967
828.8242847
834.5016442
789.004549
795.5882526
1348.092486
626.8751154
612.6047683
265.4358017
287.5171328
646.1738104
631.4796352
449.5655314
435.7230444
218.5337259
1542.362245
1545.803688
1497.697395
1504.507556
1945.177378
1556.44896
1558.082032
236.7373878
471.6414087
455.1152139
4081.426218
4030.339259
2450.634099
2593.423373
4203.03941
4071.289566
4252.132965
608.9643199
1207.698883
1012.922934
283.0679725
296.0195061
606.3080765
532.3365067
268.9638346
279.4311274
1121.038962
1120.585924
755.6175197
777.5120721
1130.788781
1135.315372
5075.875814
1569.530335
1010.564263
996.4602584
12539.40311
2477.32422
1266.607071
4170.847592
3248.283644
1890.673332
1866.188592
1159.343429
5755.402636
6305.056015
5992.263668
4583.20872
1238.290503
1941.733271
1878.487314
2175.849996
804.6034753
928.0261665
4840.718284
4756.40917
3543.277045
3259.581343
1765.912425
867.5349081
894.9714062
978.3428313
2718.419895
4820.844265
4047.934228
4877.39063
4648.042367
3141.451826
154.9176796
204.3834141
585.5230964
2562.480325
2495.922096
2641.612952
2615.654801
2422.77223
1603.727228
1588.249643
1621.498196
1607.285708
2431.044683
3241.902017
1814.493718
1825.387921
1748.279729
1796.840666
3300.412516
2235.535899
1455.420917
1318.138472
1575.829165
1534.20975
2294.732532
3100.317395
1846.969194
1856.915967
1836.024702
1840.396558
3142.461575
2720.197808
2663.842328
2785.531686
2675.401075
1026.307159
691.4967555
695.8344368
1684.525442
1044.682119
1049.834583
1013.67278
1036.987644
1671.559677
5032.484744
5264.548554
4503.871291
5116.98005
1766.641482
1782.003232
1734.348614
1750.920059
2258.421823
1032.593884
1698.40454
1628.951808
1729.257982
1058.127357
1062.806478
1052.316846
1055.849392
1721.640882
1664.698478
1710.835084
1148.416555
1596.526106
2228.035772
5436.684191
5028.352489
3650.98659
5317.710657
869.3182846
1245.157659
12962.8573
1198.458114
807.5843733
812.035268
1899.136389
7186.780282
7418.365699
9230.250222
5555.005853
5037.023828
1829.531075
1816.720522
1137.902583
1795.726821
1635.945871
2340.565338
1617.304129
2130.654926
1592.65685
628.4886466
2297.725215
1582.406489
4415.753554
4629.597292
5030.648573
3595.224229
4228.439385
1216.659175
1563.281964
722.6569314
383.4764967
530.388258
854.8251222
965.7044854
557.5765639
828.6623681
1101.164947
4657.971062
4951.915562
4573.612599
4740.61801
5605.756301
5541.143651
5341.501416
2937.29876
4642.64238
4149.888584
5326.060309
5543.646529
3390.651405
3755.369114
4236.766803
5611.419646
4416.946525
2887.303003
3255.879224
1860.266873
1343.096984
1883.485099
1009.116355
1450.525459
1936.334243
2121.790693
1952.767311
2722.784287
1747.346338
1655.619602
2360.784512
1727.597493
2556.284027
2544.936617
1640.057348
1625.04473
1663.187226
1640.468421
2560.646047
2066.902954
1245.868262
1264.187965
3521.565729
3504.526059
2977.429287
3934.027291
3788.146865
3616.198899
3463.42526
3623.011587
2721.50117
1472.364215
1636.771092
1294.340637
1354.984025
2316.105896
4513.145266
3700.469496
1904.903626
4864.474466
4618.72342
4604.209059
2750.094774
4487.472213
4328.412431
1583.057359
1778.373906
3482.61752
1069.180023
1145.550269
539.0077874
610.812444
1101.203078
729.2783869
495.8161808
519.5110995
972.9846951
933.6545805
551.8486405
922.0086899
1244.953366
628.2977238
1039.866716
1017.597998
1555.573909
1078.842198
1060.212895
1187.410343
1148.548755
1643.109418
2394.420761
2259.172512
1473.999833
2163.602121
2268.001498
2031.77077
2139.895632
1446.325174
2167.431397
2141.522498
2722.32192
2035.823013
913.7559336
906.4577265
1403.684308
1448.072772
862.0382745
859.4252252
1447.577795
1462.722704
1420.513953
1435.842869
765.6369585
771.2911842
1298.684655
1251.563559
755.1302419
760.2873703
814.994902
820.9586111
1389.937675
1362.091496
802.548002
808.7775441
3013.250193
1879.568617
1888.418228
1861.128427
1868.916337
3012.549923
2922.317165
2065.415587
2374.85055
1908.772362
1953.514583
2930.529414
939.7922268
1551.224774
1538.662065
1568.963083
1560.650686
942.5195529
922.9999297
1497.375573
1477.488593
1527.046562
1513.232257
929.9717278
971.2107057
1624.699422
1612.509752
1642.912783
1631.079245
974.4576381
952.238463
1585.348174
1577.926237
1605.006667
1593.757311
955.7979915
1527.736879
1532.997384
608.7070575
908.0577534
904.3621258
916.8713665
913.8096968
614.0990784
1513.420667
1519.536589
1610.214207
1519.34904
689.0083635
981.6385765
991.5289609
1438.769066
1381.045566
771.1050472
627.8799071
926.1711214
924.3914013
935.9370148
939.4797798
639.0899995
1572.238276
1564.504235
4063.63463
3921.419479
4289.758324
2795.073708
3329.647909
2223.613026
3809.253068
3863.820172
3788.545845
3802.784257
2279.427719
1635.116011
3185.381611
2672.192767
3749.845355
3890.490661
1882.141436
1051.569922
718.8417473
721.021632
703.3508089
706.3668931
1037.578204
1727.087689
1743.293549
1691.561957
1710.929741
1683.772785
2156.171107
1533.867729
863.7186052
959.2318511
749.6478621
774.1569942
1097.091998
1459.810363
2052.687964
1603.971064
1523.657584
997.6643771
1660.21801
1644.175284
1701.423746
1651.949651
993.7717013
1647.623194
1661.435638
1601.636159
1615.41732
4517.587172
2773.280002
2967.137093
2010.770672
2436.585722
4620.408577
4623.549712
4446.540806
3279.782778
3825.257177
4963.471669
5127.667638
3628.95769
3873.60983
2712.879302
3184.771998
5326.52849
1817.060095
1818.148681
1798.45375
1802.002076
1181.274241
1194.047331
809.773202
1884.979858
1780.302227
1837.80739
1827.602529
1765.824066
1074.118955
1083.251389
1065.294938
1071.853318
1761.461756
1807.416749
1098.993945
1161.380038
1085.290412
1101.954033
1810.931691
4863.025071
844.0841177
850.6913744
1251.009579
5280.440636
8411.320711
8797.38285
8091.347158
8176.500332
5925.215572
1932.88215
5875.446928
3999.127863
4409.808851
1156.398493
1856.379802
1838.321042
5940.880173
6516.094635
6251.742831
5012.436402
5506.289206
6909.415257
6540.749622
3988.802954
6206.981077
5269.630807
2306.79294
1848.834453
1226.326737
31.77004158
31.78118356
31.86540695
31.78576814
31.80499114
31.87748974
31.8122036
31.83981315
31.8956659
31.84897881
31.87903015
31.91713079
31.88731651
31.9076232
31.93441093
31.91146061
31.91423409
31.93850632
31.91178481
31.89542126
31.92775746
31.88864575
31.86080095
31.90854884
31.85216188
31.8245719
31.88899364
31.81702679
31.79614595
31.87377614
31.65871348
31.68186457
31.75465841
31.69205297
31.73145955
31.783529
31.74677779
31.79946797
31.8252602
31.8197892
31.87750146
31.87077368
31.89462162
31.93491004
31.9073023
31.94467341
31.94958021
31.9148248
31.94265263
31.90836541
31.89054082
31.89264842
31.83954453
31.85000102
31.82128859
31.76821538
31.80681705
31.75259623
31.71118068
31.77251607
31.56068314
31.60669861
31.66042553
31.62642662
31.69988633
31.7188451
31.73068305
31.84040408
31.80080921
31.88351529
32.02850354
31.89236908
32.05999848
32.16206189
31.96838443
32.19844639
32.20104669
31.97635751
32.16814997
32.08335854
31.92753526
32.04179195
31.91483496
31.84547242
31.87379292
31.76525017
31.76053061
31.73495481
31.65866868
31.693975
31.48064526
31.55804428
31.59207215
31.59126255
31.73291161
31.70188572
31.79798689
32.0578886
31.87402074
32.17182976
32.62747838
32.09673162
32.73518662
33.15209811
32.32219423
33.3034808
33.23324694
32.31175239
33.05020955
32.71079172
32.16576241
32.5709915
32.21793387
31.96285927
32.11728299
31.870529
31.7785122
31.80506809
31.65362862
31.6515844
31.42202763
31.54514405
31.55122464
31.60377127
31.8692177
31.7567485
31.99915196
32.60898716
32.15719375
32.9293595
34.7128333
32.86152812
35.45004009
40.36734673
33.8519969
40.38696833
38.47158796
33.71300553
36.88970525
34.7151186
32.9940603
34.1577897
33.00789504
32.36066936
32.74083889
32.16117671
31.92303649
32.0223931
31.719137
31.66180997
31.37740689
31.56463425
31.54700505
31.65933733
32.10291874
31.92089545
32.33428858
33.5764166
32.81978327
34.35291365
41.99912374
35.50338516
39.87470856
45.46031322
38.76433859
55.80248541
54.27216381
42.53262906
44.9350682
40.2704928
38.16483934
38.21986716
34.66350262
33.33554249
33.99232739
32.71350684
32.27372509
32.43889796
31.87800226
31.74980805
31.34361899
31.60636213
31.57457592
31.73939739
32.36541024
32.17203743
32.6953446
34.50507369
33.84305822
35.09485484
36.61909413
36.10435286
48.80654888
54.92972782
52.82209726
80.78191164
59.58841852
50.73462795
45.28148378
37.25803783
35.25170221
35.91098287
33.52792273
32.89641352
33.05279853
32.12745969
31.93339305
31.31597541
31.64960649
31.61745358
31.81529716
32.57787438
32.42394659
32.97165323
35.07000077
34.67298202
36.06810814
37.9809079
37.72856226
55.2888356
64.95533386
63.96392342
125.9055363
80.70198158
73.11956582
52.28948498
40.09528714
38.0018969
38.04375275
34.4637214
33.76400263
33.76514829
32.43022596
32.20045377
31.29056172
31.68579459
31.65928317
31.87805077
32.74153542
32.62204647
33.1786222
35.48052758
35.17438829
36.66651985
38.83353449
38.6097893
62.01393372
80.6160574
78.16142127
141.6102228
92.20106571
89.1955038
56.73868074
42.34892547
40.76082628
39.81856614
35.30838044
34.69808171
34.42388239
32.72866703
32.50662765
31.2662433
31.71553802
31.69324844
31.93121632
32.8843657
32.77733869
33.36216468
35.91441331
35.57300074
37.2850878
39.95021433
39.57578965
69.850673
96.09365913
92.79816503
136.594649
93.98611487
94.15707416
58.4803956