/*--------------------------------*- C++ -*----------------------------------*\
| =========                 |                                                 |
| \\      /  F ield         | OpenFOAM: The Open Source CFD Toolbox           |
|  \\    /   O peration     | Version:  v1912                                 |
|   \\  /    A nd           | Website:  www.openfoam.com                      |
|    \\/     M anipulation  |                                                 |
\*---------------------------------------------------------------------------*/
FoamFile
{
    version     2.0;
    format      ascii;
    class       surfaceVectorField;
    location    "0.45";
    object      Uf;
}
// * * * * * * * * * * * * * * * * * * * * * * * * * * * * * * * * * * * * * //

dimensions      [0 1 -1 0 0 0 0];


internalField   nonuniform List<vector> 
25162
(
(99.99866049 0.00564022679 -1.872127083e-21)
(99.99471782 0.005098855048 5.55073105e-21)
(99.99798701 0.01348060034 -1.846446284e-21)
(99.99266066 0.01723156665 1.879062026e-21)
(99.99666681 0.026316618 -3.680748075e-21)
(99.98798671 0.0362430965 1.112409514e-20)
(99.99847299 0.0298209343 1.133262871e-21)
(99.97971193 0.06648567162 -7.303322305e-21)
(99.99127921 0.06617945561 -1.222797153e-21)
(99.99762205 0.05410568696 1.767177637e-21)
(99.99920874 0.03235852233 8.723117335e-22)
(99.98984946 0.08976941573 1.754672498e-21)
(99.99767234 0.05096866307 8.55850291e-22)
(99.998279 0.04011293272 -8.866253733e-22)
(99.99712358 0.06454568174 8.558153355e-22)
(99.9843496 0.1448279735 1.701978257e-21)
(99.99686852 0.08128139295 0)
(99.99670161 0.09962207422 -3.092745702e-21)
(99.97965532 0.2196478407 -3.092729606e-21)
(99.99624957 0.1213828803 -8.010457785e-22)
(99.9957562 0.1463172112 2.694278952e-21)
(99.97386051 0.3192331151 2.925725682e-21)
(99.99531067 0.1743019683 3.600130353e-22)
(99.99497384 0.2048225184 -2.336801559e-21)
(99.96987563 0.4408961344 3.365217261e-22)
(99.99480334 0.2370564839 -2.347313325e-21)
(99.9948742 0.2697448804 3.225663472e-22)
(99.9706919 0.5706933282 -1.540524368e-21)
(99.99524938 0.3010996616 2.111276236e-21)
(99.99595512 0.329163303 1.756823115e-21)
(99.97885126 0.682146564 -7.631402983e-22)
(99.99697909 0.3518419009 0)
(99.99825759 0.3672427206 0)
(99.99354187 0.743639426 1.369990557e-22)
(99.99976787 0.374167174 0)
(100.001293 0.371692764 5.375659433e-22)
(100.0103182 0.7344586467 -1.012872467e-23)
(100.0025901 0.3606704396 1.015511482e-21)
(100.0036268 0.3423015761 -3.210926508e-22)
(100.0225014 0.6616904983 -6.285202252e-22)
(100.0043615 0.3182194656 -1.141061212e-21)
(100.0047941 0.2904044871 7.819505265e-23)
(100.027833 0.5512522703 1.707593643e-21)
(100.0049503 0.2606454802 4.413285998e-22)
(100.0048682 0.2305085203 0)
(100.0273033 0.4313837711 0)
(100.0046223 0.2013134717 0)
(100.00439 0.173856109 7.093241011e-22)
(100.0232649 0.3224465886 1.468488244e-21)
(100.0044475 0.1489847764 -3.591484094e-21)
(100.0042997 0.1250908147 -1.341539232e-21)
(100.0193487 0.2284004013 2.911263416e-21)
(100.003693 0.1044114819 2.911046173e-21)
(100.0027611 0.08703402713 -8.139893796e-22)
(100.0116314 0.1573699496 -4.257304047e-23)
(100.0007894 0.07460848038 1.588862985e-21)
(100.0073275 0.07281802424 -7.077005856e-21)
(100.0415355 0.1782835794 3.605625305e-22)
(100.0149245 0.1602937846 -2.51984444e-21)
(100.002501 0.07400356894 -1.468928166e-21)
(100.0051884 0.04229470368 -8.88490415e-22)
(100.0285457 0.1102718248 1.40866362e-20)
(100.0043134 0.01989734985 -7.135020598e-21)
(100.0210441 0.05893604681 -1.502005633e-20)
(100.0187512 0.01863452311 1.275362908e-21)
(99.98761235 0.01567340315 9.264450764e-21)
(99.97998662 0.008355611555 2.41710285e-22)
(99.98098949 0.03779209267 1.477947504e-20)
(99.97192597 0.02876634925 -1.296631298e-20)
(99.96854838 0.07364999146 7.688503774e-21)
(99.95442809 0.06176835312 -2.00829005e-20)
(99.96238261 0.1171440006 -1.313499222e-21)
(99.92464505 0.1153882882 3.863119146e-20)
(99.93621614 0.1479434892 -8.496777766e-21)
(99.94425851 0.1503108462 -1.823091308e-21)
(99.95746613 0.1487763036 3.58029075e-21)
(99.97386081 0.1058047651 1.780617967e-21)
(99.95895075 0.1753837932 1.733507293e-21)
(99.94545603 0.1920086561 1.766229731e-21)
(99.90849724 0.2531724545 -3.575305469e-21)
(99.93199609 0.245942783 -2.224069844e-23)
(99.93699554 0.2820152919 1.702245361e-21)
(99.91620228 0.3122244691 -1.781678566e-23)
(99.86283483 0.4075063803 0)
(99.90784177 0.3648731686 0)
(99.88321241 0.4181610258 -2.111512223e-21)
(99.91407167 0.4198684225 -4.144981925e-21)
(99.90274487 0.4429171984 -5.599900581e-23)
(99.87550822 0.5116839544 -9.321470101e-21)
(99.89509511 0.484090062 -3.20472711e-21)
(99.87037121 0.6518295993 2.768458747e-23)
(99.88832635 0.6146418503 -2.0899775e-21)
(99.83584437 0.7534455368 -1.143256221e-20)
(99.86411303 0.7078707898 -2.788154122e-21)
(99.84539887 0.9172627762 -5.146010101e-21)
(99.87032246 0.8571220264 -4.859674326e-21)
(99.8068046 1.057130323 5.338422147e-22)
(99.84299907 0.9850755124 -6.167245941e-21)
(99.84168531 1.213932658 -3.482110709e-23)
(99.87324891 1.121901953 -3.956943568e-21)
(99.80589593 1.393047721 -2.043778819e-21)
(99.84711404 1.285818287 -2.959978998e-21)
(99.87430475 1.487518756 -3.317123142e-21)
(99.9086541 1.356634858 -4.930031864e-21)
(99.85125622 1.695764138 -1.120261282e-20)
(99.88964289 1.548690836 -2.561828596e-21)
(99.94549115 1.662469521 -2.075372887e-21)
(99.97421224 1.494094303 -6.197052941e-24)
(99.94266489 1.876343177 -3.014832007e-21)
(99.96733664 1.696015976 -8.511752261e-22)
(100.0324542 1.682934113 1.39174207e-22)
(100.0394892 1.486927109 -1.640693236e-22)
(100.0479919 1.873568892 1.509663898e-22)
(100.0528737 1.673591651 -7.644210724e-22)
(100.1050924 1.54895484 -2.561561406e-22)
(100.0834293 1.345866828 -2.15054257e-22)
(100.1292521 1.698269726 -7.068597368e-23)
(100.1171087 1.499719 2.039439161e-21)
(100.1424039 1.310743011 2.262946612e-21)
(100.1029267 1.123644127 3.935494006e-21)
(100.1677071 1.417050941 3.930845224e-21)
(100.1450594 1.241301425 5.012939962e-22)
(100.1463464 1.037129687 -6.255987412e-21)
(100.1010281 0.8799480857 -5.823866562e-21)
(100.1681098 1.10815357 -2.109299571e-21)
(100.1423633 0.9652725921 -2.072091056e-21)
(100.1276257 0.782090412 -4.917027526e-21)
(100.083419 0.6588893138 4.49879829e-22)
(100.141492 0.8260496837 -1.311991384e-21)
(100.1202798 0.7199194856 5.342250919e-21)
(100.0778915 0.4518458581 -1.232698391e-20)
(100.1245147 0.6157308602 -1.232602612e-20)
(100.1742601 0.6651706778 1.245672936e-20)
(100.1073545 0.5125927182 -2.521912511e-20)
(100.0907447 0.4239781315 1.089038392e-20)
(100.1258419 0.4522253603 -1.536482457e-20)
(100.0741575 0.3489028058 2.208428895e-20)
(100.0556111 0.3087885636 2.453209349e-20)
(100.0691391 0.2117024342 2.094747888e-20)
(100.1566154 0.3322855529 -1.773452676e-22)
(100.1202727 0.3737190522 4.401364068e-20)
(100.0708876 0.2947025768 2.386573931e-21)
(100.0499529 0.1236660919 -7.04252758e-22)
(100.1111529 0.2045668266 3.005280847e-20)
(100.0401671 0.0569540727 -6.997095348e-21)
(100.083938 0.1093868312 -1.5934709e-20)
(100.072473 0.0345205371 7.134093594e-21)
(99.96673907 0.02034087276 -2.224895289e-20)
(99.96078195 0.008130368168 -1.111978392e-20)
(99.94854884 0.05040977451 -4.814519533e-20)
(99.94360281 0.02945584109 1.036775317e-20)
(99.91527294 0.1007414482 9.876761183e-21)
(99.90718068 0.06764425314 -4.075245945e-20)
(99.88063019 0.1751237113 2.459832849e-20)
(99.84748491 0.1322462214 4.428558741e-20)
(99.84013723 0.1914021136 -3.857261768e-20)
(99.89826243 0.1871495821 -7.288995237e-21)
(99.84316407 0.212086253 -5.40902178e-20)
(99.85710447 0.2340603895 -3.653998197e-21)
(99.84012884 0.3192426932 -7.12384825e-21)
(99.82112462 0.3078348158 -3.550679937e-21)
(99.75556116 0.3699894245 2.491146356e-20)
(99.77921327 0.3984042318 7.005445845e-21)
(99.76160963 0.5193073895 -6.162666048e-21)
(99.73067649 0.5093157516 4.544369179e-21)
(99.63527253 0.6115712965 -3.510134857e-20)
(99.7017486 0.6218703357 2.437052687e-21)
(99.65326669 0.666975191 -1.523827766e-20)
(99.68775502 0.7740829343 -6.268653504e-21)
(99.66324778 0.772286687 0)
(99.60597602 0.8512710859 6.496663944e-21)
(99.63585319 0.8596951196 -6.242734815e-21)
(99.58691047 1.161740601 3.043284188e-21)
(99.55027852 1.169123949 1.191976256e-20)
(99.47683768 1.286953403 5.903943302e-21)
(99.52292769 1.286795411 1.480286778e-20)
(99.50601552 1.661091545 -2.617214068e-20)
(99.45310126 1.687994531 -1.816806816e-20)
(99.37014812 1.854542779 -3.775211596e-20)
(99.43721637 1.833060379 -4.011638672e-20)
(99.494791 2.230257103 6.299423092e-20)
(99.42618974 2.292984239 6.710568006e-20)
(99.35238713 2.506030002 -2.843727095e-21)
(99.43894967 2.444127985 -1.543138397e-21)
(99.60955631 2.753478769 4.470156687e-20)
(99.5353804 2.869959336 -1.116884875e-20)
(99.49500933 3.117338064 1.908478644e-19)
(99.58713751 2.990767504 -3.729135301e-20)
(99.8506763 3.078971285 6.230557514e-22)
(99.79289834 3.260262844 1.621678955e-20)
(99.80538804 3.507099157 -1.776229929e-20)
(99.87325573 3.306683251 -9.504309431e-21)
(100.1384013 3.080781034 -7.259670105e-22)
(100.1206541 3.310315063 7.533499145e-22)
(100.1810437 3.51081159 5.89515033e-21)
(100.197519 3.262607515 6.712387672e-21)
(100.3599785 2.771492448 -1.5921064e-20)
(100.3866934 3.010007384 0)
(100.4668877 3.142819277 6.360610575e-21)
(100.4325932 2.894221382 -1.304736434e-21)
(100.4601626 2.286741629 4.592338409e-21)
(100.5165796 2.502456516 3.67346851e-21)
(100.5929921 2.577023396 -1.271343162e-20)
(100.5275732 2.360318613 7.690918443e-21)
(100.4535947 1.762287104 -5.784198731e-21)
(100.5203732 1.93836905 -1.349124885e-20)
(100.5814852 1.97431544 -4.685143876e-21)
(100.5076814 1.801624529 5.177832304e-21)
(100.4520946 1.425090112 -1.627126344e-20)
(100.3897083 1.291194579 -1.096231652e-20)
(100.497242 1.43717947 -1.097709964e-20)
(100.4323354 1.309958044 5.833567522e-21)
(100.3073285 0.8636550481 -4.870658657e-20)
(100.410586 1.054276285 -2.548963107e-20)
(100.47743 1.042868708 -7.387428299e-20)
(100.3562682 0.8731655383 -3.486833568e-20)
(100.2249452 0.5838177364 -5.573690901e-20)
(100.3050252 0.7174739208 2.216697877e-20)
(100.3490724 0.6985493978 -2.644872627e-20)
(100.2575756 0.585310655 -2.313486836e-20)
(100.192474 0.3218048236 9.420783043e-21)
(100.3311458 0.4406541343 -2.387102366e-20)
(100.3096426 0.5340317509 -1.494058118e-22)
(100.2314408 0.4815656229 -1.367077059e-20)
(100.1405588 0.1872954023 1.407476068e-20)
(100.237701 0.2686424743 2.504353747e-20)
(100.1124912 0.08580763179 -1.792149395e-21)
(100.179686 0.1428230357 -3.617854048e-21)
(100.153397 0.04483124347 0)
(99.94217455 0.01640436053 2.234069994e-20)
(99.94532506 0.003142735958 -3.728383655e-21)
(99.90781323 0.04479429134 1.879444582e-20)
(99.91685993 0.01516753673 2.609471559e-20)
(99.84606836 0.09835255969 -7.472325105e-21)
(99.85674686 0.0469634803 -3.690123254e-21)
(99.76686356 0.1948201591 0)
(99.75874723 0.1068259824 5.699016585e-21)
(99.71991867 0.190873976 1.730323453e-20)
(99.77914705 0.2247497899 -5.053309598e-20)
(99.70994716 0.2227953954 1.30092539e-20)
(99.71460294 0.268474557 0)
(99.65758555 0.4021438396 2.029590743e-22)
(99.64456905 0.361139067 -2.868484305e-20)
(99.54921049 0.413138419 -2.866554596e-20)
(99.56114504 0.4770432839 5.813070037e-20)
(99.4874161 0.6786496115 -8.635080181e-20)
(99.46305376 0.6206075365 3.16507017e-20)
(99.32346591 0.7126912001 -5.77654317e-20)
(99.38330791 0.7912433248 -2.878164467e-20)
(99.31665591 0.8043051862 -4.720266597e-20)
(99.30696781 1.037476052 6.791831085e-21)
(99.28136729 1.002791509 1.349196125e-20)
(99.1910068 1.081311863 3.413566791e-20)
(99.21907105 1.126768962 6.734294296e-21)
(99.06399953 1.611114325 -1.482217203e-20)
(99.0192285 1.572965343 -1.957586566e-20)
(98.89999279 1.696475742 -3.884893082e-20)
(98.9520092 1.747923611 1.208030007e-20)
(98.84911483 2.379535457 -2.051128824e-19)
(98.77327722 2.348297129 2.357528108e-20)
(98.6389327 2.525790361 -7.471349964e-20)
(98.72910284 2.570543554 -1.558519711e-19)
(98.78198029 3.303853403 4.027577168e-19)
(98.66563368 3.303319791 1.674901716e-19)
(98.53430008 3.557775398 3.490758682e-19)
(98.67651722 3.563770703 1.576847598e-19)
(99.00246979 4.264693181 1.458969402e-20)
(98.84886267 4.340864315 -1.189888539e-19)
(98.77500584 4.670064042 2.632132845e-20)
(98.96035242 4.577933036 1.217222185e-19)
(99.59671071 4.924319231 -9.047659883e-20)
(99.45186911 5.120728748 0)
(99.49511112 5.457460896 5.661118583e-20)
(99.65505732 5.2214791 2.158196201e-20)
(100.353367 4.938012209 -2.980103628e-20)
(100.2886141 5.233781467 1.608153236e-21)
(100.4313976 5.475594685 3.48802435e-21)
(100.482972 5.141766704 -1.595833486e-20)
(100.905497 4.331848787 0)
(100.9398372 4.645792747 -2.273065997e-21)
(101.101867 4.759747717 -1.027221572e-19)
(101.0421844 4.428588763 0)
(101.1119031 3.446316098 1.045362896e-19)
(101.2058426 3.713619139 7.078420515e-20)
(101.3349276 3.73786041 6.61813309e-20)
(101.2199679 3.471267963 -3.82478031e-20)
(101.0697113 2.577094054 1.223902237e-19)
(101.1798861 2.780208241 9.178497148e-21)
(101.2688076 2.757447904 8.161464275e-20)
(101.1455999 2.565615758 2.762520339e-19)
(101.0058885 1.983533952 0)
(100.9025015 1.834994199 4.372923891e-20)
(101.0640789 1.951091793 0)
(100.9534019 1.81168579 0)
(100.6828566 1.196146793 2.688197245e-20)
(100.8545616 1.400830639 1.728185629e-20)
(100.9205495 1.316569928 -1.533207945e-20)
(100.7368541 1.147359778 3.374701808e-20)
(100.4985739 0.7922923036 -3.079159664e-20)
(100.6292892 0.9322327988 -1.374711472e-20)
(100.6690858 0.8618615625 -1.387083313e-20)
(100.5329285 0.7504843745 -6.710218494e-21)
(100.3651166 0.3846497428 -8.543564328e-21)
(100.547887 0.482808974 -1.795377526e-20)
(100.568846 0.6272924944 -2.392059879e-21)
(100.4669413 0.6029070465 5.212446984e-21)
(100.2671137 0.22160838 7.207885881e-21)
(100.3914162 0.2901587285 1.095601996e-20)
(100.2124528 0.1006372363 -1.825381625e-21)
(100.2937768 0.1517232523 -3.223425152e-21)
(100.248306 0.04715044728 -4.637518092e-22)
(99.92485009 0.001587054432 0)
(99.94384408 -0.007256114397 0)
(99.87187361 0.01609733768 3.771761088e-21)
(99.90322929 -0.01623073703 0)
(99.77665941 0.05709467413 9.571068659e-21)
(99.81817736 -0.004738056627 -3.171614493e-21)
(99.64376602 0.1609570275 1.599079664e-20)
(99.67611298 0.03442943802 2.107694384e-20)
(99.59941219 0.1290626128 -6.329856607e-21)
(99.64182868 0.2051686941 2.239729399e-20)
(99.57150886 0.170881338 1.808126627e-21)
(99.5550077 0.2360103881 -9.126572804e-21)
(99.43498003 0.4002811707 0)
(99.44050569 0.3328134968 -1.879156426e-20)
(99.31940547 0.3612670875 -1.542825536e-20)
(99.30354898 0.4562655639 3.831810007e-21)
(99.145274 0.7092116559 0)
(99.14213952 0.61332446 3.831399761e-21)
(98.96073841 0.6675293525 -3.956453001e-21)
(98.98517663 0.8161853145 1.908947527e-20)
(98.91083911 0.8042113071 4.934070615e-21)
(98.80609766 1.138026917 2.192389075e-19)
(98.79269592 1.067911658 0)
(98.66690501 1.130406535 -5.179490514e-20)
(98.67978719 1.215801341 5.62497913e-20)
(98.34291561 1.853436774 3.466511785e-19)
(98.30692042 1.760506523 -7.414353992e-20)
(98.143182 1.859565736 2.062404053e-19)
(98.1810688 1.975211034 2.321252211e-19)
(97.8873176 2.851000911 0)
(97.80771146 2.741708492 -2.882791919e-20)
(97.59641023 2.911439008 0)
(97.68931545 3.04780904 2.859731041e-19)
(97.57510039 4.246725384 2.070220814e-19)
(97.41421194 4.142052915 -9.71909106e-21)
(97.17216433 4.436313511 2.128916859e-19)
(97.37273599 4.565187362 1.271856159e-20)
(97.81292055 5.966923454 0)
(97.53374033 5.954693361 -1.851035431e-19)
(97.36620983 6.425565045 0)
(97.71726158 6.421850315 -1.862896333e-20)
(99.04063927 7.3424068 -7.47046582e-20)
(98.72057165 7.568827787 8.270123552e-21)
(98.81877526 8.104218421 8.284589337e-21)
(99.17843367 7.791787982 7.910382856e-21)
(100.7723303 7.365980838 -5.238184986e-20)
(100.6242548 7.804823682 -6.005804508e-20)
(100.9427373 8.119094418 -6.301641857e-20)
(101.0514093 7.605216999 6.612607391e-20)
(101.9086328 6.158236898 -1.134673619e-19)
(101.9748274 6.604671818 1.407044827e-20)
(102.2751034 6.659916557 -5.127435331e-20)
(102.1536458 6.19701059 -1.093431654e-19)
(102.19894 4.586828404 -1.297876567e-21)
(102.3690218 4.929397192 2.103962437e-20)
(102.5688092 4.858607028 1.363577371e-19)
(102.3590466 4.528649762 -6.351622977e-20)
(101.9921278 3.237093479 -8.57940073e-20)
(102.1729633 3.465342564 1.521092603e-20)
(102.2767299 3.368321026 -7.385519897e-20)
(102.080402 3.158215236 -6.090886392e-20)
(101.77853 2.375039076 -1.007973355e-20)
(101.6251489 2.22406394 -3.49225638e-21)
(101.8346601 2.284373814 1.685110049e-20)
(101.6742425 2.151596522 2.054675828e-20)
(101.1861802 1.397965383 -8.663691144e-20)
(101.4348397 1.597787689 -5.484680355e-20)
(101.4766143 1.43419251 -3.06871726e-20)
(101.2267037 1.28837717 -1.57556736e-20)
(100.8565249 0.9026809454 1.067242328e-20)
(101.0407382 1.031233751 3.216629311e-20)
(101.0567667 0.9113447419 -3.61605511e-21)
(100.8781623 0.8179134503 -3.529031502e-21)
(100.563365 0.3884947814 1.861756607e-21)
(100.7831738 0.4418295423 0)
(100.8674067 0.6346158954 -9.055395789e-23)
(100.7548671 0.6419001857 -9.610910225e-21)
(100.4085125 0.2180927545 4.155859852e-22)
(100.552107 0.2595035211 1.861588762e-21)
(100.3213136 0.09729384596 -1.86607629e-21)
(100.4077156 0.1307889046 -1.868388196e-21)
(100.3400724 0.03990773173 -1.876632203e-21)
(99.92683624 -0.02493865427 0)
(99.96738659 -0.0230411539 1.849060261e-21)
(99.85532755 -0.03748904613 -7.55299345e-21)
(99.91513594 -0.06453431422 -1.863196424e-21)
(99.72602858 -0.02587720363 7.831871524e-21)
(99.80736273 -0.0879076277 -3.751030669e-21)
(99.53394113 0.05226187601 1.025778879e-20)
(99.62571342 -0.08609482575 2.845382786e-21)
(99.49828858 0.0036420441 -4.278592783e-25)
(99.51230173 0.1184574857 -7.598215559e-21)
(99.44588092 0.04955494018 -7.683822312e-21)
(99.40482968 0.1228823262 0)
(99.20779442 0.2947293823 -1.542787449e-20)
(99.24286972 0.2074252048 0)
(99.10512569 0.2010307653 -9.784266485e-23)
(99.04772253 0.3171416243 -6.850424987e-23)
(98.77556885 0.5864376096 7.964111091e-21)
(98.81367204 0.4600049384 1.194646299e-20)
(98.6009637 0.4657646523 1.610906595e-20)
(98.56944469 0.6708409602 -1.27570009e-20)
(98.49914347 0.6220959994 -1.305093544e-20)
(98.24880434 1.019705404 -1.52540761e-20)
(98.26504917 0.9210752644 7.629443874e-21)
(98.11285044 0.950706595 -6.440964388e-20)
(98.08976984 1.065798546 -9.691261905e-20)
(97.52019845 1.734354765 1.297389934e-19)
(97.51913058 1.593442719 -7.771584539e-22)
(97.31388031 1.644707121 -7.034173554e-20)
(97.30610137 1.811091256 6.730000347e-20)
(96.62740317 2.860562459 -2.752109228e-19)
(96.58512188 2.650970231 1.425772091e-19)
(96.27899698 2.763343881 2.557507496e-20)
(96.32545966 3.015971287 -2.750907236e-19)
(95.6798561 4.757102358 2.73404595e-19)
(95.52371115 4.469755287 -1.046893031e-19)
(95.09191048 4.73321825 2.760331748e-19)
(95.28348457 5.099003808 2.829375869e-19)
(95.42689538 7.827229494 2.381627953e-19)
(94.96478048 7.561726778 1.080685916e-19)
(94.495074 8.252867803 1.10891358e-19)
(95.12977448 8.557365638 1.329973227e-19)
(97.79704922 11.07466041 0)
(97.05287716 11.35567765 1.774730875e-20)
(97.2751551 12.42388195 0)
(98.1438289 11.91214033 -1.405682346e-20)
(101.8416763 10.92272606 -3.032567999e-20)
(101.5818684 11.71716114 -1.452052868e-20)
(102.3646055 12.09244147 -1.776340445e-20)
(102.4718675 11.15333086 -8.046898559e-21)
(103.843396 8.224544564 3.63645828e-20)
(104.0409071 8.886571157 -1.719740463e-19)
(104.5768844 8.749587906 -1.965454723e-19)
(104.2545405 8.099510048 -7.537051679e-20)
(103.9332978 5.569429371 -1.014881733e-19)
(104.2523511 5.981843262 -1.14070023e-19)
(104.4845236 5.745201331 -1.141832669e-19)
(104.1192118 5.375993069 4.398480269e-20)
(103.2672084 3.63339634 -2.757978161e-20)
(103.5534413 3.870387322 -1.582602945e-21)
(103.6402318 3.66467522 -6.124397667e-20)
(103.3426286 3.464155208 -2.90447624e-20)
(102.7314342 2.483252344 6.65670233e-21)
(102.5148636 2.35198322 -3.692708254e-20)
(102.7602773 2.331691914 -2.980621489e-20)
(102.5449266 2.222385162 -5.984003592e-20)
(101.7834094 1.417934624 2.515654548e-20)
(102.1055202 1.577268196 -1.987258748e-22)
(102.0939352 1.341127751 1.529001119e-20)
(101.7835265 1.246298886 1.13810525e-20)
(101.2598887 0.8829779616 -1.499150574e-20)
(101.496057 0.9770384818 -7.638753603e-21)
(101.4646171 0.8138730713 -7.640233504e-21)
(101.2490217 0.7593490932 1.163712013e-20)
(100.7599927 0.3177928928 0)
(101.0065087 0.3114611873 1.236238343e-21)
(101.1605995 0.5235622518 -1.028332226e-20)
(101.0557321 0.5856590795 2.550009286e-20)
(100.5409775 0.1704888886 -4.706340227e-22)
(100.6909915 0.1701174883 -1.462652793e-21)
(100.4182642 0.07327947761 -1.886367047e-21)
(100.4993794 0.07752830471 -2.137121979e-21)
(100.4091827 0.02251311208 2.424990242e-21)
(99.95973349 -0.06209707952 -1.35469911e-23)
(100.0259746 -0.0434997101 6.361533038e-23)
(99.87212244 -0.1140795888 1.935913731e-21)
(99.96422226 -0.1272571102 -7.638823075e-23)
(99.71337757 -0.1467530751 -1.013023808e-20)
(99.83830831 -0.197796968 1.526353024e-21)
(99.46220367 -0.1097886709 -9.152482533e-21)
(99.62470876 -0.249025554 -1.54063859e-20)
(99.44757133 -0.1810399335 -1.312919042e-20)
(99.41065708 -0.0376296894 -7.215872495e-21)
(99.36914145 -0.1389001639 -2.864440847e-21)
(99.29401055 -0.0656450329 2.992672011e-23)
(99.01735333 0.08143930405 1.165895071e-20)
(99.09000241 -0.01401017469 1.185937322e-20)
(98.94932084 -0.06198811159 5.849693701e-21)
(98.8432216 0.05820154771 2.018903468e-20)
(98.44825899 0.3052485207 -2.033043743e-20)
(98.54324459 0.1576075886 -1.626980654e-20)
(98.32307217 0.1069356999 6.770289983e-22)
(98.2062726 0.3292997284 -8.139819771e-20)
(98.15365059 0.254985623 -3.849787983e-20)
(97.74515334 0.647536875 1.004754433e-19)
(97.8006414 0.5338114639 6.596639501e-20)
(97.64286442 0.5165182022 -6.958766217e-20)
(97.57645364 0.6429280431 3.339915821e-20)
(96.7384147 1.220798847 1.478459083e-19)
(96.79980514 1.050169366 0)
(96.57334042 1.030098438 2.312039596e-19)
(96.48844506 1.22459816 0)
(95.28341559 2.193536357 1.719659963e-19)
(95.35030478 1.918736855 -3.257672298e-19)
(94.99017816 1.906867603 -4.384960121e-20)
(94.88874998 2.228389522 -2.25918506e-20)
(93.14754419 4.056467617 -3.252084362e-19)
(93.17020906 3.561486235 -1.728816386e-19)
(92.52830047 3.588763586 1.752078146e-19)
(92.46013581 4.222425363 2.205948765e-19)
(90.35789644 8.679535906 -9.793189249e-20)
(89.9059929 7.635076256 8.334565474e-20)
(88.27688333 8.452120895 -6.567043622e-20)
(88.59000774 7.870579722 -6.526234454e-20)
(89.43516161 9.817549134 -6.429784706e-20)
(88.66343291 9.706960893 4.978148724e-19)
(92.44417971 18.49872814 2.562721097e-21)
(93.60343064 18.37553574 2.577978963e-21)
(92.58496525 20.04190066 2.585095188e-21)
(94.08237954 19.61716595 -1.454940216e-22)
(105.2804997 17.82682438 5.368347613e-20)
(105.5551894 16.4065317 1.803114146e-19)
(107.0071951 16.23358365 -1.794264477e-19)
(105.9192533 18.65722484 -2.648940224e-19)
(107.7504913 17.7499295 2.476371876e-19)
(107.34567 18.36785528 3.693661282e-19)
(108.1639203 10.90730819 -4.297304941e-20)
(107.5317545 10.0336302 -9.964675106e-21)
(108.8082444 10.24294307 -1.363661301e-21)
(108.022146 9.528048685 -8.113008514e-20)
(106.4342344 5.936086111 -7.220344483e-20)
(107.0023803 6.338206367 9.566875592e-20)
(107.170065 5.840991364 2.286619136e-20)
(106.5740802 5.536310804 5.293963627e-20)
(104.8577647 3.518923576 -1.40589026e-20)
(105.2744081 3.705552755 -5.194891753e-22)
(105.2779602 3.379205329 2.079623526e-22)
(104.8674936 3.247329293 7.272239149e-20)
(103.7875476 2.197621956 3.456472383e-20)
(103.5016375 2.117062569 0)
(103.7509628 1.989205811 0)
(103.4765039 1.929515216 0)
(102.3948774 1.197771822 4.009971347e-21)
(102.7757907 1.268669987 -4.182952711e-20)
(102.6706737 0.9863102437 -2.309753899e-21)
(102.328057 0.975755107 -4.184816668e-21)
(101.6581846 0.7004117301 4.167002172e-21)
(101.9352988 0.7384836197 -1.47130144e-23)
(101.8397604 0.5464699869 -6.80797735e-21)
(101.5972218 0.5458530397 8.423770997e-21)
(100.9207996 0.1689158087 -1.798981819e-22)
(101.163458 0.09335261076 -2.724958428e-22)
(101.4144671 0.2911874817 7.782242141e-22)
(101.3266838 0.3796969509 6.168878278e-21)
(100.638722 0.07697940243 -3.135508942e-21)
(100.7776157 0.02345814938 -2.279005425e-22)
(100.4820758 0.02748760343 2.341863762e-21)
(100.5460163 -0.00627222065 -2.090357468e-21)
(100.4350981 -0.004533047711 3.846823133e-22)
(100.0335118 -0.1077990404 1.421811698e-23)
(100.1276656 -0.06730513235 -2.741999616e-21)
(99.93410559 -0.208878105 -5.01272475e-22)
(100.0595904 -0.2002242041 1.192058183e-21)
(99.75424075 -0.2979416478 -3.940730807e-21)
(99.92237932 -0.326342565 -2.594401548e-21)
(99.45563725 -0.3215823905 8.086241733e-21)
(99.68895444 -0.4411497155 -8.92773418e-22)
(99.46842485 -0.4103473241 8.503536032e-22)
(99.36963228 -0.2547682207 3.960415725e-21)
(99.36592493 -0.3789136534 8.216999738e-21)
(99.25632238 -0.3175578734 5.80166965e-21)
(98.90635257 -0.2246045585 -1.971515263e-21)
(99.02079828 -0.3137172864 3.062704915e-21)
(98.89129073 -0.4024632935 2.021030894e-21)
(98.73568488 -0.2976105415 6.130402771e-21)
(98.2334959 -0.1223671869 -9.445434642e-21)
(98.3892434 -0.2649554979 -3.27776617e-20)
(98.18501176 -0.3743252962 -2.949068226e-20)
(97.98220276 -0.1618647195 -2.866712103e-20)
(97.96106071 -0.2628601992 -2.30733192e-20)
(97.41841316 0.05005576939 -5.236409224e-20)
(97.51403651 -0.05782198551 3.516709667e-20)
(97.37351689 -0.1231840859 5.319835193e-20)
(97.26085067 -0.009302024305 5.447511656e-20)
(96.2058186 0.3394949972 -1.185027253e-19)
(96.34063669 0.1770030954 -4.05339934e-20)
(96.13147561 0.08354426087 -4.052850302e-20)
(95.96413118 0.2563161648 2.827439035e-22)
(94.35437653 0.809669946 4.357835065e-20)
(94.56131583 0.5523578637 -2.133629609e-20)
(94.24280919 0.4017686618 0)
(93.9762087 0.6710668012 0)
(91.2868356 1.524616009 -1.063870766e-19)
(91.66682524 1.06890915 5.704321452e-22)
(91.17369026 0.74719433 -1.004512293e-19)
(90.62561747 1.192176927 -1.007342065e-19)
(85.08774881 2.271047543 -3.205981136e-20)
(85.67775781 1.717245336 1.857595512e-21)
(85.18040652 1.111638467 3.243327869e-20)
(84.34909324 1.635849413 -2.287298502e-21)
(119.4610263 22.61591203 -6.443278759e-20)
(117.9769059 21.47375306 1.2087703e-19)
(120.2919872 20.97843537 -1.967579264e-19)
(118.7910011 20.19151902 -3.116768163e-19)
(114.7372636 10.07592038 9.926313334e-21)
(113.3282612 9.521260411 1.842762338e-19)
(114.8414485 8.692210652 1.79094009e-20)
(113.4907998 8.463710587 -1.200900216e-19)
(109.4284404 4.93666052 1.10644409e-19)
(110.2684426 5.11980656 1.03955104e-19)
(110.1338423 4.403413471 2.005260178e-19)
(109.3496994 4.35092671 3.904027667e-20)
(106.4900207 2.642870832 -4.211764442e-20)
(107.0158429 2.692465479 -1.745407902e-19)
(106.8513735 2.289549136 8.632565301e-20)
(106.3678752 2.297890158 -1.451699689e-21)
(104.763961 1.429434182 -7.332468266e-20)
(104.4294401 1.431297211 -3.624371635e-20)
(104.6332611 1.190030095 -7.279823058e-20)
(104.3262247 1.213261889 -5.186594539e-20)
(102.9065773 0.7107120544 -4.518501788e-21)
(103.3192598 0.6680708444 7.333215437e-21)
(103.0914813 0.3781843637 7.201446965e-21)
(102.7547078 0.4715770479 1.07504821e-21)
(101.9871439 0.3542745741 -1.849517481e-21)
(102.2761509 0.3172276115 1.27218919e-20)
(102.1030232 0.1277385863 4.696573961e-21)
(101.8644404 0.1941945494 9.305242813e-21)
(101.0089114 -0.04854900552 -3.142308016e-22)
(101.2251244 -0.1980956721 -9.908056417e-22)
(101.5672588 -0.04871170467 -1.005560295e-21)
(101.5222855 0.08273237862 -1.12692383e-21)
(100.6759677 -0.05806762522 1.004990241e-21)
(100.7865047 -0.1687833726 1.235091354e-21)
(100.4918542 -0.03713332578 -4.009898202e-21)
(100.5262246 -0.1143268301 1.556049092e-21)
(100.4000563 -0.03945008006 -1.979837858e-21)
(100.1553954 -0.1587350258 -1.564124806e-21)
(100.2774019 -0.09272159923 8.6613236e-22)
(100.0497937 -0.3148102509 -9.107859353e-22)
(100.2068395 -0.2780851617 -6.454178149e-22)
(99.85938418 -0.4673034221 4.669326363e-22)
(100.0662619 -0.4635383535 -2.298869783e-22)
(99.52956657 -0.5642847498 5.207547603e-22)
(99.82705784 -0.6469452815 7.842746489e-22)
(99.57342009 -0.6630196423 4.645937018e-22)
(99.40955654 -0.5128023547 1.361127582e-21)
(99.45126484 -0.6489176245 -1.265799801e-23)
(99.31080323 -0.608413302 -1.265979837e-23)
(98.90671454 -0.5910248402 -2.018618954e-21)
(99.05959593 -0.660888904 0)
(98.95349819 -0.7854186336 -9.923469786e-22)
(98.75617221 -0.7103594362 -1.050240758e-21)
(98.18075579 -0.6408194188 1.045076446e-21)
(98.38984838 -0.7557602815 -5.358128688e-21)
(98.22171868 -0.9136769301 -3.226460172e-21)
(97.94942748 -0.7424358998 -8.564069607e-21)
(97.96439342 -0.8550290559 -1.42835478e-20)
(97.33672702 -0.6716030269 -8.043507812e-20)
(97.46597251 -0.7561474329 -6.33300779e-20)
(97.3558684 -0.8576606413 -3.567800101e-20)
(97.2070265 -0.7739311606 -7.123432554e-20)
(96.06729625 -0.7108551852 -4.067604686e-20)
(96.25746645 -0.8314762951 -4.070989191e-20)
(96.09474235 -0.9722534585 4.136601762e-20)
(95.8748352 -0.8550829558 -4.065376171e-20)
(94.20805707 -0.8047250169 -4.471603089e-20)
(94.4958134 -0.9677779004 4.482290288e-20)
(94.27548224 -1.176411551 -4.467096498e-20)
(93.94686788 -1.032535596 -4.489198505e-20)
(91.51204655 -1.249291046 -1.531007225e-19)
(91.98470175 -1.41772239 7.649696584e-22)
(91.74038189 -1.758318174 5.012901733e-20)
(91.23233978 -1.657803785 -5.20990881e-20)
(88.47732592 -3.102660358 -1.103981421e-19)
(88.84745098 -3.021218551 -5.529926896e-20)
(88.87870918 -3.294358458 5.149181398e-20)
(88.57499188 -3.443710119 -1.331027709e-20)
(133.4228404 9.146471164 3.065176597e-19)
(131.7635161 9.816237034 -1.338769991e-19)
(132.410308 7.739454695 1.250752473e-19)
(131.0237202 8.468334424 2.684104267e-19)
(119.9343029 4.163563046 8.991855879e-20)
(118.3630619 4.600261574 -2.495631905e-19)
(119.0203251 2.892416522 1.619717101e-19)
(117.7569624 3.473431478 7.133433602e-20)
(111.8010652 2.1783829 -2.342221634e-19)
(112.6996535 1.947385246 4.92090643e-21)
(112.1433762 1.282201459 -2.390997113e-19)
(111.3844006 1.583602167 -1.229847542e-19)