/*--------------------------------*- C++ -*----------------------------------*\
| =========                 |                                                 |
| \\      /  F ield         | OpenFOAM: The Open Source CFD Toolbox           |
|  \\    /   O peration     | Version:  v1912                                 |
|   \\  /    A nd           | Website:  www.openfoam.com                      |
|    \\/     M anipulation  |                                                 |
\*---------------------------------------------------------------------------*/
FoamFile
{
    version     2.0;
    format      ascii;
    class       volScalarField;
    location    "0.34";
    object      omega;
}
// * * * * * * * * * * * * * * * * * * * * * * * * * * * * * * * * * * * * * //

dimensions      [0 0 -1 0 0 0 0];


internalField   nonuniform List<scalar> 
12556
(
31.93086778
31.93170883
31.93262046
31.93342471
31.96670013
31.96717992
31.9675331
31.96821908
31.96959738
31.9720464
31.97579702
31.9803581
31.98376351
31.9845445
31.98247355
31.97840394
31.97436675
31.97078997
31.96915785
31.96775376
31.93421018
31.93310164
31.93204657
31.93102123
31.79424554
31.79680158
31.79941917
31.80168555
31.83553964
31.83716486
31.83911128
31.85802358
31.86445596
31.87602906
31.89389611
31.91563246
31.9339019
31.93898587
31.92986119
31.9107893
31.89088426
31.875132
31.8488027
31.84151772
31.80490036
31.80145339
31.79829923
31.79543164
31.65933235
31.66379579
31.66829074
31.67178757
31.70604792
31.7091724
31.71369341
31.73664223
31.75240798
31.7802481
31.82267949
31.87114837
31.91172226
31.92105052
31.90031591
31.8594306
31.81432858
31.7779036
31.73613339
31.72013933
31.67866429
31.67279644
31.66735825
31.66244847
31.52585793
31.53178868
31.53772803
31.54251338
31.5776864
31.58322657
31.59272978
31.62418376
31.65747579
31.71837346
31.80871585
31.91257235
31.98388904
31.99963157
31.94490397
31.86361846
31.77658551
31.70532799
31.63816671
31.60754994
31.55723177
31.54726456
31.53915553
31.53232698
31.39458903
31.40215377
31.40964646
31.41573053
31.45178264
31.46062811
31.47742872
31.52282662
31.59142395
31.71492054
31.92130333
32.19749795
32.37304232
32.37469372
32.19054505
31.98640042
31.80966358
31.67414942
31.56375568
31.50700146
31.44070509
31.42523111
31.4136072
31.40426719
31.26445972
31.27328404
31.28212848
31.28993556
31.32856236
31.34298569
31.37269361
31.43973951
31.56015993
31.81475208
32.33680028
33.28827449
34.03168476
33.78869715
32.96288383
32.36909111
31.973367
31.70289882
31.51764346
31.42165164
31.33120572
31.30570601
31.2895308
31.27755955
31.13637182
31.14684626
31.15749083
31.16737371
31.20816175
31.2301469
31.27815818
31.37747962
31.57623789
32.07805705
33.3752596
37.67030463
43.58415585
40.56000432
35.14218345
33.25050197
32.34259097
31.82349891
31.50427242
31.35425627
31.22827818
31.18951396
31.16704083
31.15186446
31.00995842
31.02169365
31.03401576
31.04651043
31.09162565
31.12324495
31.19440385
31.33069338
31.6368108
32.47865377
35.06637568
48.34052855
63.77571187
40.32129852
34.88879892
32.97894897
32.05603836
31.52428801
31.30263055
31.1324621
31.07604683
31.04557665
31.02678509
30.88635617
30.89998207
30.91481339
30.93078385
30.97999169
31.02316895
31.12077094
31.29498823
31.72506622
32.8977828
36.48047387
56.89332836
115.6231225
48.18036729
37.22526037
33.85818614
32.38625942
31.58320154
31.26451011
31.04420819
30.96715868
30.92676613
30.90370357
30.76531672
30.78043118
30.79758505
30.81743379
30.8737125
30.92970284
31.05516549
31.26761686
31.82077268
33.26051467
37.46520201
64.67125886
144.984963
55.25224831
39.70198862
34.85379387
32.77458169
31.66737754
31.2373036
30.96312206
30.86311321
30.81164307
30.78395484
30.64886075
30.66603844
30.68628845
30.7113588
30.77240633
30.84255509
30.99578962
31.24844189
31.92211036
33.59799246
38.45469205
73.58386384
146.5408961
59.57573253
41.80390459
35.79160951
33.16297949
31.75912995
31.21854043
30.88935314
30.76658569
30.70308047
30.67006767
30.53523925
30.55412044
30.57711934
30.60770393
30.67569838
30.7610268
30.94108664
31.2375689
32.03057712
33.94763278
39.6969808
85.4933517
136.9219255
61.43373719
43.27759042
36.54632962
33.49607882
31.84156457
31.20381761
30.82202934
30.67628329
30.60111645
30.5627705
30.42717538
30.4483269
30.47508423
30.51205762
30.5828959
30.68422801
30.88996089
31.23411574
32.14689847
34.32883802
41.33255089
96.84648255
604.1716163
119.0876058
61.77076837
44.12998352
37.08444373
33.74175804
31.90220606
31.1873726
30.7596326
30.59373636
30.50693806
30.46305995
30.32187764
30.34506285
30.37544536
30.41806666
30.4972891
30.61964458
30.85746999
31.25078939
32.31089559
34.86425429
43.94870443
150.1543331
382.017701
111.5632545
61.48811162
44.61836146
37.39235764
33.88536249
31.93726932
31.16511435
30.69734174
30.51525428
30.41798351
30.36908246
30.22130649
30.24659334
30.28047963
30.32808135
30.41273653
30.55098139
30.81204799
31.24839526
32.40108675
35.24082567
46.87019019
542.3764619
274.0714723
104.6203813
60.77120588
44.72388135
37.52908413
33.94241579
31.93896114
31.13483257
30.63615997
30.44081054
30.33359029
30.28005351
30.12168687
30.14898556
30.18638967
30.23953253
30.3306554
30.48307777
30.76644444
31.23866671
32.45272297
35.5033826
49.64500777
771.6868238
244.0646174
101.3528008
60.53049357
44.74557031
37.50883879
33.92483365
31.91734835
31.09396099
30.57049645
30.36463143
30.2500916
30.19244437
30.02567774
30.05506652
30.09572348
30.15341675
30.2497874
30.4147299
30.71950339
31.22763774
32.48458327
35.66749734
51.01806796
682.3619205
239.2782555
101.0889099
60.61604026
44.68936269
37.40873564
33.87012505
31.87241887
31.04291038
30.50226207
30.28884617
30.16715049
30.10574868
29.92839562
29.95969669
30.00361793
30.0665282
30.16922896
30.34508305
30.66991763
31.21890556
32.53167569
35.84795324
52.04818828
563.7225689
240.8154985
101.9081745
60.50818065
44.44118792
37.25339753
33.78839662
31.80857258
30.97830632
30.4260137
30.20685614
30.08079321
30.01627559
29.83391613
29.86709796
29.9139761
29.98092053
30.08816158
30.27367521
30.61747464
31.2055917
32.61078212
36.20583896
54.44521734
507.8348166
234.2223675
101.0839454
59.77710811
44.0712653
37.09048562
33.69028405
31.7325287
30.90417647
30.34505967
30.12214512
29.99251255
29.92591612
29.73618997
29.77093406
29.82078164
29.8927541
30.00613674
30.20040686
30.56249334
31.18853719
32.69077355
36.70645088
59.56624864
514.8663452
217.6565529
98.37053859
59.00180459
43.74279168
36.93030726
33.58397261
31.64787738
30.82212496
30.25703111
30.03075448
29.89834614
29.83029818
29.64144444
29.67756479
29.72990382
29.80542912
29.92268972
30.12532311
30.50543818
31.16888047
32.77369829
37.26739788
65.37301349
507.6597237
203.2817272
95.94799598
58.44783577
43.46397275
36.77806409
33.474547
31.55708758
30.73364737
30.16551163
29.93733978
29.80290175
29.73382241
29.54186055
29.57895855
29.63377069
29.71410919
29.83767119
30.04851091
30.44682032
31.14792774
32.86279859
37.93069492
70.75158399
484.018799
191.4208352
93.78058881
58.01390083
43.24705465
36.6381283
33.36535141
31.46219081
30.640122
30.06747227
29.83693207
29.70083833
29.63120858
29.44659051
29.48443049
29.54107067
29.62419918
29.75086798
29.97008352
30.38708689
31.12685319
32.96238621
38.79001107
75.50399737
454.2613079
181.3893722
91.82251648
57.63345825
43.08980919
36.5150927
33.25905859
31.36500886
30.54278391
29.9681836
29.73666611
29.59943915
29.52949334
29.34480796
29.38306722
29.44165411
29.52931179
29.66254594
29.89026586
30.32676393
31.10723253
33.08140079
39.87841847
79.77713913
423.6933812
172.7545672
90.04360221
57.28174392
42.9745108
36.41099201
33.15787314
31.26713088
30.44282268
29.86298735
29.62919344
29.49084232
29.4208486
29.24974275
29.28824978
29.34808633
29.43768099
29.57281085
29.80946556
30.26661546
31.09112464
33.2337965
41.09626528
83.63961058
395.2289286
165.1963532
88.41139199
56.94906172
42.88340412
36.32406344
33.06298661
31.16971564
30.34118724
29.75936504
29.52496179
29.38590425
29.31594191
29.14576389
29.18433819
29.2457978
29.3399194
29.48229614
29.72819744
30.20754036
31.08098195
33.43241274
42.33835147
87.11440668
370.2060558
158.4687091
86.89536946
56.62990926
42.80518982
36.25059978
32.97443444
31.07343411
30.23868845
29.64952367
29.41231965
29.27226275
29.20244255
29.05219199
29.0907376
29.15308572
29.24842008
29.39112292
29.6469997
30.1504113
31.07920342
33.68143101
43.555673
90.22050603
347.8179992
152.4039991
85.47377615
56.32080605
42.73356508
36.18688013
32.89158586
30.97862787
30.13583816
29.54464676
29.30700594
29.16638783
29.09670581
28.94590326
28.98435502
29.04820061
29.14842521
29.30005585
29.56634812
30.09598539
31.08769454
33.97548051
44.73195071
92.97418391
327.5041557
146.8910322
84.13177041
56.01912391
42.6648284
36.12984684
32.81355971
30.88540925
30.03313944
29.43150305
29.19017996
29.04847617
28.97894221
28.85547447
28.89378479
28.95833917
29.05917317
29.2089398
29.48665582
30.0449496
31.1087067
34.30442095
45.86163226
95.39092388
308.9082328
141.8455204
82.85749559
55.72241964
42.59650408
36.07714473
32.73946417
30.7937733
29.93075222
29.32803254
29.08648996
28.94422335
28.87479873
28.74622909
28.78440944
28.85045207
28.95678524
29.11867898
29.40828357
29.99800526
31.14343941
34.65801751
46.94218111
97.4970428
291.7157127
137.2016732
81.63967389
55.42798062
42.52670308
36.02697213
32.66848235
30.7036471
29.82904375
29.2115155
28.9652363
28.82170632
28.75233914
28.66096407
28.69899772
28.76571935
28.87223249
29.02872312
29.3315576
29.95581289
31.19240881
35.02818793
47.9748835
99.33768411
275.8179692
132.902945
80.46798893
55.13326051
42.45399666
35.97796979
32.5999182
30.61494585
29.7279192
29.11232597
28.86612127
28.72194279
28.65259591
28.547291
28.58523732
28.65349533
28.76609949
28.94033538
29.25681013
29.91901317
31.25556308
35.40927512
48.96456753
100.966513
261.1011874
128.9014746
79.33411549
54.83642405
42.37740967
35.92912307
32.53318197
30.52759212
29.62781555
28.99067725
28.73877017
28.59315354
28.52373368
28.46984408
28.50770507
28.57674067
28.68959914
28.85245106
29.18439046
29.88821325
31.3323039
35.79732452
49.91415244
102.3904525
247.4401203
125.1595824
78.23233715
54.53644222
42.29633419
35.87965957
32.46774355
30.44155778
29.52844523
28.89987742
28.64807233
28.50166496
28.43217052
28.34923319
28.387087
28.45773977
28.57658312
28.76717888
29.11477121
29.86379494
31.42168744
36.18952505
50.82623994
103.6284628
234.7878726
121.6510434
77.15992244
54.23297964
42.21038561
35.82896617
32.40318333
30.35697848
29.43070841
28.76873897
28.51113109
28.363139
28.29343052
28.28302043
28.32090491
28.39248187
28.51318251
28.68300734
29.04864901
29.84615147
31.52264494
36.58376018
51.70286383
104.7044142
223.1085489
118.3607541
76.11652843
53.9259769
42.11918752
35.77646849
32.33905683
30.27437256
29.33457906
28.69313125
28.43407626
28.28516236
28.21528815
28.12998261
28.16803463
28.24193382
28.36994357
28.60425863
28.9873158
29.83545763
31.63336344
36.97549994
52.53801987
105.6292991
212.3539874
115.2864066
75.10904418
53.61773173
42.02297235
35.72186684
32.27513154
30.19519353
29.24291535
28.52405026
28.25814511
28.10699422
28.03667874
56.22480795
134.3817892
70.96514124
63.66655952
172.6142838
139.4813745
72.33115805
172.8593898
174.4022606
84.04734097
158.0484116
171.1377892
95.67752724
736.3178016
630.9550945
143.4112473
155.8478821
127.7230234
471.0004507
722.1560526
398.0133707
140.2772233
141.9773056
46.63502583
42.62082305
65.65985403
40.49971122
357.1549212
133.7112989
109.7155749
51.79558674
43.25642935
37.23901004
54.86611745
50.35784236
1163.895713
810.8355742
143.1742135
62.31328468
54.72622663
38.2161134
61.31169018
55.6668343
67.77806826
200.0537435
174.1959615
712.1099066
943.3946488
147.3293679
68.36550389
64.30032187
39.42152841
69.15772139
62.15213652
77.65598907
310.1973274
239.1074607
425.7743952
549.6274198
40.97309193
79.99368404
70.21757361
88.12995365
504.4721499
392.1846518
1605.693267
283.0733356
327.9006324
43.46157162
103.132769
81.67728122
106.2427609
1169.092102
747.3444663
163.1678534
362.7082144
463.9689231
128.5775029
158.9423628
83.68909945
123.86125
787.6180782
374.5957235
106.1151492
308.1579095
565.2989409
170.9782517
149.6777154
60.28792905
199.1567368
218.6563039
164.4152818
195.5465073
952.0833674
1166.715491
158.3475575
833.697313
749.7711777
583.9392471
829.5790249
156.0662487
235.361646
204.2932819
68.84308393
266.9041631
316.1804442
221.0567385
263.3504639
572.0786886
698.2324902
175.6752156
543.1593532
437.4635003
743.4624748
560.5224594
176.0053482
387.3608475
313.9466122
79.11133226
390.4891588
502.452522
319.4399997
385.9468133
337.2618441
411.6089512
735.1933091
515.181757
88.58797843
2385.944426
714.5533646
1117.925119
508.3005552
696.4226868
2792.129427
261.7688383
278.4216991
1419.018291
8489.155322
1181.505508
107.8270621
536.8025315
1858.37557
7700.714181
1128.182094
1822.702649
550.9906231
36.19105341
49.84650027
43.93821518
52.67302533
102.6341648
74.05401567
1901.977095
337.2602659
59.44701162
147.0809991
126.610747
4593.951768
138.4834023
70.44966063
69.21662058
5042.949325
614.6201121
680.3750446
482.4597973
233.5752316
253.2852703
122.9736224
105.3504979
53.71116511
1218.009165
174.2857283
411.2258426
113.8262044
274.1923588
98.40235123
695.3301955
878.5576315
163.7467582
340.8285168
292.1275322
424.2310327
349.8069789
165.876788
1003.171737
3884.19393
640.3559185
64.27842146
53.05159021
77.47221368
118.7824233
61.9703199
65.50970822
2518.704586
253.1962027
1795.049807
263.6752351
1330.136723
228.8960731
946.035784
932.7412892
806.7165969
822.7886505
1630.210115
3764.355165
472.7672506
1940.346665
1086.23389
4252.734977
2295.065547
490.8445334
433.2246215
157.3399914
165.8590791
518.2568879
586.4845508
4454.416566
815.2080505
215.4900417
230.9721694
197.2781279
209.7324479
811.3917586
1017.95809
1216.43337
139.5575768
736.0435088
560.9825188
1224.613002
739.7411059
143.2633109
103.1657652
287.5641165
141.4206316
483.5627223
313.4046885
109.5988761
434.647674
713.3397546
558.8673301
531.4657371
203.1025384
1448.602368
203.8667914
177.6246812
1350.540232
1250.14455
1436.653751
1363.524899
181.969493
995.4954404
1003.668123
783.3229215
284.6861513
276.8484163
287.8321735
286.2987779
779.2125833
696.4359397
252.2241086
231.5788113
273.0234601
258.3780138
710.6609489
289.3364786
292.5243419
239.1110874
241.7285064
603.1220831
4419.282941
613.5814267
424.7745074
432.263817
351.6018384
356.1759885
1028.28693
763.9435224
375.5134883
928.0536114
1515.18681
575.0620234
181.9925385
193.046403
168.9155288
178.5712236
565.1506014
1095.523847
767.5909928
782.1750364
550.9777133
556.3000589
5287.521532
854.6118913
447.9305972
497.9852892
237.7922513
252.0723189
1485.265519
2999.278101
1172.156037
2025.37878
1173.994021
6066.378142
2299.296104
5150.776778
1170.159366
611.7234876
3472.453703
1470.688999
2208.545375
1550.625119
2099.786139
46.10357698
117.0063444
106.8382835
172.6155804
4152.478889
7671.675559
286.1360897
128.840773
137.5671625
697.5497508
2452.05241
3586.23812
396.9819301
432.3589519
804.6813535
215.7589426
227.1940949
470.2045282
117.5516999
85.32437795
160.7124809
278.3958148
106.2305463
121.4395497
1093.327909
2505.626112
2627.722785
871.0361306
753.8710733
2054.944204
1524.09155
3381.270435
3377.867732
906.6154779
281.1375802
123.3998996
128.7687356
116.781096
121.6896938
275.053893
147.4036819
154.8221039
427.9657779
1071.786538
409.0901279
431.1658033
6404.164808
2969.313101
432.5190504
683.2393776
2259.251194
2491.714654
404.0851353
187.8081067
159.1451142
223.2820097
197.5791635
421.1206162
972.7739465
3290.858477
3380.659275
1117.623999
221.2053629
110.7027027
115.22947
684.3421824
667.7872854
305.6813038
1445.353436
1337.446242
662.3528061
495.200831
264.2150368
272.6699117
675.6913817
284.2249876
287.539693
275.5964295
282.2477514
665.0478416
346.3258693
138.5652853
145.1246067
130.6350248
136.4975983
341.4686432
404.1377632
1035.223282
1022.683009
1688.994818
1635.579337
478.8953186
331.8618438
726.7371539
687.1497943
1017.148069
1007.541782
372.9950669
364.4421133
737.5948003
598.1770983
5557.223504
1608.478149
741.38769
935.7321641
526.0013634
1726.863616
1697.231642
1739.690111
604.7095974
4337.432169
8898.656367
325.3470585
385.0576387
439.6552376
460.246714
1196.463936
1343.280127
886.3400027
498.6388434
1884.52688
7610.849687
1262.671066
1111.67031
16146.12313
1142.172017
1729.505868
1123.9504
1319.887478
1011.345551
4544.647926
4623.74227
1067.663377
1383.090229
5253.353804
1298.782737
1231.856894
264.4770555
933.7516161
381.817047
931.9109603
287.3931319
3508.357134
2321.085089
780.3829645
4238.869184
4984.228656
4059.30595
2666.63719
855.8033452
4239.666658
5419.788824
2626.1722
4003.722472
5782.677792
1491.13048
2267.908294
1060.443284
1332.269876
5180.940901
2584.108809
777.1117054
493.7068479
1244.452861
851.7655946
448.5502043
290.3580266
758.5792885
2773.764076
3521.27734
1041.341043
885.8138941
2657.306027
2779.275405
2237.996681
2130.84287
770.0709782
3766.904841
3671.39323
2690.916712
3678.998765
3626.105171
885.1301129
3507.651286
2299.85486
2418.534592
2760.561861
1470.863624
699.3954165
752.7233351
3095.1739
871.678297
981.8247742
774.4296655
840.1859078
2883.61481
3080.47073
839.8902
986.4735712
378.062278
401.3721599
970.3478057
778.7210842
355.3860259
372.1676523
1138.153062
1157.487922
712.2343465
239.4868219
264.0637237
212.4624796
232.5383841
703.3407694
802.5535561
304.8508272
338.5239894
272.351338
296.0858137
807.1958114
418.3029736
189.3814089
206.7303072
617.1220228
650.8401463
1636.89356
1714.907661
648.4557203
2391.70661
2408.147722
3015.034981
1660.582541
1381.153092
2331.350174
1644.680511
454.6277522
1177.55354
1563.575055
1507.072081
462.5121625
529.9794742
433.9705565
450.6981273
1461.739367
586.750849
601.4100318
552.6996908
581.5675648
1313.547718
372.0938483
387.9047491
347.4463519
366.5958098
1298.78295
1406.119786
413.4674639
428.3023856
393.110632
408.3703869
1398.941124
3137.363472
3234.199881
978.8863815
1076.673243
3205.464383
3108.130663
951.7091618
959.8416261
919.748237
949.061986
977.7294201
994.2638847
962.6640408
974.186907
624.3765274
638.186968
606.0153891
619.5815675
686.0177819
872.2265818
644.7532241
660.6939973
1270.682525
1476.131419
1020.520901
1184.801878
4659.772275
2309.707707
2510.354152
1572.704532
2211.255729
1052.476979
1042.595294
409.0820745
1715.287289
1721.37853
1675.741828
1703.689368
1773.362193
466.853052
1595.643822
1112.345483
970.5475319
749.4988726
336.4176323
1051.010815
1560.362293
995.5781466
1061.869355
1632.061582
1661.165733
1583.162154
1619.747974
368.7808342
1004.380213
991.3171181
5054.059772
1096.344781
4894.540839
4162.435035
4875.699325
1171.027327
5804.808218
1430.539789
5479.739961
4621.658957
749.4919305
842.1810593
1766.86056
1732.832215
531.5123825
586.9175661
1841.50456
1770.40966
5240.659133
1244.850381
474.7092281
526.3517784
5527.172276
6327.380865
1974.141426
6904.558316
4842.477602
1518.530238
1144.48892
6063.559985
3227.041911
6667.503267
3705.016443
1665.203397
59.6978494
40.88236374
35.92105243
5105.125397
5080.657831
130.1553967
70.36000411
70.59038255
5322.891144
821.5581388
2337.31545
1552.732722
285.1786164
241.4696951
150.3634928
238.8036863
176.2528657
336.2699673
1152.985173
238.3911001
259.711765
50.40238777
58.21585057
103.9266924
312.7561922
568.7817635
818.6370225
188.1639395
99.81096839
103.715175
94.91848646
98.55603859
184.5208706
724.5606336
802.9527139
2616.557348
571.8029382
505.1007088
306.8449186
335.3480073
350.405013
772.7077778
887.4940707
1131.385186
430.7313679
105.0641484
109.2597542
216.9600178
276.6553706
625.3433725
596.0214304
572.3766083
502.3632877
253.1207024
647.8734842
315.1039599
330.42817
4019.753962
3729.703331
2085.345158
1757.237736
1733.013649
1092.357347
3296.794841
5248.475075
4629.489142
1082.595859
641.4179656
706.3009185
1861.389674
1134.810065
1795.539211
1781.229845
1822.344077
2003.772436
4422.180211
3022.574406
3440.791629
4974.508134
1274.225585
1033.618508
621.3223268
1252.183096
148.926985
119.4781256
198.8774255
754.9830428
1972.556872
1405.194744
5596.303126
5960.15849
6079.074347
4928.052176
5760.518675
82.67625209
102.3138314
228.6209751
2069.971391
1362.584696
1058.81811
2698.353106
2131.827862
1781.612018
3354.447429
3038.07134
4935.765416
4643.691356
3234.254194
637.0572214
683.6246541
1357.039916
4414.85486
2215.399424
2478.318245
3815.962054
2138.401008
2538.677092
1064.682492
1437.347666
1194.316122
726.7860735
485.8403995
494.0190436
1182.665649
707.0919626
749.9532445
499.9292463
512.357099
757.4657912
165.9977613
184.4723197
391.1122011
498.1477
900.9907635
636.360015
1100.293601
1148.423978
714.1040434
1834.595341
1305.580164
1362.707833
868.9277833
872.3302068
1455.123207
1487.509938
1504.080788
1398.408415
1423.593271
1336.041962
803.1774483
809.2551232
769.0185804
777.030786
1268.208761
1427.503105
854.4155601
859.8922066
815.6923242
822.1260684
1375.68975
644.4701554
630.5440813
279.8343075
302.4631612
663.248697
648.9591046
468.0881761
454.175732
231.1580941
1552.154504
1555.248461
1511.125893
1517.391973
1943.160163
1565.015776
1566.449571
250.1616213
490.2335868
473.6736819
4271.027931
4219.043334
2602.588621
2755.929552
4390.065293
4261.374132
4447.787183
650.482037
1292.051257
1084.867331
297.3254634
310.3250209
617.5511085
545.2255501
283.1983588
293.680512
1120.007833
1119.646616
763.8932229
785.0849726
1129.303741
1133.776397
5236.162244
1565.812464
1015.6569
1002.14768
12339.12229
2467.613396
1379.553728
4276.179243
3379.710751
1873.970948
1849.450727
1157.013719
5846.016007
6372.437233
6069.835661
4700.519416
1234.337292
1924.598736
1861.916306
2350.165013
865.0420934
997.3565034
5012.580055
4927.421418
3720.090206
3429.634829
1885.688956
939.1438437
942.499732
1074.13228
2876.057636
4999.82836
4216.152016
5052.06065
4823.756749
3313.53713
160.8756846
212.909709
617.9919351
2725.939649
2654.501037
2810.349653
2782.660472
2564.071157
1696.681772
1678.972823
1717.319962
1700.982191
2573.011198
3430.475381
1942.756665
1954.1989
1871.789146
1923.649098
3491.115528
2359.484317
1537.176987
1391.285235
1665.210233
1620.139375
2422.298923
3285.03856
1977.495216
1987.957348
1965.663442
1970.464388
3328.703505
2893.945205
2834.183685
2961.005877
2847.384077
1032.977699
704.9546968
709.1173169
1672.532318
1048.732178
1053.578552
1018.827933
1041.397795
1660.076263
5187.159103
5417.647488
4662.522987
5269.99014
1750.476368
1765.730415
1718.824255
1735.368427
2232.741502
1033.809839
1683.736235
1616.169084
1715.495118
1061.166707
1065.551134
1055.83321
1059.104295
1708.205878
1651.246331
1696.180205
1147.757235
1585.185409
2202.212447
5597.663755
5187.49133
3808.290479
5472.183998
880.5674153
1258.499061
12830.45195
1197.372786
814.9978157
819.491278
1886.393399
7218.088798
7456.561479
9162.174975
5603.296523
5110.324254
1812.806017
1800.269326
1136.187648
1781.781701
1712.489287
2445.141243
1692.271357
2226.321723
1670.904019
662.3518509
2396.23692
1662.138031
4595.630713
4805.455051
5196.921166
3763.058169
4395.905694
1252.662712
1598.657737
770.4116003
404.0463273
558.9600241
900.0064838
1013.52812
586.6610695
871.6798112
1160.850307
4836.97207
5126.21668
4752.954198
4886.939565
5728.875678
5667.27267
5477.580892
3107.867567
4782.737783
4301.993995
5455.333666
5667.217223
3547.27936
3906.048925
4376.009664
5715.57172
4551.264311
3048.225897
3413.353121
1952.168968
1410.657288
1978.719738
1061.523325
1525.351269
2033.80246
2227.142609
2049.733432
2894.532109
1855.992869
1757.193729
2509.014691
1835.213337
2717.592525
2700.280071
1738.680674
1721.556425
1764.951591
1739.580634
2716.799483
2204.006586
1332.833617
1352.43639
3720.058949
3704.175345
3157.171007
4140.542511
3986.854284
3813.818925
3668.943134
3839.327851
2888.941595
1575.740072
1752.077515
1384.768958
1449.830868
2464.493608
4689.17483
3888.393581
2031.017773
5036.224123
4796.950065
4780.611265
2915.249564
4661.236695
4504.248959
1689.999364
1897.423962
3669.877189
1107.707749
1183.459242
562.1420248
635.4030327
1133.835431
757.9029877
517.6752214
542.1278233
1016.83676
976.5368844
577.4819463
969.3572064
1298.558737
657.6719234
1083.77566
1061.263935
1640.009446
1138.921823
1119.039992
1253.84217
1212.7638
1732.862677
2521.372698
2375.846734
1551.670191
2271.385863
2381.571698
2133.315486
2247.245141
1522.257149
2279.045128
2249.23963
2854.808912
2139.248459
937.788276
930.3194581
1424.810414
1469.43518
886.6325605
883.9077216
1463.885072
1478.268328
1438.295342
1452.85151
792.7515571
798.3301339
1328.620056
1283.273185
782.346388
787.4593636
840.9930513
846.765115
1415.036166
1388.951484
828.9205842
834.9664901
3195.033808
2012.062856
2021.212336
1992.575397
2000.77114
3193.954667
3099.950021
2208.602731
2535.117097
2042.726864
2090.054609
3108.662159
954.5883591
1554.469552
1542.601006
1570.961781
1563.269883
957.0785424
938.7737061
1503.479437
1484.454375
1531.66411
1518.577111
945.4725912
983.7870509
1623.061262
1611.619407
1640.091391
1629.039687
986.7939506
966.0164309
1586.14077
1579.339803
1604.592242
1594.022531
969.3154994
1538.742675
1543.557062
628.8331297
927.5094236
924.0659084
935.7751172
932.9481427
634.127325
1525.627975
1531.241138
1615.904691
1527.009935
708.0394604
998.2396644
1008.159331
1446.820881
1390.335123
789.1938843
647.6259275
944.5237475
942.9232315
953.6891942
957.292458
658.6695814
1579.528914
1571.889833
4249.775345
4106.225091
4476.308466
2959.7179
3511.991381
2371.738989
4001.897417
4058.004826
3983.923407
3996.900522
2427.895218
1747.349922
3366.699838
2834.046621
3938.338098
4080.255662
2010.703522
1056.825068
731.3511999
733.4126579
716.3720261
719.2615862
1043.465726
1715.760121
1731.078473
1682.181734
1700.736447
1672.401937
2133.494635
1526.4905
872.6722683
965.8366368
761.3364047
785.2200292
1100.761947
1459.593844
2038.119399
1600.589986
1521.67533
1008.781099
1656.184239
1641.086811
1695.7231
1648.093922
1004.871235
1640.423548
1653.573165
1596.803658
1609.927168
4697.929875
2930.135409
3139.899939
2144.380452
2596.637328
4794.187527
4794.980911
4625.729187
3450.091391
4009.818042
5138.629956
5274.163494
3788.416086
4033.435257
2874.640353
3354.662013
5468.9966
1799.796218
1800.833086
1781.658289
1785.156945
1178.40014
1190.90597
816.4894724
1866.123538
1763.181233
1819.999658
1810.047735
1750.652944
1076.146612
1084.871439
1067.833119
1074.061383
1746.467518
1791.02214
1099.840233
1160.480457
1086.762895
1102.797528
1794.406259
5024.372689
851.149524
857.8472015
1249.945416
5349.942528
8377.476468
8746.499654
8078.189649
8154.069438
5980.360284
1922.167039
5938.400118
4117.96219
4515.495601
1154.140155
1839.660051
1821.620083
6024.91662
6578.543624
6318.110325
5106.027611
5585.531222
6958.974504
6600.576404
4121.853706
6279.341857
5364.712728
2285.24595
1832.971647
1222.652879
31.76634057
31.77529517
31.8622289
31.7790952
31.79545052
31.87216797
31.80183446
31.82737369
31.8882929
31.83642047
31.86848887
31.9094464
31.87752342
31.9041095
31.92969617
31.91054512
31.91945027
31.93901348
31.91945505
31.90788393
31.93392421
31.90213195
31.87742197
31.91650939
31.86848204
31.83916537
31.89617238
31.83069581
31.80649938
31.87891183
31.65135014
31.67045505
31.74765951
31.67905858
31.71440583
31.77227723
31.72936337
31.78311703
31.81133379
31.80477286
31.86826624
31.85946197
31.8880616
31.93877276
31.90473635
31.95234585
31.96609042
31.92127691
31.95968218
31.93697569
31.90807013
31.92282572
31.87309966
31.86939708
31.85563749
31.79846384
31.82468114
31.78137389
31.73394642
31.78522956
31.54728492
31.58648817
31.64707508
31.60463834
31.67683666
31.70029142
31.70882111
31.82613458
31.78421723
31.87369467
32.03471783
31.88498358
32.07141305
32.1885267
31.97621953
32.22488119
32.24685849
31.99752041
32.20893958
32.14143822
31.96016742
32.10065163
31.98352624
31.88444157
31.94270188
31.82661524
31.7990322
31.7917139
31.70305569
31.72112667
31.45849844
31.53095086
31.56956106
31.56356412
31.70747657
31.67807433
31.77632855
32.06521133
31.86138843
32.19046878
32.68933895
32.11086159
32.80800475
33.25297646
32.36177564
33.38690715
33.35212943
32.36854383
33.15807098
32.82795693
32.23267428
32.68765368
32.35080495
32.03654261
32.24914573
31.98924388
31.85054967
31.91632798
31.73927703
31.70484387
31.39126715
31.50941009
31.52239512
31.56792693
31.85277516
31.73147667
31.99657886
32.68217295
32.17299309
33.03667221
34.9362905
32.94816581
35.70018955
40.79284074
33.99608981
40.8249471
38.8236618
33.85369696
37.18030636
34.94883248
33.12842689
34.38216918
33.25621104
32.49609801
32.98742144
32.38049808
32.05832886
32.22771954
31.87570887
31.76163003
31.34155719
31.5219309
31.51000794
31.62016795
32.1110541
31.90675524
32.37432976
33.7776189
32.91635212
34.62943199
42.72312703
35.78291513
40.38228267
46.15074965
39.18776075
56.82522959
55.15535221
43.29998495
45.5922361
40.72212103
38.52922139
38.66929939
35.11220866
33.58986711
34.4386912
33.09330655
32.52202856
32.79160046
32.14365964
31.92847546
31.30306996
31.55930091
31.52808879
31.70191704
32.4133296
32.18324663
32.79805959
34.89320411
34.08243448
35.48627356
37.13259959
36.53445582
49.96074694
56.37343545
54.09122056
83.23210197
60.90754934
51.64022995
46.13894844
38.02025889
35.71527393
36.66378767
34.15408985
33.32530042
33.62805179
32.54349564
32.23133394
31.27376613
31.61099822
31.57143765
31.79621253
32.69646794
32.48714098
33.1739454
35.7022662
35.11697376
36.75075738
38.89558861
38.53248518
57.7092424
68.08730513
66.84397996
130.6405566
83.16740126
75.1255137
53.68978066
41.25983771
38.78156825
39.1867503
35.3919447
34.43877184
34.61062067
33.02854173
32.65804431
31.2523842
31.67071941
31.62539622
31.89554892
32.96005709
32.76347191
33.51373635
36.41207471
35.87555609
37.71366851
40.25964738
39.89487073
65.68896287
85.80389145
83.00528175
147.9420053
95.70785184
92.33404131
58.71209641
43.97258699
41.94584282
41.38464521
36.58463087
35.68384273
35.57524436
33.52746074
33.15428278
31.23883894
31.73818026
31.6875712
32.00159058
33.22739097
33.02609066
33.85833937
37.20072712
36.58643301
38.77872777
42.01746195
41.45729686
74.88804782
103.2398515
99.56633001
143.6796333
98.20794053
98.12152972