/*--------------------------------*- C++ -*----------------------------------*\
| =========                 |                                                 |
| \\      /  F ield         | OpenFOAM: The Open Source CFD Toolbox           |
|  \\    /   O peration     | Version:  v1912                                 |
|   \\  /    A nd           | Website:  www.openfoam.com                      |
|    \\/     M anipulation  |                                                 |
\*---------------------------------------------------------------------------*/
FoamFile
{
    version     2.0;
    format      ascii;
    class       volScalarField;
    location    "1.09";
    object      nut;
}
// * * * * * * * * * * * * * * * * * * * * * * * * * * * * * * * * * * * * * //

dimensions      [0 2 -1 0 0 0 0];


internalField   nonuniform List<scalar> 
12556
(
1.155891221
1.155862791
1.155831878
1.155808177
1.156029811
1.156026051
1.156040887
1.156081313
1.156160108
1.156298112
1.156467354
1.120069466
1.019472076
1.01928535
1.118721581
1.156485764
1.156323351
1.156200177
1.156101735
1.156060892
1.155826596
1.155830712
1.155854879
1.1558799
1.155157951
1.155069752
1.154982587
1.154912667
1.155124052
1.155145662
1.155244905
1.155519224
1.1558992
1.156556351
1.15755443
1.039146195
0.9401498809
0.9297458295
0.9973036258
1.157794079
1.156864012
1.156132271
1.155584862
1.155317701
1.154976597
1.154984082
1.155047151
1.155127455
1.154382007
1.154236053
1.154093386
1.154010342
1.154239699
1.154339219
1.154591006
1.155153179
1.156106979
1.157707947
0.9415003387
0.7832276497
0.7245677696
0.7292213421
0.7915517355
0.9238232954
1.141666122
1.156595787
1.155375193
1.154742773
1.154207516
1.154164489
1.154240393
1.154364051
1.153598962
1.153396553
1.153218325
1.15313227
1.153401657
1.153657146
1.154284525
1.15532525
1.157327932
0.8683534649
0.6609921465
0.5537322421
0.4887208963
0.5010565974
0.5618000352
0.6730491725
0.8521593745
1.137798347
1.155756832
1.154480321
1.153544911
1.153399741
1.15345555
1.153615331
1.15277807
1.152529761
1.152326397
1.152294132
1.152658741
1.1531741
1.154374197
1.156268441
0.9057947791
0.6220407973
0.4429249271
0.3348325699
0.2926930032
0.3089700748
0.3732226813
0.4759849515
0.6304692902
0.8733647063
1.157056414
1.154649957
1.153101949
1.152694062
1.152680136
1.152843956
1.15197381
1.151686554
1.151485707
1.151512361
1.152051539
1.152966303
1.155060899
1.081007145
0.7095669037
0.4610807166
0.292957777
0.1874501629
0.1468268901
0.1717718461
0.2401358595
0.3391702551
0.478352626
0.6864919017
1.021255961
1.155341368
1.152841106
1.152055675
1.151911495
1.152063406
1.151141107
1.150833081
1.150663696
1.150838331
1.151646085
1.153095897
1.156366119
0.9226336498
0.5916234508
0.3650877271
0.2056225887
0.09453273781
0.05393453224
0.08582753993
0.1583377845
0.2528385069
0.3794415907
0.5597308952
0.8686904932
1.156584453
1.152786153
1.151488004
1.151140404
1.151239086
1.150389909
1.150066379
1.149955572
1.15036031
1.151373324
1.153614711
1.151526521
0.829602645
0.5374058858
0.3332654148
0.1865295372
0.0769589189
0.04968289695
0.1214890098
0.2081043414
0.3237034225
0.4871416513
0.7662987622
1.140325325
1.152986427
1.151031229
1.150399507
1.150419804
1.149672321
1.149360378
1.149350138
1.150023074
1.151338015
1.154513596
1.076532599
0.7808887875
0.5295490866
0.3559406834
0.2379709803
0.1673478973
0.0619378701
0.120023144
0.1962570719
0.3009550415
0.4503337599
0.7092641715
1.052434945
1.153414433
1.150715412
1.149738403
1.149644676
1.149117484
1.148818675
1.14892786
1.149912275
1.151625745
1.155753479
1.034048722
0.7715205695
0.5511483038
0.4027666703
0.3194156214
0.3127606643
0.08787659604
0.1375324312
0.206798695
0.3062930955
0.4484815796
0.6849298113
0.9954304935
1.154121509
1.150626939
1.149255947
1.149035127
1.14867564
1.148414694
1.148688076
1.150054902
1.152198514
1.157299771
1.014453116
0.7799410789
0.5847563468
0.4553091666
0.3931379494
0.4376578666
0.1198789979
0.1673346713
0.2342281459
0.3273452816
0.4597084
0.6869818429
0.9654115795
1.155036305
1.150786447
1.149018592
1.148647408
1.148429988
1.148214421
1.148650926
1.150393129
1.153010035
1.15893173
1.013315715
0.8029062955
0.6247092833
0.5020967624
0.4336374482
0.4369678853
0.1571456465
0.2093333855
0.2780288788
0.3706292938
0.4976308983
0.713257371
0.9652632226
1.156187312
1.151234528
1.149080822
1.148573781
1.148314837
1.148157449
1.148824593
1.151003185
1.15397152
1.160581557
1.024325329
0.843868458
0.6737522335
0.549905382
0.4626532529
0.3972003649
0.04576337713
0.2066186056
0.2718151587
0.3457923358
0.435845653
0.563057308
0.7597785493
0.9861769443
1.157436287
1.15192533
1.149431227
1.148789216
1.148389369
1.148292326
1.149165592
1.151709267
1.155268767
1.162413213
1.07859056
0.8952173816
0.7427305117
0.6181983721
0.5186040309
0.2772593254
0.09345764596
0.3073395502
0.3824202816
0.4494013801
0.5301050881
0.6480128036
0.8249440176
1.025727402
1.158730473
1.152811795
1.150034938
1.14930451
1.148531586
1.148488033
1.149556293
1.152471339
1.156464596
1.163978934
1.146416356
0.981541465
0.8437830147
0.727452766
0.6317348906
0.1058112891
0.1354915537
0.3858027095
0.5836553123
0.6071293543
0.6634259588
0.7666003817
0.9241195664
1.096242138
1.159999575
1.153784112
1.150789263
1.149972687
1.148802275
1.148810848
1.150048594
1.153283579
1.157625833
1.165324926
1.16875969
1.110217302
0.989242008
0.9051177077
0.7841348047
0.05776175318
0.1548631004
0.4120378668
0.6920239841
0.8326958447
0.8423841195
0.9192880904
1.055041214
1.169010655
1.161166256
1.154767711
1.151653167
1.150809509
1.14904735
1.1490923
1.15047147
1.154011242
1.158680042
1.166358586
1.169180795
1.15752436
1.114974252
1.005512557
0.6429112356
0.02963362558
0.1980827179
0.4552549667
0.7322097376
0.9513542105
1.078109929
1.107976732
1.167582611
1.170330682
1.16216666
1.155686286
1.152484232
1.151611784
1.149357858
1.149435264
1.150923181
1.154688946
1.159569677
1.167115449
1.169023232
1.155537246
1.102897129
0.9474692326
0.3864814334
0.03116982839
0.2535749929
0.508811389
0.771337876
0.9672378287
1.084112267
1.143171016
1.169284976
1.171303436
1.162967984
1.156492622
1.153292898
1.152411634
1.149570633
1.149665289
1.151231433
1.1551964
1.160263263
1.167516796
1.168349363
1.152748965
1.093080691
0.8867931825
0.2223913829
0.04456151475
0.2967183738
0.5477460265
0.7918896982
0.9756575369
1.088824759
1.145806056
1.170475157
1.171949573
1.163541708
1.157122273
1.153955176
1.153074438
1.149822444
1.149936953
1.151555368
1.155630294
1.160746215
1.16759393
1.167212071
1.149322436
1.082040448
0.832266542
0.1805775889
0.05811294294
0.3141088714
0.5597970946
0.8023127148
0.982804946
1.092772819
1.147870163
1.1713056
1.172338151
1.163978077
1.157666843
1.154545506
1.153662986
1.149935581
1.150062628
1.151714682
1.155880125
1.161033349
1.167383381
1.165674249
1.145396567
1.069555559
0.7665916412
0.1540870234
0.07189929359
0.3267817184
0.5701841256
0.8106119279
0.9890865365
1.09630558
1.149617528
1.171898252
1.172542882
1.164234426
1.158035416
1.154961593
1.154076896
1.150091827
1.150242692
1.151920615
1.156101183
1.161151253
1.16693852
1.163850481
1.141119557
1.055173228
0.7020937893
0.1351053282
0.08701642951
0.3384342955
0.5799166945
0.8176347488
0.9946841071
1.099617123
1.151205386
1.172343726
1.172627674
1.164431622
1.158363223
1.155328414
1.1544319
1.15008539
1.150258452
1.15195949
1.156165142
1.161140779
1.166321265
1.161849188
1.136558736
1.037473384
0.6475219747
0.1194959966
0.1025088985
0.3493715989
0.5893415002
0.8242479123
0.9997743163
1.102772845
1.152702455
1.172701378
1.172640383
1.164499662
1.158535184
1.155528033
1.154616561
1.150145297
1.150355326
1.152085393
1.156262987
1.161035552
1.165589893
1.159738339
1.13163432
1.015201559
0.6020319116
0.1072100382
0.1176727058
0.3599339559
0.5987857306
0.8309791919
1.004582595
1.105772326
1.15411256
1.172996718
1.172609638
1.164573706
1.158722986
1.155730838
1.154794383
1.150027658
1.150272898
1.152035188
1.15621818
1.160870964
1.164793019
1.15755764
1.126118257
0.9892378915
0.5632958868
0.09769709007
0.1322116142
0.3704147795
0.6085276363
0.8380798828
1.009288866
1.108590524
1.155405352
1.173231896
1.172548654
1.16453849
1.158766496
1.155778816
1.154815857
1.150013864
1.15030948
1.152116437
1.156263497
1.160667671
1.163969888
1.15530794
1.119674289
0.9614207708
0.5295362991
0.09028996921
0.1459742609
0.3811017125
0.6187676491
0.8456089849
1.013945252
1.111182082
1.1565379
1.17339836
1.172460609
1.164555301
1.158878603
1.155886195
1.154888607
1.149815123
1.150156349
1.152009207
1.156164376
1.160453843
1.163149151
1.152951979
1.112002405
0.9333029945
0.4998417875
0.08431790794
0.1589084616
0.3922235675
0.6295938166
0.8534872651
1.018492828
1.113486832
1.157468385
1.173484016
1.172344009
1.164455326
1.158839499
1.155837432
1.154806916
1.14976388
1.150167129
1.152084563
1.156216248
1.160241364
1.162347566
1.150405465
1.102889741
0.9052054511
0.47272093
0.07966749288
0.1712915874
0.4039415154
0.6409813296
0.8615481594
1.022817189
1.115445277
1.158164955
1.173477085
1.17219462
1.164443755
1.158912672
1.15589565
1.154826418
1.149528042
1.149984018
1.151960299
1.156111772
1.160055278
1.161571397
1.147558222
1.092231532
0.8769586511
0.447036459
0.07634122484
0.1834685288
0.4163172181
0.6527633641
0.8695373016
1.026766727
1.117003699
1.158608035
1.173369126
1.172007863
1.164289171
1.158813689
1.155783582
1.154680912
1.149473631
1.150002341
1.15206528
1.156221428
1.159898846
1.160818422
1.144312071
1.080093251
0.8486091385
0.4222265862
0.07383312187
0.1957936908
0.4292146815
0.664552759
0.8770877128
1.030161641
1.118118633
1.158791229
1.173157076
1.171780587
1.164253735
1.158857514
1.155810539
1.154669723
1.149251947
1.149837201
1.151968904
1.156155351
1.159792725
1.160079361
1.140597709
1.066773542
0.8206834093
0.3986984753
0.07225733763
0.2082168183
0.4421320126
0.6757351688
0.8837718444
1.032835994
1.118767404
1.158721568
1.172843322
1.171510103
1.164046355
1.158712748
1.15565653
1.154485867
1.149210218
1.149878764
1.152119613
1.156350272
1.159728082
1.159342449
1.136480265
1.052832733
0.7942655748
0.3778268946
0.07163478197
0.2202004315
0.4543025677
0.6856592883
0.8892393755
1.034690047
1.118955218
1.158416507
1.172434285
1.171198098
1.163972158
1.158711391
1.155641104
1.154434716
1.14906104
1.14978599
1.152100922
1.156362964
1.159719795
1.15859694
1.132028429
1.03892245
0.7704161098
0.3605581795
0.07183288501
0.2311114743
0.4650400735
0.6938739355
0.893317328
1.035709281
1.118712335
1.157900357
1.171938779
1.17084152
1.163732718
1.158548774
1.155474829
1.154244763
1.149017348
1.149836462
1.152281401
1.1566267
1.159750182
1.157840406
1.1274056
1.02562984
0.7498161229
0.3471756653
0.07267913081
0.2405165983
0.4739432674
0.7002096477
0.8960118415
1.035950196
1.118086588
1.15720232
1.171368385
1.170450356
1.163569352
1.158455922
1.155373837
1.154110118
1.148996992
1.149868594
1.152387675
1.156769899
1.159832971
1.157082349
1.122807218
1.01340316
0.7327944415
0.3376626195
0.07423060888
0.2482682748
0.4809135083
0.704739829
0.8974605411
1.035516168
1.117135295
1.156350305
1.170743616
1.170025577
1.163379314
1.158333883
1.155252483
1.153973153
1.149037874
1.150033708
1.152729604
1.157229492
1.159967102
1.156358381
1.118486948
1.002543254
0.7193790072
0.331541418
0.0763747982
0.254395924
0.4860612613
0.707683538
0.8978698951
1.034530405
1.115914876
1.155366925
1.170132005
1.169633309
1.163069723
1.15812868
1.155048795
1.153735079
0.1495288785
0.05538865453
0.04273016784
0.2969801175
0.08087179496
0.05847979816
0.4243721687
0.1135624902
0.08472056244
0.4430013996
0.1441162414
0.1183713633
0.4011530278
0.03472003374
0.0431142387
0.1820408128
0.1481179856
0.318844348
0.06695719343
0.03564530262
0.08849850616
0.2495229079
0.1853663814
0.07487475877
0.05430824129
0.04407243337
0.08161134721
0.02788337125
0.01851056895
0.0593187971
0.1017688994
0.102834856
0.2985886519
0.2898775194
0.172509639
0.02552303047
0.03830868904
0.08441639841
0.1181765697
0.1044162122
0.3771573117
0.4061408412
0.3048051609
0.3591469689
0.1969963962
0.2210909939
0.04520912607
0.03182668127
0.1157673314
0.1463737292
0.1243009315
0.4275714019
0.4500345856
0.4186337008
0.4615405648
0.1298423033
0.1672584144
0.0865089708
0.06250679915
0.4526325919
0.4104175907
0.4476525252
0.4274318386
0.07785570066
0.101917728
0.01520372603
0.1352669571
0.1185294534
0.5016207418
0.3879856475
0.4049879223
0.3689522341
0.03102051762
0.05069352071
0.2807600595
0.09343039245
0.06853340553
0.06197936166
0.1405942679
0.02962632835
0.05622987646
0.03934542718
0.02921838106
0.04683958567
0.03093427402
0.04944266382
0.2243340833
0.2475585596
0.244620981
0.1938266494
0.180880737
0.1578855932
0.1964195485
0.03150072103
0.02537711418
0.07011701421
0.03803479459
0.04325418715
0.05051935909
0.03824144409
0.06853997291
0.1698618377
0.1933926099
0.375354633
0.1515754779
0.1286005183
0.179247025
0.1534806588
0.05936058377
0.04635426465
0.1011586332
0.0648831413
0.08407296945
0.04370564447
0.06232883103
0.09685113419
0.1032661986
0.1282716808
0.4637322524
0.1035014427
0.07920288754
0.1272683814
0.1047911917
0.1148254497
0.09029990106
0.05165458666
0.0761448814
0.4236783556
0.01280908791
0.05381173474
0.03259408446
0.07818372822
0.05534616183
0.01229127642
0.1427068571
0.1373827566
0.01670996413
0.004770060439
0.03072976868
0.3647503671
0.05420138305
0.01928242901
0.01160208991
0.03224581982
0.0196069612
0.05197786506
0.2204397259
0.1565001999
0.08965733292
0.0954338813
0.06091274962
0.03479330873
0.01388731456
0.0081919779
0.2257666496
0.2505862479
0.1537506215
0.01029748067
0.1502059957
0.1836119623
0.1548188658
0.01248978524
0.04825769147
0.04174337517
0.06538058689
0.1603031599
0.1468997525
0.1397710022
0.06781004208
0.1064027059
0.04121408593
0.01250060593
0.02197412129
0.02120680177
0.02920205914
0.0451655102
0.04046146615
0.02952748926
0.1327522551
0.1120040727
0.131523892
0.08719753339
0.108834665
0.1296171787
0.02362427252
0.0141903455
0.04127809298
0.02149337855
0.03645443526
0.02888869479
0.01865492062
0.02846826689
0.02056855868
0.01372008076
0.02211009003
0.01762375066
0.009723497482
0.01545662246
0.02099748962
0.03280506713
0.03338412429
0.03851927365
0.03758140542
0.01549379518
0.01052203815
0.07568998
0.01314901371
0.02342059324
0.01007613583
0.01181165682
0.07215263084
0.0915631728
0.2493163179
0.2376080337
0.06200021282
0.05175951684
0.01214369128
0.04587239731
0.1861229359
0.1744873417
0.202167002
0.1908393744
0.04620516052
0.04921749548
0.04157222524
0.08972309657
0.06444107449
0.05475757078
0.0398906431
0.0639981866
0.1008966474
0.03588779559
0.02269909874
0.01428655499
0.05063905237
0.0252406697
0.03961120564
0.02445041665
0.05566575429
0.04052793607
0.03961175192
0.1915670008
0.03139104311
0.1909978483
0.2099964567
0.03493783468
0.03890613842
0.03178712712
0.03446166909
0.2065230778
0.03016473907
0.02992706175
0.04103496827
0.06832128359
0.06365017914
0.07477718053
0.07001369807
0.04128567572
0.04597434874
0.05564164543
0.05040486607
0.06197844726
0.05711320313
0.04511124431
0.1403787269
0.1388909579
0.1675474172
0.1659426757
0.05592516281
0.009950095788
0.05475948918
0.094564527
0.09282401181
0.1155346004
0.1140196073
0.02483814445
0.03566323205
0.1011969285
0.0277145797
0.01661825964
0.06744593013
0.2180394579
0.2062879069
0.2336416459
0.2219260044
0.06871757399
0.02121834627
0.04942586094
0.04843261943
0.07138650368
0.07056300212
0.008288926399
0.02905076488
0.07662811735
0.06569731732
0.1699363335
0.1616474689
0.02476401979
0.01238887251
0.01710016318
0.01430355699
0.0308375913
0.01314867512
0.01432760177
0.01378977653
0.03087423085
0.04407015782
0.01448066151
0.01484499238
0.00374994657
0.01596780169
0.01290558057
0.5935173839
0.3748300256
0.3792321427
0.254726291
0.009118136452
0.005381148364
0.1306111042
0.3176890864
0.280511408
0.005832680879
0.01201533419
0.01135291505
0.09143295341
0.08066079895
0.03107144111
0.1882150667
0.1668858589
0.06818358352
0.008990317694
0.01518605519
0.01212508452
0.008284774561
0.01201393243
0.008545863272
0.02767076421
0.01169358029
0.01103856737
0.03582837009
0.04193846379
0.01190174403
0.01643236809
0.008575602209
0.00874667958
0.03332293349
0.1432011257
0.3085521644
0.2976254233
0.3229313203
0.3121688709
0.1462745403
0.2644201203
0.2529970866
0.09279708463
0.03408780718
0.09665497468
0.09167349017
0.01267770084
0.01852540062
0.07362552991
0.04504977952
0.0132476809
0.01179364375
0.03824329386
0.04186340757
0.03731910402
0.04871600531
0.04348707179
0.04022979826
0.03081383286
0.008558264997
0.008559305012
0.02652485977
0.1799704135
0.3369271082
0.32643705
0.05983942281
0.061703585
0.1330053004
0.01744775199
0.01899260014
0.04963839972
0.07249398692
0.1015576804
0.09403034502
0.0493691583
0.08228577842
0.07667484784
0.09129268943
0.08448122909
0.05042088849
0.1159561056
0.2793043702
0.2681224192
0.2939793114
0.283006772
0.117662382
0.09975987639
0.03735640399
0.03807328637
0.02169225783
0.02252114133
0.08339493706
0.1224614084
0.05579916376
0.05944479026
0.03836999464
0.03903990422
0.1086533759
0.1048948629
0.03756653488
0.05175590816
0.009006731113
0.01516181822
0.05153671452
0.03970127266
0.07524350131
0.02108636375
0.02155228152
0.02068900056
0.06439140925
0.01250797956
0.004393681278
0.1254475335
0.1098177301
0.08998518914
0.08597389921
0.03041490922
0.01534551922
0.02380265627
0.06133769407
0.01905449962
0.01224996596
0.01757950066
0.01913484067
0.002817613421
0.03179444254
0.0206659166
0.01197559294
0.006412713869
0.01153564522
0.0102824369
0.01007403836
0.02330240128
0.0177423775
0.008098893208
0.03840070104
0.03995880336
0.01459397507
0.01084725725
0.006983667126
0.01140182838
0.01583018942
0.01110180853
0.01219109434
0.03418926346
0.01128049481
0.01118903459
0.01307535627
0.01317575538
0.02849483301
0.01328249698
0.01307984669
0.01353212445
0.01322897031
0.01327125958
0.01569373168
0.01389591488
0.01982804893
0.01682043101
0.01347454579
0.01312623229
0.02146692704
0.01782534528
0.02422177287
0.02220537967
0.01729277892
0.01538740908
0.01234678673
0.01008853608
0.007898847249
0.02933378697
0.0352242685
0.01081423269
0.01017570963
0.01120499829
0.01166903039
0.04086136042
0.009038648096
0.008888647573
0.01019134905
0.009127956304
0.008822546827
0.03432749464
0.00862191743
0.01107551252
0.01166836388
0.01093692958
0.01709465495
0.04313630868
0.03871701584
0.01043090378
0.03129993698
0.0268584265
0.03715255342
0.03303697958
0.01054177703
0.01198786123
0.03036218344
0.02545609518
0.1046671441
0.09841508493
0.03796361656
0.04833165668
0.111507669
0.1063627484
0.04456602106
0.04375770661
0.06628632634
0.07458734209
0.08996157794
0.05583067933
0.07001465631
0.06709392989
0.05925407088
0.1326838798
0.1225716051
0.09715916095
0.125884736
0.05917779078
0.03761403349
0.04113042025
0.05134087473
0.03260755086
0.03640717338
0.0186739599
0.01768920284
0.04519702533
0.01288812334
0.01282911115
0.009963439937
0.01862000704
0.02213378991
0.01322804706
0.01879514571
0.03469099663
0.02580869015
0.01956859762
0.02961589012
0.09298176449
0.08189206217
0.09889947014
0.09527135743
0.03071771147
0.07399599362
0.07192067826
0.0787237235
0.07474116037
0.03637864824
0.1137572966
0.1097681027
0.1201516144
0.1151625565
0.03694634319
0.03286410466
0.1035861559
0.1001369119
0.1084827321
0.1047789512
0.0331931666
0.008700437148
0.008593247728
0.03062072265
0.02768536598
0.008445896368
0.00872944429
0.04359531162
0.04284838613
0.04571421606
0.04385236285
0.0414650955
0.04044132223
0.04259925144
0.04173220196
0.06875424485
0.06690238866
0.07127492258
0.06939585901
0.06168465465
0.04835749071
0.06613195097
0.0641372357
0.02000236777
0.01707504505
0.02557469791
0.02157443835
0.00665524208
0.01114470289
0.01055534771
0.01595320331
0.01141218039
0.03641362863
0.03700758205
0.09847986203
0.0217414109
0.0215215999
0.02240070338
0.02192554639
0.02085028291
0.08564162173
0.02320497365
0.03426879991
0.04115423393
0.05398146421
0.1207809624
0.03769765613
0.02455133349
0.04030463217
0.03738644179
0.02317557478
0.02263465881
0.02410861246
0.02339659328
0.1099591111
0.0392652389
0.04013972128
0.007481507506
0.02316958013
0.01122081739
0.0110638364
0.01087131986
0.02160355243
0.009372435927
0.01649216135
0.01277627416
0.01320328268
0.05090249967
0.0445543288
0.02049574066
0.02097779294
0.07433586046
0.06651195062
0.01961965076
0.02043465806
0.01257946348
0.02932978005
0.08349957072
0.07546594717
0.01404618631
0.01329207839
0.01828699995
0.01266115892
0.01452025562
0.01496955184
0.03168618314
0.009673465457
0.01443518416
0.01253957949
0.01469519583
0.02150455405
0.05089372444
0.107475843
0.1380683116
0.01205589434
0.01152482035
0.1885460554
0.2374274335
0.195004476
0.007951881948
0.0302577144
0.01357509298
0.01544278548
0.1354496518
0.1420917747
0.1599649374
0.004661402309
0.007035535759
0.005219373117
0.004866275761
0.005565892141
0.004359460051
0.05411441237
0.03375553297
0.02148438178
0.02458370127
0.02294803205
0.02634953182
0.2076309448
0.3525688911
0.3537623486
0.3309316426
0.3440845744
0.2110383908
0.03643787768
0.03197582205
0.01224003357
0.0552264071
0.06571279341
0.1272469812
0.1183304059
0.1131413649
0.04880940432
0.0267547835
0.02674636994
0.03285929083
0.3504356098
0.3403610395
0.1832011235
0.1465449285
0.06709111842
0.07070040874
0.07361530336
0.08380779361
0.1591846074
0.05919838861
0.1260941221
0.1201363915
0.01246079562
0.01239915637
0.01336728074
0.02037710155
0.02067421339
0.03344311492
0.01216673256
0.0127979384
0.01261123232
0.0219802618
0.04353185886
0.0376998137
0.01922746688
0.0320433882
0.01992596614
0.0201078091
0.01964098417
0.01369140496
0.0104500924
0.01170953055
0.01164800161
0.01240351004
0.01962411849
0.02439115374
0.04818643553
0.04017495342
0.03590042261
0.03271886252
0.02410356521
0.0357694628
0.01338155727
0.017780025
0.01328728434
0.009639594692
0.009705552528
0.0135404564
0.01322512436
0.02201223659
0.01399225465
0.009768595327
0.01592806905
0.01841304947
0.01726131048
0.01223149995
0.01540101145
0.01425457702
0.01062857522
0.01091122048
0.006986135511
0.01052890675
0.01047070892
0.04922875606
0.04454394023
0.01859851279
0.01002659171
0.01185110269
0.011035646
0.01204471045
0.01291754979
0.01211609488
0.04725988884
0.03682119727
0.04226408637
0.06509888467
0.09066262927
0.08946179142
0.04140366376
0.06602922321
0.06259954848
0.08847870266
0.08694523884
0.06277761069
0.03104575775
0.03751158329
0.03409521561
0.02626198147
0.02704952275
0.02233841815
0.04603684968
0.04478975381
0.04777771271
0.02391850662
0.03418718168
0.03257623824
0.05202791321
0.05166706063
0.03113788359
0.02897349614
0.02857242878
0.03154313043
0.03085013009
0.03544362001
0.05772504514
0.05715268296
0.06108398527
0.0603743599
0.03817714094
0.03210857372
0.05318403548
0.05269310159
0.0565629595
0.05597996051
0.03402367305
0.06461098424
0.06642389665
0.1449600417
0.1344138181
0.0622646078
0.06403378931
0.0902401579
0.09317871652
0.172581076
0.02700760052
0.02686157667
0.02834086972
0.02812539352
0.02067479876
0.02660030579
0.02649223902
0.160901577
0.08590107509
0.08914309429
0.009643300112
0.009601262525
0.01084644756
0.01050859406
0.009907801013
0.009430402206
0.006545973107
0.05075767817
0.01975739887
0.02408693331
0.1337737238
0.1280806665
0.06235699395
0.07156635305
0.1405414375
0.1354658146
0.03275934744
0.03281507135
0.04977320771
0.04812139485
0.03236526744
0.03230425245
0.01211762373
0.02342849054
0.03733680436
0.03660074909
0.009231490992
0.01493143128
0.01574419828
0.01470848366
0.01448535701
0.01899579021
0.01923715901
0.03128593258
0.0133837445
0.009706439564
0.0131702237
0.01390502734
0.02929243613
0.01848785432
0.01908152301
0.0140461199
0.0263401289
0.02174053972
0.01222060678
0.01218211729
0.01147508077
0.01150866584
0.01378038553
0.006296241304
0.004090668411
0.007278545659
0.01149994315
0.01180134257
0.01167010995
0.01135059876
0.01182116345
0.01119056099
0.009816112596
0.006438459986
0.005199049707
0.01000900467
0.01031858082
0.009637103404
0.009762311452
0.01141860884
0.01744830507
0.01767153817
0.01709999993
0.01727925583
0.01129980354
0.008602813242
0.01295899419
0.01295024608
0.0133946069
0.01305943845
0.008564185132
0.01255511165
0.01966762183
0.02186833127
0.01793771499
0.01850478902
0.01216023518
0.008560587665
0.01297622336
0.0129918523
0.01292308669
0.01296434219
0.008556805353
0.009341431044
0.009500115418
0.009063683836
0.009452296908
0.03751824201
0.0564012947
0.05594798557
0.02192534439
0.03642765271
0.03617234418
0.03774771586
0.03679520247
0.02213534095
0.01295517366
0.01251143687
0.01285773629
0.01304811908
0.02058659655
0.02039229642
0.02102783766
0.02079911189
0.01608654441
0.03554607336
0.02127662265
0.02220080806
0.02125782509
0.03566893441
0.03544739237
0.03600947552
0.0358234712
0.02138511039
0.02196313013
0.0213442064
0.03201611626
0.02296462685
0.01650286819
0.008749745471
0.01244970818
0.01228029036
0.008698661785
0.04361759495
0.03048617042
0.002968689718
0.03041665846
0.04636995326
0.04603973438
0.01901902929
0.01216534164
0.008967208315
0.003359771032
0.01413842501
0.01461254846
0.01968143977
0.01985113111
0.03197773434
0.02006005096
0.01049205757
0.01109601755
0.01436520052
0.004968662321
0.009154830722
0.006887611568
0.007511679544
0.007809220794
0.01034300038
0.006785111319
0.01187296335
0.01171215601
0.01188541364
0.03991999275
0.03112299003
0.008075039383
0.01013588169
0.01125459318
0.01835337842
0.02056151646
0.01209141888
0.01494036707
0.0143022107
0.01164437597
0.007648290187
0.01155900228
0.01318703139
0.009305634554
0.01304657568
0.01319534412
0.01337510097
0.01352381658
0.01346570894
0.01331605049
0.01320148514
0.01331510267
0.01387549361
0.01375157718
0.01329318503
0.0137943744
0.01429764153
0.01421299621
0.01638922789
0.01823051606
0.01570110039
0.0247331396
0.02022601708
0.0155841248
0.01460937759
0.01588438648
0.009620597548
0.01536753507
0.01627452996
0.0110252618
0.0153151587
0.01020896155
0.01062281701
0.01675302623
0.01691317022
0.01635599105
0.01659590851
0.01046077654
0.01139809261
0.01950648672
0.01915300111
0.009020450631
0.00895008143
0.009463272129
0.006588066251
0.009098725523
0.009007068591
0.008691741118
0.00702645343
0.009478129215
0.01611427215
0.01436962647
0.01863925863
0.01766971666
0.01046208102
0.01060098739
0.01073756311
0.01280210951
0.007166434198
0.01090909645
0.01064921901
0.01085595712
0.01058491103
0.01071713156
0.01484086614
0.01326455676
0.01011334041
0.0456595618
0.04283073291
0.08046104614
0.07248398668
0.04329220964
0.06252540592
0.08617921084
0.08299890516
0.03448471403
0.03184565667
0.02953733995
0.02252699352
0.02933440554
0.04170059434
0.04254012542
0.03746533075
0.01859883644
0.02686430495
0.0272748142
0.02439689492
0.02523529748
0.01755338288
0.01208355366
0.01295336344
0.01989957594
0.01394223534
0.01330765249
0.01492854471
0.01419145843
0.02017577127
0.01363998555
0.01421106094
0.01116736298
0.01452803004
0.04779798205
0.04797662046
0.03099413807
0.03070120602
0.05074974996
0.0507387516
0.0296443689
0.02926363751
0.03039926268
0.02998577782
0.05877169224
0.05822643084
0.03583064092
0.03754457452
0.05983293168
0.05930844926
0.05431390404
0.05379432585
0.03252545576
0.03356753353
0.05538716716
0.05484533761
0.008629296324
0.01307593509
0.01311424829
0.01302872402
0.01306770071
0.008614531828
0.008732942273
0.01222435128
0.01067151859
0.01306561731
0.01286167228
0.008752324686
0.04333487141
0.02573808399
0.02600378628
0.02531743094
0.02552154396
0.04309684519
0.04462413391
0.02693639132
0.02742103959
0.0262670961
0.02657375623
0.04416113636
0.04109526628
0.0241092129
0.02434441166
0.0237445915
0.0239716304
0.0408663708
0.04232904341
0.02492631975
0.02511477958
0.02450915538
0.02473863409
0.04206145261
0.02743675101
0.02725357589
0.06814571696
0.04624059719
0.04654846169
0.04557233692
0.04584260886
0.06747125942
0.02787245961
0.02766964242
0.02536046766
0.02659959332
0.05969478217
0.0419565828
0.04166547026
0.02831811919
0.02971674271
0.05350567213
0.06566989419
0.04490135653
0.045094931
0.04421318505
0.04416758712
0.06450684791
0.02617329993
0.02621471892
0.009688367419
0.009765160059
0.009709520601
0.01031069698
0.0098846245
0.01089363051
0.009410068612
0.009454119743
0.009223274565
0.009313226205
0.01081021933
0.01428973562
0.009660053586
0.01025463606
0.009528515311
0.009431207369
0.01240295843
0.03633498589
0.05392954904
0.05363672278
0.05528469169
0.05493574656
0.03691106289
0.02169480621
0.02145437163
0.02227484909
0.02200267887
0.02192017989
0.01713299727
0.02444204075
0.04452112719
0.04003103604
0.05151163363
0.04977649269
0.03456098454
0.02663582565
0.01855765843
0.02382859142
0.02533336361
0.03964577877
0.02339116765
0.02367796479
0.02269993577
0.02344243029
0.03970956572
0.02300826988
0.02278471046
0.02383778597
0.02359202169
0.01132313402
0.01111515417
0.01100839706
0.01263340821
0.01157143716
0.01136275648
0.01094692855
0.01102415416
0.01082243225
0.01093978243
0.007373020487
0.01312025331
0.01265501319
0.01284505985
0.01267555358
0.01274633225
0.01307515866
0.01993542991
0.01989243055
0.02018867699
0.02012342587
0.03066114149
0.03062672638
0.04614234963
0.01912502287
0.02017513386
0.01965710168
0.01972658443
0.02070797582
0.03485976627
0.03449897552
0.03528554929
0.03500648881
0.02078827109
0.02016618969
0.03381517245
0.03194644437
0.03437934004
0.03378894187
0.02015048859
0.01260813414
0.04446943742
0.04392927939
0.02910889228
0.01431608179
0.01159012307
0.01130738268
0.008583744416
0.01176147861
0.01352105335
0.01884292856
0.01344369831
0.01485323698
0.01455574164
0.03140278353
0.01935347799
0.01955587703
0.01318701619
0.01283395214
0.01293431267
0.01394380169
0.01360461296
0.009168462161
0.009458570223
0.01442373071
0.01303774094
0.01373231527
0.01571719036
0.01936920415
0.02929472399
1.155202828
1.15574447
1.155785348
1.155979365
1.156911355
1.156369283
1.15728785
1.067797448
1.157261357
1.018568046
0.8778375541
1.060574222
0.8499210354
0.8075760759
0.946454009
0.7944944627
0.7790687025
0.927078816
0.7842178111
0.8290073832
0.9832056122
0.848048987
0.9518949261
1.138476098
0.9868851771
1.15803842
1.157083165
1.157813458
1.156680419
1.156287298
1.155216736
1.156384379
1.155814191
1.156905478
1.018397553