/*--------------------------------*- C++ -*----------------------------------*\
| =========                 |                                                 |
| \\      /  F ield         | OpenFOAM: The Open Source CFD Toolbox           |
|  \\    /   O peration     | Version:  v1912                                 |
|   \\  /    A nd           | Website:  www.openfoam.com                      |
|    \\/     M anipulation  |                                                 |
\*---------------------------------------------------------------------------*/
FoamFile
{
    version     2.0;
    format      ascii;
    class       volScalarField;
    location    "1.09";
    object      p;
}
// * * * * * * * * * * * * * * * * * * * * * * * * * * * * * * * * * * * * * //

dimensions      [0 2 -2 0 0 0 0];


internalField   nonuniform List<scalar> 
12556
(
974.3780944
973.3443248
970.7319241
965.2142066
957.0093251
939.4717888
910.4712245
863.901003
793.8709286
693.2611116
556.968883
385.0492929
186.003893
-22.5733039
-221.7145533
-395.0140658
-535.4202671
-642.8715479
-721.2939055
-775.7528349
-820.9729506
-841.1754304
-852.8098283
-858.165171
975.0328745
974.4210522
972.6440548
968.6956456
960.5063071
945.7099173
920.1244414
882.3801023
819.448039
726.0970436
595.0740332
422.8884633
218.6282474
1.147930639
-209.0063023
-392.2368163
-537.7168667
-647.2877717
-734.1676783
-785.0076001
-829.197823
-846.7371889
-856.9353778
-861.5913756
976.5363534
976.8603749
977.0534348
976.2896121
971.0745215
962.2039645
944.8610842
912.5993074
860.1092454
775.7035661
642.4582893
451.8375555
220.1623922
-24.78477011
-249.3900851
-438.7654905
-584.5940061
-686.9446016
-769.5208673
-811.0728054
-848.0786031
-860.0062881
-866.9605893
-869.9985289
978.1458092
979.79303
982.8539183
986.5928444
986.141598
986.0287814
981.3144224
961.4423327
927.8502363
855.2028319
718.1931422
500.8118601
204.2698008
-103.5017626
-357.6165768
-540.6971744
-671.2832862
-759.2478491
-824.3710077
-850.4987244
-874.9274842
-879.3963083
-881.4643785
-882.1537291
978.5154596
981.675608
988.0141762
997.2314287
1002.262792
1013.812097
1025.199586
1025.386598
1017.831595
972.9754538
853.453795
599.779162
186.4673039
-256.59999
-562.0809383
-728.7324855
-813.4182764
-861.023759
-895.7731917
-900.3807451
-906.1377198
-901.3374946
-897.4706114
-895.373712
976.1452594
980.812211
990.3538142
1005.113982
1017.204093
1040.891176
1070.736525
1094.690775
1127.150951
1144.502002
1102.541966
865.7342491
195.0426897
-569.2762488
-923.8790975
-1013.091688
-1009.544412
-990.4340692
-978.4103113
-954.7717236
-937.4973153
-922.3315274
-911.9381275
-906.8885505
969.6047148
975.5774991
987.8598001
1007.452335
1026.769748
1061.647327
1108.781444
1158.235933
1238.070596
1346.309582
1490.618472
1566.848655
365.7475996
-1390.797587
-1515.474538
-1382.116348
-1240.47605
-1132.32984
-1061.597733
-1005.958626
-964.5144026
-938.3988273
-921.822243
-914.0217448
957.6615681
964.5613499
978.7771141
1001.712801
1027.552389
1070.49315
1130.109528
1201.296668
1319.805003
1504.397346
1824.632187
2453.299877
-3387.342199
-2294.925539
-1765.878254
-1455.07057
-1259.289492
-1128.16269
-1044.992956
-980.0113899
-945.3990586
-924.1447338
-914.0949198
939.3963489
946.7139778
961.7811958
986.1634956
1016.678079
1063.514913
1128.799468
1212.275648
1347.100279
1544.843963
1837.722188
2216.67945
-4738.491916
-2788.002054
-2005.455751
-1587.707767
-1336.083587
-1162.515795
-1061.66015
-979.6810232
-940.1560086
-916.296845
-904.9395083
914.3331363
921.5098321
936.2417423
959.9944111
993.0687394
1039.112753
1102.698672
1187.234827
1313.680259
1483.941703
1688.016322
1878.873593
-4201.585936
-2697.215774
-1989.585254
-1582.844777
-1338.494893
-1154.471863
-1050.649719
-960.8625063
-920.929778
-896.8413747
-885.3179501
882.5086133
889.0306127
902.3352291
923.4385365
957.1516
998.1848909
1054.226505
1131.671961
1238.775224
1370.806479
1510.340872
1632.972011
-3073.036379
-2227.350564
-1764.502885
-1470.402643
-1271.139586
-1104.204935
-1011.59823
-923.6976785
-887.6973469
-865.7015085
-855.1015434
844.4320477
849.877808
860.9789776
877.6759654
910.7578869
943.3855136
987.6724434
1052.885756
1135.728623
1230.794216
1325.642104
1430.808778
-1962.092934
-1636.767928
-1434.750832
-1277.397094
-1149.697133
-1020.389065
-948.8188342
-870.8960773
-842.2313741
-824.0733208
-815.2452953
801.0351426
805.1299079
813.6174559
825.6294583
854.4205217
878.0483701
908.0292465
958.9679687
1015.739528
1074.270257
1123.097673
1199.874273
-705.4908917
-987.5997245
-1089.511742
-1095.182103
-1059.193151
-1002.165939
-916.9862744
-869.7212085
-807.5760191
-787.5635728
-774.1058452
-767.5512589
753.4512606
756.102502
761.7857843
769.4217779
792.7392907
807.1207049
822.9021943
857.8086491
889.0994786
911.4485899
908.1885399
899.3804908
294.1229903
-393.6964363
-677.8744487
-808.0815517
-854.9400744
-849.9424051
-807.5269555
-782.6754121
-739.0024692
-727.0169609
-718.4126107
-714.2894201
702.9618902
704.1061168
706.6646238
709.7141544
727.8814988
732.4498291
735.0430972
751.6705296
758.5950999
750.696417
704.7682266
573.3317048
276.5187483
-143.0726798
-427.0255592
-595.9042488
-682.3744768
-710.7310632
-700.5605622
-695.3891027
-668.3125996
-663.5796965
-659.6301623
-657.8035597
650.844644
650.610506
650.2170136
649.0141124
662.3100567
658.5895002
650.5469619
649.8038872
635.7432978
605.3726141
539.3169898
418.8328945
210.7621036
-64.27932603
-292.6288282
-452.2855696
-546.3031247
-591.23033
-603.1340606
-612.2738438
-598.760576
-600.0191599
-600.1052909
-600.23159
598.3343025
596.9580805
594.1150986
589.404912
598.1284204
587.8411068
571.6273061
558.2991603
526.0599149
479.7619987
407.5858837
302.7978659
140.9618206
-48.22660658
-222.6633101
-354.9880405
-440.6947732
-492.6503879
-517.4259829
-535.8483979
-532.6927953
-538.5210121
-541.7614144
-543.356394
546.5248667
544.2562688
539.5015997
532.1054771
536.9517456
521.8853335
500.0694286
479.9572513
436.3946893
379.977257
306.6746715
215.8356384
88.72583699
-50.93454537
-180.1766732
-282.8424066
-357.5175605
-411.2107649
-443.0863666
-467.0378531
-471.4092428
-480.4125159
-485.9440048
-488.5699662
496.2763201
493.3526934
487.1950511
477.8931449
479.7537054
461.6023823
436.5668081
412.9628605
367.8325523
309.4594209
237.5048802
160.7287651
57.04184623
-48.5473886
-145.091586
-227.5983884
-294.1696882
-345.5685093
-379.8831789
-406.3398217
-415.5241579
-426.4736186
-433.4772323
-436.8220734
448.2243456
444.8716676
437.7935521
427.2918207
427.0111908
407.1947144
380.5837029
355.9737045
312.0493949
258.0497841
193.9888586
127.5593178
44.48604424
-39.11796487
-117.4744247
-186.7959201
-245.1309259
-292.4126092
-326.534887
-353.3091175
-365.2175812
-377.1179021
-384.9128508
-388.6350794
402.8055421
399.2247733
391.6581661
380.5555268
378.8586918
358.4729103
331.6774501
307.4432652
266.1180488
217.3166355
161.5070015
104.0792822
36.11474072
-32.35279621
-97.15241704
-155.6795843
-206.3822664
-248.8412895
-281.376052
-307.1446138
-320.2958053
-332.3938924
-340.4481355
-344.3012874
360.2819004
356.635819
348.9354493
337.7254306
335.1330258
315.0156298
289.0345066
265.9435446
227.922582
184.3845635
135.6940896
86.52503178
29.57385211
-27.37117161
-81.57934114
-131.2409369
-175.1558108
-212.8336754
-242.8781531
-266.9799473
-280.3473126
-292.120342
-300.0569585
-303.8606561
320.7620083
317.1743538
309.6071094
298.6626196
295.597823
276.3140485
251.8834142
230.2635169
195.8183364
157.2614235
114.8598301
72.58863402
24.41761856
-23.48185961
-69.22920336
-111.5500396
-149.5283663
-182.6997681
-209.8908605
-231.9703755
-244.880301
-255.994524
-263.564092
-267.1964108
284.2322632
280.7936899
273.5500815
263.1330054
259.9169168
241.8339458
219.2751656
199.4219197
168.5557937
134.5826181
97.724498
61.25896984
20.291295
-20.305352
-59.15171426
-95.3305
-128.1424532
-157.1824516
-181.450636
-201.3641335
-213.3981603
-223.6577448
-230.7040669
-234.0877304
250.5921811
247.3665211
240.5775784
230.8614914
227.7339128
211.0718298
190.539166
172.5866383
145.1730365
115.370973
83.40035944
51.89471438
16.94356144
-17.62323223
-50.73600964
-81.71781299
-110.0310707
-135.3359746
-156.7603357
-174.5042378
-185.4245879
-194.7301137
-201.1643938
-204.2549746
219.6824617
216.7117417
210.4624967
201.5543362
198.6846223
183.5536247
165.0936362
149.0738541
124.9194839
98.90272693
71.25417601
44.04186332
14.19364403
-15.3016882
-43.57262413
-70.10713339
-94.48902085
-116.4396378
-135.1750514
-150.8249679
-160.5149354
-168.8324383
-174.6143331
-177.3912249
191.3015394
188.6106867
182.9509295
174.9085618
172.4188761
158.8556755
142.4456249
128.3270982
107.2101428
84.62871948
60.82705576
37.37441072
11.90821597
-13.25509736
-37.37796739
-60.06519487
-80.99371717
-99.93873245
-116.1721472
-129.8452902
-138.2610185
-145.5985825
-150.7205302
-153.1793776
165.2198042
162.8211941
157.774947
150.6218393
148.5982676
136.5927527
122.1690156
109.8846342
91.57946044
72.12222708
51.77319915
31.64449213
9.984484347
-11.42598756
-31.9470997
-51.27018026
-69.14559304
-85.3949013
-99.31867301
-111.1492087
-118.2924036
-124.6829761
-129.1579009
-131.3045248
141.193252
139.0907992
134.6645637
128.4010548
126.9068612
116.4214679
103.9038094
93.36147759
77.65808809
61.05265409
43.82106378
26.65739185
8.340676431
-9.774329472
-27.12749715
-43.47751225
-58.63363045
-72.45748291
-84.25600229
-94.37975301
-100.2757043
-105.7654628
-109.6178629
-111.4638153
118.9725725
117.1646136
113.353592
107.9657788
107.0476996
98.03045551
87.37215597
78.43165272
65.14731128
51.15960904
36.74055089
22.25354853
6.910439091
-8.26992055
-22.80064946
-36.49465351
-49.20739098
-60.83320234
-70.68322008
-79.22628995
-83.91095254
-88.55098118
-91.8109288
-93.37063499
98.30123657
96.78394258
93.57761681
89.04045582
88.75126554
81.13389366
72.27257015
64.83866915
53.80379362
42.22842259
30.34789799
18.30197525
5.641262747
-6.888188607
-18.87226908
-30.16769034
-40.66451147
-50.26930469
-58.34007185
-65.41617904
-68.92225013
-72.76524189
-75.46393255
-76.75193
78.95186447
77.71787867
75.10317405
71.39167661
71.74637195
65.47231814
58.27802656
52.36583693
43.41638537
34.07150081
24.48795269
14.70101276
4.493497736
-5.60841401
-15.26582409
-24.37122329
-32.84307438
-40.60314608
-46.97284412
-52.70306983
-55.07685904
-58.16959509
-60.33722791
-61.36902721
60.59470757
59.64682456
57.61922491
54.69619043
55.8489414
50.8092861
45.13137636
40.7778089
33.78403067
26.51516809
19.04387209
11.37044078
3.437229877
-4.412547513
-11.91634432
-18.99668399
-25.59740516
-31.67493949
-36.38892748
-40.86589191
-42.0897258
-44.48814944
-46.14697214
-46.92901504
43.30420324
42.6149994
41.1589996
39.07091159
40.55581482
36.92166553
32.73125109
29.86204222
24.72280687
19.40834948
13.90531716
8.243511373
2.448867577
-3.28469788
-8.767359617
-13.94749924
-18.79019085
-23.26878101
-26.43950993
-29.68273485
-29.99624295
-31.68800591
-32.86225935
-33.42204357
25.71670624
25.37609839
24.51204453
23.25513902
25.98463603
23.61956708
20.85255201
19.43799175
16.06425841
12.60636676
8.982664659
5.263501648
1.508292811
-2.210527596
-5.768006814
-9.136320309
-12.29928903
-15.25079104
-16.93720893
-19.05724363
-17.88429669
-18.89678135
-19.58698457
-19.86032188
12.51531388
12.21438458
11.77493132
11.11115175
11.77028565
10.56571131
9.23531315
9.34428173
7.647898415
5.957136126
4.182001514
2.390954317
0.5976787188
-1.176264421
-2.871037327
-4.483477613
-6.011762926
-7.466730563
-7.644387429
-8.610539711
-8.485379043
-8.955935688
-9.276877805
-9.509499092
2269.809942
-5115.366995
-3625.203309
1914.309778
-4589.261016
-5137.13794
1660.025396
-3346.353406
-4451.463472
1456.526738
-2137.865314
-3187.06832
1217.93665
-752.4914888
-800.3984481
-1098.40528
-1997.204619
927.423129
377.7017046
-704.2753672
240.2186727
-400.5897334
-984.2205985
2388.064133
641.1203384
-3231.90876
-1186.390696
-7140.153634
-4937.596226
-4705.109936
-3016.027924
-2490.341832
1730.386873
1893.139568
2167.483457
-6575.383284
-7145.360302
-4319.254335
-3045.154983
-3094.153303
1555.308816
1648.288515
1859.375899
1778.723206
1816.194298
1946.643332
-4675.906791
-5627.542395
-3218.417903
-2544.505511
-2954.180525
1372.990902
1443.072153
1621.395249
1556.249492
1595.317146
1680.57226
-3004.644693
-3704.683773
1175.318287
1215.525589
1417.236994
1339.827283
1399.176038
1496.10531
-1581.540948
-1577.002372
-2177.62848
961.8154946
936.3680978
1182.856624
1074.934885
1102.67637
1262.511549
645.6316898
395.4709476
392.7439279
2854.299573
2400.13073
3242.916528
2936.908101
-7176.208254
-7178.123906
-4795.140249
-6838.751689
-6995.512329
1965.031465
2102.92087
2030.104549
2109.275939
1968.726585
2354.973285
2132.345432
-5686.800975
-6530.286221
-4873.925333
-6394.127935
-5593.828018
-6968.575432
-6438.328856
-4924.182137
1693.958699
1798.906109
1747.46521
1807.99654
1695.419638
1959.008337
1817.506618
-3809.725099
-4610.606007
-3828.050799
-4501.308851
-3738.104735
-5535.758153
-4621.504529
-3988.62849
1502.615619
1590.073682
1531.492838
1593.72324
1507.144401
1688.249595
1598.759629
-2266.399647
-2909.072047
1271.452132
1392.279066
1324.609802
-1530.458543
1397.772123
1276.894264
1500.492487
1404.736795
-1572.657609
-984.7111129
-1496.393145
-1529.069843
996.0310043
1089.60223
1055.401552
6.251698609
1094.815478
928.0819661
1267.967863
1107.189815
-65.50792969
1859.061849
2211.466303
2324.295249
2462.359208
2871.524166
3087.194183
-9577.856414
-6528.077538
2072.673773
2126.544138
2349.831289
-3596.664668
-2094.87212
-1866.246268
-2381.015107
-2008.160289
-1974.517861
-2291.046668
-123.8382825
-456.4577967
-839.4026887
2393.05683
2801.786038
2424.299171
2574.739509
4106.610741
3816.51542
-4655.006709
-6725.805641
-4582.632612
-2343.678888
-2687.037944
-2574.836933
-2866.338547
-2242.130938
-3637.082668
-2959.116217
-2724.711075
-1108.482583
-214.5700488
-393.3151663
934.2799297
2155.248134
3165.311474
-4396.74151
-1578.246183
551.4160058
-9640.770783
-6632.794552
-9181.863367
-6169.607135
-9041.702012
-6293.545822
-6836.346805
-6876.321839
-5122.15916
-5186.874053
-3160.816501
-3509.519622
-3297.117791
-3495.108649
-3132.658238
-3959.153199
-3550.62177
-3397.33815
1444.9797
1413.324596
1371.965258
-1592.486043
-1878.745548
-1919.152371
1186.003159
1152.84019
1087.869673
1228.26143
1172.639172
1195.768115
2965.60042
2616.539775
2627.362596
2621.006778
2980.335037
2374.775069
2581.299303
2562.661297
3238.078405
3736.119162
3963.009808
3047.028781
3647.105918
3177.293717
3708.822402
3049.073091
-7286.442628
-7295.353259
2041.839094
2129.35658
2031.855108
2242.786125
2232.025413
2356.445319
2137.816993
2218.141475
2211.684931
-6077.590691
-6131.72373
-6028.098535
-5408.536411
-5624.698047
-5072.157461
-5329.07179
-5975.552798
-6737.241916
-5895.346308
-5980.588638
-5688.188501
-5852.025694
-6699.213397
1751.854065
1743.751625
1892.787762
1882.454973
-4140.276947
-4006.582075
-4197.756634
1554.226798
1548.196449
1642.97204
1637.119213
-3076.163868
-2717.520892
-2628.332226
-2735.049194
-3096.33543
1326.924409
1295.559912
1245.616403
1357.44654
1311.650269
1336.175603
-1159.418906
1340.49211
1330.7464
1455.107069
1449.300534
-1924.131809
-1165.392996
-1221.641739
-1498.698501
1064.573549
993.7132566
906.4982367
930.8498704
499.5101501
229.3772869
1201.704482
-201.8188622
191.2789383
-117.7726694
1192.571256
-305.3950882
-153.357334
160.2367109
-8493.973877
-2177.727314
-2345.180118
752.0460749
689.1479129
900.7529298
789.3735418
816.3594412
963.4520636
286.6632761
-83.36414129
-282.9605387
4855.075508
-2377.191271
-2564.394881
-872.1927794
-1131.270633
-1115.783559
-100.8973438
-350.6450177
-54.56651311
1384.559393
2784.455484
4010.267098
-5810.535884
-2142.878185
319.3068882
-6697.861502
-7711.724447
-7539.45832
-7037.283174
-4863.724305
-5058.966328
-4843.792422
-5903.945156
-5710.532079
-5443.468091
1634.418045
1611.556937
1575.323979
1662.817691
1624.010241
1640.592066
1465.529253
1426.573349
1451.022781
1140.389161
1127.421157
1090.590693
884.0280955
703.4815252
443.0269774
-7232.689997
-7800.699262
-7778.624252
-7087.624213
-5914.50015
-5684.873257
-5991.11582
-5953.991125
-7075.042847
-5859.851234
-6152.873228
-5971.758831
-6371.86822
1735.891491
1718.200445
1676.265623
1702.733722
1721.663659
1715.146459
-4777.3053
-4567.467436
-4428.991377
-4160.017199
-3908.56816
-4199.99868
-5113.188699
-4694.807142
-4980.702439
-4298.81207
-4596.64184
-5051.322445
1544.406807
1515.425573
1478.238445
1563.450705
1527.600849
1550.376843
1578.067677
1592.445689
1604.654705
1520.448147
1544.183142
1526.131983
1668.72037
1674.859414
1695.965523
1608.361726
1621.521908
1614.340911
-2536.910272
-2668.868672
-2340.847487
-1347.762162
-1368.756591
1375.920304
1293.437144
1480.065961
1488.79062
1514.305807
1443.680918
1424.235074
-1711.409241
742.0078575
970.0764212
927.2677935
1077.281079
1032.559551
1038.258884
198.9344223
414.8500717
191.3303072
1045.301732
442.8199703
727.1822012
537.7645871
537.2356185
1235.649286
1144.510471
-8829.121101
-8210.183983
-8427.934728
-3753.972484
-3824.228029
-1980.837788
-2127.518159
-2125.908573
2480.876734
2452.244039
4155.565418
4701.598303
4648.912607
4559.739561
4100.963242
-2759.362276
-2568.418496
-2535.826095
-2565.927705
-2774.579868
-1105.810497
-926.17373
-953.1595313
-927.3066956
-1102.887576
-701.5003872
-877.7847773
-454.7232961
-493.2281371
-653.652032
-291.3625213
-441.6185578
-355.3363615
-9438.298644
-8148.48261
-7717.693746
-8380.195142
-8240.097424
-7532.212907
-6784.447423
-8198.883246
-7238.290668
-7106.324217
-6731.268094
-6998.291818
-7476.110061
-7296.327797
-5344.601625
-5132.258301
-4928.460686
-5192.2959
-5408.145298
-4910.435388
-5126.870783
-5485.696621
-5379.990546
-5650.369037
-5422.93582
-3305.761815
-3376.699516
-3346.782968
-3267.711605
-3419.646852
-3799.769617
-3688.153364
-3851.817857
-3470.397614
-3634.421737
-3741.016723
-1788.826969
-1777.119288
-1927.107903
1171.452557
1139.747754
1149.254542
1222.026675
1210.375212
1182.110463
2796.230753
2746.690762
2752.14882
2754.379908
2629.786561
2953.782117
2800.335059
2803.074724
2453.911966
2464.724098
2388.194835
2592.421021
2493.623933
2484.012282
3283.811739
3187.376312
3012.125375
3406.037818
3306.076859
-7969.335019
-7821.907181
-7248.020923
-8022.200432
-8233.04929
-7965.720067
-8331.279366
-8434.898933
-8317.75791
-8291.439243
-7284.5839
-8036.256577
-8028.625417
2084.301668
2081.752838
2054.784378
2124.354897
2092.157267
2096.544814
2014.856599
1990.999973
2047.162105
2022.703381
2279.154941
2287.756363
2238.732588
2366.200202
2305.893888
2296.042564
2172.451653
2171.033258
2135.313405
2223.934912
2183.73206
2185.615471
-6375.861549
-6211.582922
-5915.76136
-6310.352786
-6623.495903
-6424.798632
1782.274288
1759.433269
1816.976537
1789.253288
1723.305475
1705.428893
1751.071944
1729.136358
1940.624214
1908.479558
1982.250726
1951.368801
1855.453787
1825.56782
1897.824781
1866.131848
-4125.632629
-4314.686549
-3910.179722
-4073.472454
-4158.486229
-4618.671177
-4835.194404
-4370.786686
-4554.97847
1564.91141
1586.440804
1572.398672
1592.152662
1567.625406
1607.884565
1598.658439
1561.962425
1531.355798
1547.036861
1558.832149
1651.161755
1667.981279
1661.699649
1671.04121
1653.588106
1698.548058
1677.289651
1622.754336
1610.770691
1645.227657
1627.588526
1619.808795
1626.553288
1644.50255
-2772.839144
-2894.094541
-2956.295207
-2762.608167
-3010.90869
-2941.444355
-1112.20102
-1321.21617
-1336.794794
-1114.47094
1368.408243
1303.501057
1465.146106
1481.641009
1473.451585
1430.960158
1450.882478
1461.186349
-1803.067705
1015.252572
1016.154181
965.4222068
602.8919629
529.348542
1023.773095
295.8567441
429.0398349
345.5028513
1224.305163
-346.8494189
55.96021484
248.4874738
16.54354132
1148.057084
-3063.787345
-2246.578711
-1530.767197
-2324.179714
-2380.503152
-1125.251126
-1218.398025
-1695.711779
-2382.57227
-902.7324756
-878.2905523
-712.9281874
-2156.016023
-1612.286429
-1590.505698
1357.170716
3238.929607
4458.542208
-7103.601083
-2889.138726
101.1099412
-2146.542487
-1863.25435
-4203.795517
-6923.350221
-7851.914863
-8031.599085
1871.144839
1846.178776
1795.170897
1918.133134
1863.820085
1890.043299
-1576.645832
-1726.02184
-1723.352157
-2245.375314
-1960.240114
-1914.989839
1247.331588
1220.466931
1232.438458
-8066.360694
-8054.633234
-7284.275883
1778.926739
1732.842654
1750.819908
1783.225919
1788.379066
1815.145583
1824.030449
1853.044549
1844.265766
1292.238412
1280.892799
1256.497841
-1540.627353
-1492.961409
-1484.799274
1281.768948
1290.965565
1284.84547
-1647.88806
-1655.302762
-1550.455223
-1372.452055
-1375.752919
-1526.974601
1080.622064
1258.912953
1265.718331
1273.501255
1116.431633
-9482.066093
-3635.383761
-1992.150434
-2067.426133
-2069.229879
-2329.155696
-2171.650134
-2145.422132
2537.368644
-5562.581976
-5049.955907
-6128.986602
-2487.961971
-2536.975266
-2374.406333
-694.1652788
-707.8486993
-527.9619259
-535.2809552
-637.2050482
-2899.331429
-2480.43786
-5577.516883
-9366.327821
-8827.798281
-8665.924323
-9054.881492
-9118.456232
-3210.05396
-3243.783266
-3191.884792
-3523.628168
-3527.645494
-3503.167784
-3062.564343
-3213.410459
-3283.834629
-3920.57784
-3862.542977
-3921.123951
-1917.299475
-1897.485071
-1929.555482
2902.218232
2985.963849
2658.515787
2662.594344
2666.529891
2625.550632
2393.659615
2405.304512
2382.596596
2586.914861
2551.238826
2545.213784
3431.749939
3252.925572
3373.791547
3603.536104
3625.966346
3768.819721
3053.493019
3125.726633
3125.68075
2065.107793
2062.149741
2059.960641
2127.442729
2117.186689
2119.487457
2011.172987
2004.863152
2054.447434
2045.619167
2248.270384
2250.657575
2235.129871
2361.188854
2340.20169
2336.406794
2146.784959
2147.370809
2137.136139
2220.89563
2208.457598
2207.393088
1757.638622
1780.689663
1774.518281
1722.594434
1728.028529
1749.762629
1904.620234
1935.812595
1921.166258
1926.6115
1915.363282
1997.487955
1986.858464
1836.836322
1904.231109
1893.208762
1854.401042
1863.305043
1894.233887
-4311.178244
-4388.602012
-3981.997144
-4053.836341
-4075.065053
-4459.990722
-4467.006505
-4367.637748
-4504.580265
-4326.094009
1314.362667
1289.752902
1300.480365
1362.524102
1346.99467
1323.230882
1344.539757
1355.787519
1350.459676
1321.451844
1324.954597
1334.187437
-1926.475939
939.7891472
955.9808681
922.8819825
633.8708333
946.7200766
384.2932734
489.0563243
591.2458398
1207.840489
1213.322127
1209.122128
-264.1359742
-110.900066
-93.19761651
-108.8641863
1181.210662
1188.012949
1199.509665
-18.64168412
-103.6776622
-241.87443
-2208.915744
-2257.518732
-2368.40034
-2318.874902
-2300.023338
5038.296126
5039.386484
5026.88504
-2439.479328
-2463.560228
-2372.442613
-2579.422088
-2521.507421
-2513.708103
-3938.835484
-3268.872754
-6720.3298
-6959.37351
-6979.53075
-6866.410925
-6916.221188
-7651.281032
-7462.864581
-7514.172245
-7364.256865
-7414.118639
-7595.734329
-5843.724551
-5755.867861
-5818.79584
-5619.857959
-5691.24408
-5780.801556
-7839.538306
-7623.498745
-7629.410275
-7566.391385
-7607.197357
-7830.604013
-6088.902823
-6000.300006
-6059.714231
-5882.129522
-5941.710814
-6032.880532
-6774.363838
-6820.365205
-6649.678685
-6712.785226
1597.05322
1592.166527
1587.127107
1527.00799
1523.294718
1516.380958
1537.290737
1530.823845
1535.431754
-1488.742272
-1545.217157
-1344.919668
-1431.524474
1392.599489
1388.135718
1405.461582
1397.777641
1297.069145
1289.457987
1295.129502
1291.405136
1497.287503
1494.435394
1486.701965
1509.734257
1502.421878
1506.462022
1419.948022
1414.82694
1436.125046
1418.590418
1426.481961
-1715.270472
-1710.901679
-1704.85127
-1549.843046
947.0572255
961.8697602
1024.923781
1057.777877
1052.67955
1034.042552
1064.818812
396.4830851
387.5255147
992.504814
887.2535769
689.2883475
1237.26257
1253.484367
1248.174007
1130.266986
-9453.989035
-9728.068638
-9176.663628
-9127.941726
-8574.970047
-7627.860436
-9455.805759
-9118.586285
-3686.895387
-3837.704923
-2127.545628
-2120.292585
-2123.169024
2507.626531
2420.520031
4757.023011
4563.422904
4514.131229
4096.214532
3962.738054
4394.104267
4227.328576
4368.478162
-2656.645093
-2576.303606
-2714.917772
-940.1223388
-934.5184616
-923.0179126
-1044.658926
-738.3020665
-711.7706652
-701.8396834
-863.2336998
-801.0240966
-803.5413861
-464.609044
-519.1109778
-512.2318041
-340.0735745
-348.4503962
-392.9927366
-9030.026864
-8948.896495
-9426.118311
-8343.215409
-8733.612065
-8728.029772
-9178.006023
-9161.935797
-7177.582062
-7060.800032
-7105.763858
-7002.863958
-7016.527662
-7120.725486
-7411.200286
-7257.078722
-7311.516929
-7154.78212
-7204.701683
-7353.075922
-5272.879686
-5197.809845
-5268.06159
-5259.780121
-5335.413046
-4951.08128
-4980.804722
-4959.430285
-5062.789299
-5568.387125
-5598.86594
-5552.710131
-5469.461261
-5544.533228
-5341.175051
-5409.554986
-5500.310297
-3345.486876
-3248.079368
-3246.113693
-3261.797761
-3201.89508
-3262.085007
-3451.582298
-3472.974246
-3401.726824
-3757.544655
-3799.822607
-3820.302652
2848.499289
2701.016352
2458.944289
2430.282366
2418.666999
2513.425641
2518.664294
2488.325476
3409.680689
3512.134186
3504.866011
3821.871401
3689.808308
3211.110802
3209.012123
3306.063196
-7909.471316
-7697.689377
-7733.141621
-7640.860254
-7665.84742
-7861.326675
-8088.938125
-8153.974688
-8392.122095
-8751.293599
-8650.414413
-8850.946157
-8851.173689
-8441.596734
-8347.465911
-8583.472234
-8533.85419
-8276.576059
2083.965067
2074.211794
2074.713929
2108.46993
2106.300144
2095.081865
2023.518303
2017.219537
2037.240039
2030.108089
2282.735877
2266.454853
2263.877105
2315.481449
2319.644035
2300.331537
2171.853205
2159.135625
2158.599084
2197.109249
2196.690355
2184.538658
-6326.082737
-6229.570028
-6280.247497
-6117.026136
-6173.859769
-6266.576319
-6571.230027
-6473.993621
-6555.753064
-6332.363159
-6397.110213
-6493.420128
1775.197115
1777.094218
1783.25681
1761.233848
1769.789127
1767.577941
1806.828141
1805.618046
1817.469209
1788.808034
1795.678009
1797.212157
1717.673532
1719.874823
1724.694862
1708.477978
1714.5522
1711.77182
1743.056569
1743.442046
1752.072321
1729.63901
1735.760315
1735.739029
1949.484798
1938.065268
1929.926973
1934.244151
1945.245033
1912.170525
1923.17734
1919.195506
1973.620281
1960.9871
1860.934693
1851.015894
1845.006699
1847.864562
1858.195463
1826.484262
1831.153641
1833.864314
1887.22609
1890.436037
1901.26243
1869.055208
1879.714968
1876.6748
1882.420186
1871.730729
-4217.241977
-4254.094983
-4145.705007
-4114.751966
-4134.635746
-4679.124195
-4709.137396
-4658.248133
-4871.643965
-4778.401813
-4749.92391
-4415.69302
-4446.209953
-4424.586868
-4602.606124
-4547.756882
-4484.490293
1571.512061
1568.003029
1561.485802
1581.337187
1574.792871
1579.033408
1583.105277
1574.423705
1605.23867
1602.3421
1557.784796
1547.742332
1542.236364
1542.495615
1540.336834
1555.148041
1549.406562
1554.109246
1657.644541
1662.517323
1674.086553
1658.297522
1691.336564
1693.663196
1701.320023
1679.938698
1686.566709
1684.290838
1618.184838
1614.152984
1637.962612
1632.494765
-2892.549915
-2878.412045
-2947.789579
-2761.646851
-2815.354249
-2849.814156
-3084.710103
-3133.101595
-2996.116728
-2996.371691
-3006.240022
-1271.599171
-1280.402673
-1334.849774
-1135.551057
-1202.219909
-1206.359314
1360.97734
1347.799572
1382.613616
1373.643981
1308.038361
1315.864584
1312.202535
1318.683373
1311.28181
1336.672709
1327.451045
1470.005439
1467.8203
1462.53621
1479.770095
1473.548266
1475.49133
1455.134554
1448.705497
1442.923694
1457.729083
1453.277412
1458.130794
-1866.691729
1012.611516
988.6378213
988.9896243
570.4591942
574.6968666
617.6327888
529.3397774
532.6415597
522.7946516
999.9976739
383.1394253
339.6302263
279.3700523
1215.911552
1217.655188
1224.313752
-327.8616841
135.8190186
84.11507536
235.5138332
228.9480566
236.9804882
70.24250226
-53.90731556
-35.64340751
60.64498525
1161.222018
1177.266454
1169.861133
903.0611462
863.920794
838.4602053
847.1941832
785.4642618
753.5374854
759.791877
666.4915381
632.254123
628.188057
494.9426189
469.5846278
443.6399213
278.1305692
270.7255389
220.8879876
44.90970571
53.5100059
-13.96905894
-181.2622755
-159.6219224
-234.4115751
-379.3955301
-349.9634259
-423.2779479
-536.6975914
-504.514998
-569.3272426
-650.7890921
-622.2891761
947.6545455
920.7898755
875.8670183
908.5970553
856.4994562
800.6756706
832.454903
736.3526494
681.3459812
695.3721277
544.6020289
504.9272526
484.8861878
281.3139828
280.5138958
208.9544634
-8.585218809
35.69010626
-78.0933318
-267.2128879
-196.0345911
-322.7967887
-466.8089009
-394.9229034
-508.0181543
-614.7038301
-552.3221065
-644.9225417
-718.8971183
-664.6916521
1008.39835
999.5978664
938.7393954
993.2073732
957.8581189
878.503477
938.9999402
852.5947709
759.7355614
811.358118
639.7167918
562.2908554
564.3359538
294.1009008
282.3334272
190.1595029
-115.9088291
-29.59850987
-208.8668558
-439.6457929
-300.9611948
-499.7132419
-636.9031392
-500.8066204
-671.8884379
-752.484186
-642.2085149
-772.7473697
-820.5699852
-741.3523553
1077.444506
1094.740545
1022.277751
1098.840455
1101.138883
989.3357482
1096.574187
1054.374441
893.311635
1026.243713
864.1767519
679.2748175
773.4797674
362.4862229
303.4399167
190.2346086
-324.8894952
-154.7573643
-465.2517909
-754.3036362
-501.2166684
-813.9730101
-917.988052
-695.9817633
-933.7135588
-954.2120226
-797.3129128
-955.8349665
-956.5148855
-851.3758721
1143.684193
1193.253376
1119.704384
1211.711216
1273.422753
1142.990141
1296.255
1366.109094
1123.050578
1385.699181
1382.757235
957.7667852
1326.713641
577.8920798
402.3060498
353.4942857
-886.4943232
-412.3597332
-1091.280575
-1332.634022
-867.5233725
-1344.376138
-1307.108375
-1004.799931
-1283.493771
-1206.439016
-1013.591713
-1181.693126
-1116.012388
-994.8925732
1193.30877
1272.133077
1215.789779
1304.037268
1423.748652
1316.005007
1474.31199
1675.88259
1452.177432
1767.133863
2270.140463
1578.972089
1911.896089
1918.831081
1354.372787
368.3056251
-1151.665001
-469.9308684
-1899.301496
-1805.518244
-1483.952626
-2102.252461
-1765.002013
-1419.682307
-1676.663037
-1463.408581
-1273.372881
-1406.389403
-1267.987628
-1156.088227
1213.319587
1307.498053
1285.497567
1345.51981
1487.193319
1449.401145