/*--------------------------------*- C++ -*----------------------------------*\
| =========                 |                                                 |
| \\      /  F ield         | OpenFOAM: The Open Source CFD Toolbox           |
|  \\    /   O peration     | Version:  v1912                                 |
|   \\  /    A nd           | Website:  www.openfoam.com                      |
|    \\/     M anipulation  |                                                 |
\*---------------------------------------------------------------------------*/
FoamFile
{
    version     2.0;
    format      ascii;
    class       surfaceVectorField;
    location    "0.89";
    object      Uf;
}
// * * * * * * * * * * * * * * * * * * * * * * * * * * * * * * * * * * * * * //

dimensions      [0 1 -1 0 0 0 0];


internalField   nonuniform List<vector> 
25162
(
(99.99854853 0.006126213806 -1.923879833e-21)
(99.99426268 0.005540566859 5.704657898e-21)
(99.99783939 0.01457063208 -1.897017167e-21)
(99.99209519 0.01865752016 1.932490212e-21)
(99.99644737 0.02828599261 -3.781158778e-21)
(99.98716368 0.03903736129 1.143080377e-20)
(99.99838863 0.03192775195 1.163627673e-21)
(99.97843394 0.07127995337 -7.499824957e-21)
(99.99077713 0.07074296637 -1.256010225e-21)
(99.99754281 0.05780661684 1.814864625e-21)
(99.99917333 0.03454971024 8.951264974e-22)
(99.98927093 0.09555256423 1.801529825e-21)
(99.99754101 0.05421882601 8.782920321e-22)
(99.99818181 0.04274440927 -9.1066519e-22)
(99.99696509 0.06855503241 8.782561601e-22)
(99.98349517 0.1536890665 1.746198104e-21)
(99.99670062 0.08620431292 0)
(99.9965283 0.1055220064 -3.167379263e-21)
(99.978592 0.2324983062 -3.167362778e-21)
(99.99605668 0.1284199868 -8.206735679e-22)
(99.99554481 0.1546170499 2.759083496e-21)
(99.97257589 0.3371344365 2.99261854e-21)
(99.99508489 0.1839769781 3.681923672e-22)
(99.99474044 0.2159475646 -2.380431593e-21)
(99.96849496 0.4645927142 3.432614506e-22)
(99.99457238 0.2496584742 -2.384695517e-21)
(99.9946594 0.2837772007 3.414145752e-22)
(99.9694781 0.6001129236 -1.559473379e-21)
(99.99506612 0.316429845 2.147412235e-21)
(99.99582073 0.3455745277 1.778596569e-21)
(99.97812291 0.7159573178 -7.698387373e-22)
(99.99690831 0.3690341408 0)
(99.99824589 0.3848560033 0)
(99.99354332 0.7791726456 1.317123345e-22)
(99.99983368 0.3917788492 0)
(100.0014371 0.3887268976 5.923934974e-22)
(100.0112601 0.7679205146 -1.080265118e-23)
(100.0027778 0.3766965319 1.085063514e-21)
(100.0038526 0.3570419803 -3.643612993e-22)
(100.0238881 0.690002576 -6.677061187e-22)
(100.0046148 0.3314751159 -1.218237385e-21)
(100.005055 0.3020821139 8.019292771e-23)
(100.0293161 0.5732674944 1.789502783e-21)
(100.0052049 0.2707364929 4.635362978e-22)
(100.0051066 0.2390727083 0)
(100.0286257 0.447279614 0)
(100.0048388 0.2084631306 0)
(100.0045851 0.1797323542 7.371852334e-22)
(100.0242978 0.3332374411 1.52724208e-21)
(100.004636 0.1537563828 -3.731969022e-21)
(100.0044743 0.1288417902 -1.394445309e-21)
(100.0201308 0.2351285269 3.02393402e-21)
(100.0038354 0.1073262559 3.02370837e-21)
(100.002866 0.08927501037 -8.431852353e-22)
(100.0120734 0.161332082 -4.355550062e-23)
(100.0008333 0.0763769704 1.646952729e-21)
(100.0075067 0.07404701652 -7.322647568e-21)
(100.0428373 0.1818362841 3.664612944e-22)
(100.0154338 0.1638902003 -2.605061264e-21)
(100.0025855 0.07564720688 -1.515189789e-21)
(100.0052747 0.04287379263 -9.181866443e-22)
(100.0291532 0.1119136194 1.455992485e-20)
(100.0043621 0.02012053749 -7.372474814e-21)
(100.0213784 0.05964188058 -1.552454625e-20)
(100.0189615 0.01881080534 1.305871993e-21)
(99.98660407 0.01701518349 9.520677255e-21)
(99.97827022 0.009119898359 2.543011882e-22)
(99.97961707 0.040830919 1.518431813e-20)
(99.96976912 0.03125775679 -1.332686561e-20)
(99.96648545 0.07914728321 7.905144462e-21)
(99.95130378 0.06668800726 -2.063162433e-20)
(99.96009985 0.1253339697 -1.350232175e-21)
(99.91985537 0.1239405112 3.969127149e-20)
(99.93235757 0.1582581145 -8.728974742e-21)
(99.94097125 0.1606532226 -1.873350119e-21)
(99.95496923 0.1588030229 3.677538332e-21)
(99.97229266 0.1130467994 1.828744962e-21)
(99.95660275 0.1866926493 1.779257058e-21)
(99.94230539 0.2045628453 1.813526387e-21)
(99.9032521 0.2695563106 -3.671928988e-21)
(99.92814577 0.2615936576 -2.32736281e-23)
(99.93355677 0.2992962058 1.746472148e-21)
(99.91156474 0.3316015042 -1.867413508e-23)
(99.85530631 0.43258439 0)
(99.90280484 0.3870058075 0)
(99.87687872 0.4435269774 -2.166571624e-21)
(99.90961125 0.4445893703 -4.251561622e-21)
(99.89760914 0.4691763047 -5.891069892e-23)
(99.86898956 0.5419118665 -9.56124367e-21)
(99.88963807 0.5125459274 -3.287083753e-21)
(99.86390665 0.6887992469 2.76956873e-23)
(99.882869 0.6492945569 -2.141651113e-21)
(99.82768701 0.7960588022 -1.170684131e-20)
(99.85743563 0.7477225339 -2.855382935e-21)
(99.83818214 0.9671471735 -5.255211935e-21)
(99.86444824 0.9034626063 -4.966874172e-21)
(99.79782242 1.114470715 5.626626318e-22)
(99.83580957 1.038276499 -6.29684832e-21)
(99.83491211 1.277247533 -3.397202567e-23)
(99.86806769 1.180081504 -4.023812766e-21)
(99.79762838 1.465506433 2.023796468e-21)
(99.84074363 1.352424989 -3.008452931e-21)
(99.86958388 1.56199123 -4.573730731e-21)
(99.9054482 1.424205676 -6.652734927e-21)
(99.84573547 1.780048926 1.211208023e-21)
(99.88578072 1.625627515 -2.503742693e-21)
(99.94489282 1.741261865 -5.312237936e-23)
(99.97463849 1.564720954 -5.034494265e-22)
(99.94243007 1.964024963 3.973544125e-21)
(99.96772818 1.77550804 4.280439956e-23)
(100.0360406 1.759193819 1.431357861e-22)
(100.042775 1.554079815 -1.444902423e-22)
(100.0523509 1.957253153 -6.253453209e-22)
(100.057298 1.748691083 -8.265116154e-22)
(100.1119636 1.61674792 -2.734446281e-22)
(100.0886556 1.404117948 -2.245820615e-22)
(100.1374337 1.771840548 -7.386668667e-23)
(100.1243652 1.564339175 2.16624154e-21)
(100.1502099 1.3646214 2.377839277e-21)
(100.1085046 1.169170353 4.133283479e-21)
(100.1768743 1.474842993 4.129546698e-21)
(100.1527887 1.291333041 5.260912745e-22)
(100.1536071 1.076660326 -6.542336031e-21)
(100.1060287 0.912915463 -6.086261177e-21)
(100.1764714 1.149974854 -2.205791037e-21)
(100.1492793 1.001203399 -2.166112829e-21)
(100.1334561 0.8092732761 -5.124940917e-21)
(100.0872712 0.6813455693 4.680929447e-22)
(100.1480247 0.8544099456 -1.365712006e-21)
(100.125648 0.7442329627 5.558836992e-21)
(100.0810751 0.4653160106 -1.278908801e-20)
(100.1297632 0.6348315594 -1.278809432e-20)
(100.1814203 0.6851290757 1.292500934e-20)
(100.1116419 0.5274357398 -2.614717631e-20)
(100.0941648 0.4353995698 1.126495821e-20)
(100.1304675 0.4637712311 -1.589560685e-20)
(100.0767477 0.3575060181 2.289632166e-20)
(100.0576043 0.3166492306 2.543148372e-20)
(100.0710078 0.2154188427 2.165869831e-20)
(100.161566 0.3388963254 -1.773525102e-22)
(100.1241888 0.3822262508 4.55814623e-20)
(100.0731827 0.3014049379 2.467042597e-21)
(100.0508922 0.1254164874 -7.055369971e-22)
(100.1136026 0.2073941491 3.106442508e-20)
(100.0406976 0.05759148272 -7.234731134e-21)
(100.0853208 0.1106242053 -1.646938445e-20)
(100.0732844 0.0348101129 7.371240475e-21)
(99.96401099 0.02220441848 -2.286623366e-20)
(99.9573055 0.009005462103 -1.142844357e-20)
(99.94481701 0.05467731846 -4.947290611e-20)
(99.93917933 0.03236112325 1.062866007e-20)
(99.90969547 0.1085371 1.008723211e-20)
(99.90074087 0.07351381259 -4.187531124e-20)
(99.87335085 0.1877067621 2.527235209e-20)
(99.83773954 0.1426599196 4.550039065e-20)
(99.83037809 0.2049991481 -3.948690369e-20)
(99.89214654 0.2001537285 -7.491622222e-21)
(99.8338206 0.2270523155 -5.557608646e-20)
(99.84863547 0.2500944596 -3.754782982e-21)
(99.83093152 0.3400454822 -7.315208083e-21)
(99.81071832 0.3282444663 -3.645730916e-21)
(99.74143702 0.3943574697 2.558114529e-20)
(99.76663297 0.4240888192 7.189892468e-21)
(99.7484646 0.5514764813 -6.326380797e-21)
(99.71565264 0.5413310797 4.668283784e-21)
(99.61507385 0.6497565926 -3.60401154e-20)
(99.68545671 0.6600129204 2.50288718e-21)
(99.63430299 0.7079474747 -1.564783696e-20)
(99.67125402 0.8201572569 -6.430694247e-21)
(99.64531959 0.8185694268 0)
(99.58509349 0.9021363835 6.667834598e-21)
(99.6167114 0.9106600219 -6.402683664e-21)
(99.56621017 1.227984469 3.118400761e-21)
(99.52756053 1.236233673 1.221206652e-20)
(99.4505445 1.360605144 6.047894064e-21)
(99.49917199 1.35988248 1.516405147e-20)
(99.48279326 1.751864737 1.099880374e-20)
(99.42717049 1.78083188 1.635072033e-20)
(99.34047262 1.956302431 -6.061229545e-21)
(99.41096975 1.932865943 1.633097615e-20)
(99.47390366 2.346007757 0)
(99.40232851 2.412566365 1.935607269e-20)
(99.32667698 2.635717761 -1.088301421e-19)
(99.41681573 2.569337295 3.140494549e-20)
(99.59706676 2.88920568 0)
(99.52017076 3.013002734 0)
(99.47882525 3.273349634 -1.60076583e-21)
(99.57476805 3.138535339 4.014141919e-20)
(99.85045641 3.224888019 -8.633745316e-21)
(99.79113231 3.416552478 2.859658947e-20)
(99.80571725 3.67527783 -5.714224114e-22)
(99.87549191 3.463258048 -1.076820658e-21)
(100.1512075 3.219771293 7.512201638e-21)
(100.1341417 3.461171889 -6.02670618e-22)
(100.1985869 3.670238688 4.387306934e-22)
(100.2140988 3.40916347 7.666352982e-21)
(100.3805785 2.889579576 -1.501321739e-20)
(100.4097089 3.139461158 -9.910645164e-21)
(100.4943556 3.277298994 -1.119813028e-20)
(100.4569339 3.016756927 -6.333485834e-22)
(100.4845485 2.380264749 2.862694375e-21)
(100.543589 2.604548436 6.947757486e-21)
(100.6232861 2.680994244 6.030049004e-21)
(100.5551029 2.456103073 6.111711425e-21)
(100.4761166 1.829702934 -6.042218683e-21)
(100.546432 2.013454142 -1.410293782e-20)
(100.6103607 2.050077502 -4.892938936e-21)
(100.53264 1.869914849 5.396489504e-21)
(100.4730427 1.475267858 -1.69345257e-20)
(100.4075755 1.336004067 -1.14056454e-20)
(100.5200517 1.487138031 -1.142102637e-20)
(100.4519294 1.354842204 6.066402137e-21)
(100.3200154 0.8895841345 -5.055299496e-20)
(100.4280298 1.087126752 -2.646815593e-20)
(100.4972596 1.07401097 -7.666447813e-20)
(100.3706597 0.8983931262 -3.624067234e-20)
(100.2332198 0.5986000402 -5.774073693e-20)
(100.3166652 0.7365421501 2.298121039e-20)
(100.3620131 0.7158338494 -2.740357652e-20)
(100.2665754 0.5994034425 -2.396628289e-20)
(100.1975152 0.3273115177 9.748451401e-21)
(100.3403444 0.4483440873 -2.473380767e-20)
(100.3199019 0.543526766 -1.490585879e-22)
(100.2387263 0.4921562837 -1.414506558e-20)
(100.1432798 0.1896621297 1.455484669e-20)
(100.2431004 0.2717118316 2.588132358e-20)
(100.1139856 0.086633467 -1.851662044e-21)
(100.1825217 0.1440274049 -3.736921527e-21)
(100.1549871 0.04504584592 0)
(99.93726763 0.01827815902 2.296075127e-20)
(99.94008208 0.003844736407 -3.832384604e-21)
(99.90099708 0.04921170775 1.931975388e-20)
(99.91003813 0.01759531202 2.682026814e-20)
(99.83584943 0.1067525917 -7.680296409e-21)
(99.84655341 0.05224418293 -3.790797544e-21)
(99.75241079 0.2091810678 0)
(99.7432587 0.1165214052 5.858722419e-21)
(99.70240806 0.2055376449 1.778583482e-20)
(99.76568707 0.2409672732 -5.192687308e-20)
(99.69205264 0.2394064778 1.337209183e-20)
(99.69737862 0.2875518153 0)
(99.63768519 0.4290482628 2.007242925e-22)
(99.62363199 0.3858917558 -2.946850904e-20)
(99.52283525 0.4414421207 -2.944868476e-20)
(99.5358856 0.5087088836 5.97096753e-20)
(99.45868324 0.7215659941 -8.868345778e-20)
(99.43268884 0.6605118126 3.26761718e-20)
(99.28527589 0.7585913422 -5.933266247e-20)
(99.34929594 0.8409821555 -2.956047137e-20)
(99.2788453 0.8547762478 -4.84853669e-20)
(99.26989047 1.100481629 6.97529227e-21)
(99.24265377 1.064223645 1.385465585e-20)
(99.14756062 1.147429968 3.506165169e-20)
(99.17748565 1.195008687 6.916313076e-21)
(99.01645269 1.704778254 -1.481409275e-20)
(98.96899403 1.665121747 -6.556146825e-21)
(98.84389782 1.795934793 -4.764603539e-20)
(98.89911731 1.849377176 -1.983152458e-20)
(98.79702421 2.511033265 9.790543986e-20)
(98.7170205 2.479139323 1.237277469e-19)
(98.57701672 2.667367159 2.02750569e-19)
(98.67226363 2.712956791 -1.528910261e-22)
(98.73191091 3.484547798 -7.727574139e-20)
(98.6094234 3.486424812 -9.117756979e-20)
(98.47305191 3.757693674 -8.622766629e-20)
(98.62270769 3.760768109 -1.072037143e-20)
(98.97143394 4.491176211 6.722749213e-20)
(98.81105155 4.575336313 7.590204341e-21)
(98.73741766 4.923971262 -5.570627835e-20)
(98.93068435 4.822034155 -2.962051124e-20)
(99.60170663 5.169863897 4.988122369e-23)
(99.45275883 5.380239765 1.555576638e-20)
(99.50302661 5.733500537 -3.719067968e-21)
(99.66719317 5.480927738 2.884349334e-21)
(100.3933879 5.165102653 1.813431101e-20)
(100.329991 5.477139082 3.954037689e-21)
(100.4826281 5.727712504 2.467117746e-20)
(100.5315023 5.376218837 -2.658997131e-20)
(100.9629209 4.51777008 -4.925796684e-20)
(101.0023418 4.846570286 -5.445859829e-20)
(101.1732006 4.963184766 -5.481356237e-20)
(101.1068068 4.616907684 4.353300384e-20)
(101.1702415 3.584941637 0)
(101.2706118 3.864217234 0)
(101.4058563 3.88783592 -7.315482579e-20)
(101.2832158 3.609633997 -1.74156491e-20)
(101.1205162 2.673218218 8.735156727e-20)
(101.2359757 2.884319136 4.909814128e-20)
(101.3285846 2.859045772 -8.590252826e-20)
(101.1996594 2.66006331 2.474914515e-19)
(101.0525586 2.053008443 0)
(100.9439211 1.898441387 4.552658845e-20)
(101.1129254 2.01811259 0)
(100.9965869 1.873250766 0)
(100.7112615 1.231387221 2.786592182e-20)
(100.8910162 1.44350714 1.795527033e-20)
(100.958737 1.354475975 -1.585516944e-20)
(100.7667597 1.179595044 3.496390773e-20)
(100.5173054 0.8113834308 -3.188466082e-20)
(100.6535488 0.9559808278 -1.423455939e-20)
(100.6940667 0.8821053628 -1.436631403e-20)
(100.5525656 0.767565088 -6.961055746e-21)
(100.3745639 0.3900611013 -8.890515127e-21)
(100.5636986 0.48870119 -1.855602934e-20)
(100.5879615 0.6405148205 -2.467861932e-21)
(100.4827111 0.614599361 5.384722548e-21)
(100.272221 0.2235364333 7.44689215e-21)
(100.4000958 0.2919845619 1.131539326e-20)
(100.2150781 0.1011554815 -1.884925907e-21)
(100.2979408 0.1519349749 -3.327651469e-21)
(100.2503845 0.0469997316 -4.784246318e-22)
(99.91796623 0.002827929696 0)
(99.93743152 -0.007048418013 0)
(99.86201873 0.01930885544 3.878766235e-21)
(99.89455123 -0.01530839134 0)
(99.76150962 0.06381614667 9.849286641e-21)
(99.80467777 -0.001889103674 -3.240073914e-21)
(99.62132837 0.1751443742 1.637207316e-20)
(99.65460208 0.04062422419 2.16758933e-20)
(99.57421635 0.1411224687 -6.510885268e-21)
(99.61946209 0.2212686283 2.302172529e-20)
(99.54504169 0.1854651459 1.856795642e-21)
(99.52776687 0.254573321 -9.397617443e-21)
(99.40161904 0.4286268559 0)
(99.407074 0.3573448001 -1.93214521e-20)
(99.27897604 0.3880681534 -1.58658207e-20)
(99.26276429 0.4883429554 3.939674739e-21)
(99.09687288 0.7560366803 0)
(99.09289825 0.6547885401 3.939252945e-21)
(98.90134297 0.7131136788 -4.069222448e-21)
(98.92819558 0.8691915458 1.96252725e-20)
(98.8494373 0.8575790007 5.07517212e-21)
(98.74082893 1.209757926 1.379954123e-19)
(98.72633003 1.135773811 -8.683387814e-20)
(98.59393701 1.202615711 -1.010535728e-19)
(98.60805617 1.2918325 -8.563855782e-20)
(98.2601676 1.964288398 -1.160801579e-19)
(98.22102231 1.866908718 -2.320762502e-19)
(98.05037658 1.972139802 -2.369835955e-19)
(98.09094101 2.093485307 6.18225689e-20)
(97.78433398 3.024815721 -2.778254333e-20)
(97.69928389 2.910652401 2.936008721e-20)
(97.47610596 3.095077757 -1.234197394e-19)
(97.57591067 3.237524863 -5.861079689e-20)
(97.46776044 4.509566623 -9.578337249e-20)
(97.2960871 4.403113669 -3.473620727e-21)
(97.04380635 4.721307298 1.168118717e-19)
(97.25814118 4.851949955 -6.583473847e-21)
(97.74641017 6.319090916 -1.27099189e-21)
(97.45196151 6.314968653 2.331213883e-20)
(97.28492287 6.816928414 -5.434184131e-20)
(97.65453406 6.801915974 -1.488236176e-19)
(99.06228745 7.729416714 3.239125593e-21)
(98.73237147 7.977980375 -6.270492412e-20)
(98.84781775 8.536966732 -6.930798619e-20)
(99.21623288 8.197974121 6.948281177e-21)
(100.874109 7.704693264 6.047134749e-20)
(100.7286034 8.169768852 5.9674026e-20)
(101.0699518 8.491467317 5.051882317e-20)
(101.1712679 7.948609018 4.107413297e-20)
(102.0377024 6.413314824 4.734032481e-20)
(102.1150918 6.879216133 -8.641691715e-21)
(102.4298803 6.930744292 -1.88137285e-20)
(102.2944263 6.449388577 -1.086215769e-20)
(102.3182769 4.764968502 -6.812117071e-20)
(102.5003088 5.120705265 -7.388654151e-20)
(102.7083919 5.043406293 1.333233891e-20)
(102.4849488 4.701773854 -8.634609371e-20)
(102.0880843 3.354196166 -1.239256549e-20)
(102.2792692 3.591473786 -1.308393017e-20)
(102.3868381 3.488536386 6.824058664e-20)
(102.1795572 3.270554803 -2.571381243e-20)
(101.857324 2.451342081 -1.396074038e-20)
(101.6974898 2.295475994 -3.620680072e-21)
(101.9150799 2.356013321 3.345109579e-21)
(101.7480366 2.219278092 2.134674842e-20)
(101.2353249 1.436874103 -8.970206351e-20)
(101.4953582 1.643693944 -5.678205015e-20)
(101.537483 1.472034933 -3.178175929e-20)
(101.2762125 1.321773301 -1.627104568e-20)
(100.8880059 0.9227498466 1.104136763e-20)
(101.0803066 1.05485708 3.329988155e-20)
(101.0953298 0.9295000614 -3.735580401e-21)
(100.9092491 0.8339789583 -3.649550572e-21)
(100.5776666 0.3912373715 1.921101751e-21)
(100.8049965 0.4429096976 0)
(100.8952229 0.6427679062 -8.838790526e-23)
(100.7792226 0.6520154107 -9.937758732e-21)
(100.4157832 0.2181128325 4.272386405e-22)
(100.5633493 0.257979366 1.920928556e-21)
(100.324591 0.09680610661 -1.925379165e-21)
(100.4123562 0.1288210366 -1.927546975e-21)
(100.3416902 0.03904476222 -1.93382064e-21)
(99.9188939 -0.02503970735 0)
(99.96107014 -0.02365056674 1.901862123e-21)
(99.84335101 -0.03698172245 -7.766033955e-21)
(99.9058867 -0.06613829652 -1.916452183e-21)
(99.70676148 -0.02340319767 8.058272412e-21)
(99.79201391 -0.08942279087 -3.855082185e-21)
(99.50416599 0.06034626484 1.055078385e-20)
(99.60010997 -0.08625880816 2.966623592e-21)
(99.46596344 0.009223071721 -4.407464087e-24)
(99.48175571 0.1304664045 -7.813877764e-21)
(99.41085624 0.05798805496 -7.906268602e-21)
(99.36794455 0.1357259536 0)
(99.16036119 0.3183233704 -1.586542903e-20)
(99.19694444 0.2258750881 0)
(99.05104072 0.2197601635 -1.021930311e-22)
(98.99102885 0.3426941243 -7.199601472e-23)
(98.70502088 0.6283439922 8.194227669e-21)
(98.74431523 0.4947209275 1.22874826e-20)
(98.51920345 0.5015755806 1.657452011e-20)
(98.48728278 0.7190226084 -2.379410006e-20)
(98.41276066 0.6672726853 -2.963101455e-20)
(98.15118844 1.088396089 0)
(98.1676579 0.9840668065 1.595246581e-20)
(98.00758587 1.016155533 0)
(97.98489863 1.137314435 -3.255597493e-20)
(97.38798344 1.84874748 -6.522144732e-20)
(97.38650207 1.699383639 6.84210386e-20)
(97.16709826 1.757396429 0)
(97.15994757 1.93418075 7.071726627e-20)
(96.44552622 3.064486571 -2.084825335e-19)
(96.3962347 2.842612596 7.773108133e-20)
(96.06914914 2.96946896 -3.160365157e-19)
(96.12288099 3.239681305 -7.467511139e-20)
(95.46230625 5.104605332 -4.963799822e-22)
(95.28970836 4.80185477 5.217184818e-19)
(94.82999421 5.097733818 -2.929328374e-19)
(95.04843238 5.481395075 -8.963662976e-21)
(95.26948576 8.359827116 1.162129491e-20)
(94.77228738 8.095539961 -2.685119329e-19)
(94.29461906 8.840622354 1.345157792e-19)
(94.9756494 9.139572936 9.526160071e-20)
(97.85503067 11.69375519 0)
(97.08158725 12.01420415 0)
(97.3439696 13.12709039 2.923662849e-20)
(98.24176799 12.56128366 1.113248628e-20)
(102.0825693 11.40396053 -1.048363271e-20)
(101.8336843 12.24408315 0)
(102.6600325 12.61320412 1.756103676e-20)
(102.7460536 11.62717868 -3.663565547e-20)
(104.1002147 8.531227132 4.607257567e-20)
(104.3219017 9.217465388 0)
(104.8770336 9.062018162 1.371069057e-20)
(104.5263664 8.391809826 0)
(104.1438462 5.762636507 -1.206022302e-19)
(104.4833145 6.18631033 -1.275552887e-19)
(104.7215987 5.936055811 -1.205965908e-19)
(104.3353678 5.558251911 1.20728459e-21)
(103.4248607 3.75385497 0)
(103.7266058 3.997450352 0)
(103.814777 3.781394562 6.509461695e-20)
(103.5019295 3.576241071 3.174189935e-20)
(102.8522332 2.556517775 -3.282725034e-20)
(102.6242354 2.420968824 1.047050367e-22)
(102.8803463 2.397485983 -2.320058854e-20)
(102.6541818 2.284565893 -4.640538017e-20)
(101.8555515 1.451458587 2.605678393e-20)
(102.1902057 1.613507168 -2.115663046e-22)
(102.176229 1.36711077 1.581492051e-20)
(101.8536433 1.271697473 1.177690445e-20)
(101.3054809 0.8975212849 -1.548776071e-20)
(101.5518666 0.9932995694 -7.891132908e-21)
(101.5168557 0.8231737536 -7.892661703e-21)
(101.2922597 0.7685321175 1.20067731e-20)
(100.778156 0.3149369807 0)
(101.0327949 0.3042703134 1.273640564e-21)
(101.1966826 0.523409734 -1.061513341e-20)
(101.0888432 0.5895872792 2.633123928e-20)
(100.5491604 0.1668772199 -4.851201934e-22)
(100.7029398 0.1629156658 -1.506735377e-21)
(100.4209174 0.0709834962 -1.943895063e-21)
(100.5027762 0.07218576489 -2.200319657e-21)
(100.408634 0.0205817444 2.495701539e-21)
(99.9523486 -0.06417673014 -1.398404466e-23)
(100.0216204 -0.04520738259 6.723173002e-23)
(99.8597961 -0.1176801899 1.991565852e-21)
(99.95641015 -0.1322491209 -8.086123505e-23)
(99.69206279 -0.1508125392 -1.042022048e-20)
(99.82339825 -0.2053018884 1.57290449e-21)
(99.42686179 -0.1103671354 -9.411550501e-21)
(99.59769021 -0.2581533507 -1.584432312e-20)
(99.41092578 -0.1855565077 -1.350920245e-20)
(99.37287216 -0.033889103 -7.413856417e-21)
(99.32827507 -0.1407505825 -2.948695768e-21)
(99.2492346 -0.06295370499 3.020195158e-23)
(98.95737546 0.09367484606 1.199495828e-20)
(99.03367062 -0.00754740925 1.220636219e-20)
(98.88454916 -0.05778750971 6.020861618e-21)
(98.77293799 0.06974413796 2.078450304e-20)
(98.35656667 0.3325006918 -1.660102618e-20)
(98.45611943 0.1759497062 -1.240573234e-20)
(98.22293793 0.1230174981 -2.095615122e-20)
(98.10114411 0.3586922325 -1.415486851e-20)
(98.04526874 0.2803660604 -5.925773064e-20)
(97.62079107 0.6955061596 0)
(97.67755879 0.5755351914 0)
(97.51333086 0.5571938462 0)
(97.44369671 0.6908207828 7.193580609e-20)
(96.54684377 1.316897498 9.659010177e-23)
(96.61212749 1.13402192 -6.963377541e-22)
(96.36743092 1.116567772 2.797676894e-21)
(96.27766866 1.325627253 -7.581512202e-20)
(94.99093655 2.386257263 -1.645384955e-19)
(95.05859414 2.090974128 -1.628345168e-19)
(94.66957434 2.086226621 -1.748036967e-19)
(94.56588471 2.43297344 -1.053814278e-20)
(92.73570226 4.433894058 8.930918761e-20)
(92.74589396 3.90304735 1.345429995e-19)
(92.05710143 3.950509759 -3.829068096e-20)
(92.0012899 4.628601158 -2.186968821e-19)
(89.9027044 9.440796699 -8.321121265e-20)
(89.39841239 8.339518301 4.866156284e-19)
(87.70684994 9.275708776 6.66380536e-20)
(88.00353885 8.648781422 6.622394892e-20)
(88.97125185 10.62230755 6.52452401e-20)
(88.14463882 10.57286309 -7.720223208e-19)
(92.47634912 19.67690626 9.287076797e-21)
(93.68764006 19.50801669 9.342369968e-21)
(92.6779072 21.28840278 9.368158544e-21)
(94.22753786 20.78651413 -2.785473331e-20)
(105.859094 18.52300905 -1.520092071e-19)
(106.1041926 17.02918121 3.040579797e-20)
(107.6045021 16.80314415 -2.262532988e-19)
(106.5462184 19.36922157 -2.900168594e-19)
(108.4267261 18.36208813 -2.306063576e-19)
(108.0257308 19.02057595 -3.152786437e-19)
(108.6622014 11.22420891 3.945267075e-20)
(107.9830936 10.33052506 -1.022379954e-19)
(109.3143826 10.51866017 -1.364345015e-19)
(108.4809244 9.79379251 -2.658953669e-19)
(106.7576035 6.09902628 -1.544789051e-19)
(107.355813 6.504892816 -8.530593951e-20)
(107.5218311 5.985791902 -8.013709148e-20)
(106.8970096 5.680783577 -9.936956151e-20)
(105.0838625 3.612191333 3.690300012e-20)
(105.5201367 3.800208668 -1.10780688e-19)
(105.5202665 3.460156258 6.220584668e-21)
(105.0912206 3.329014651 7.661759675e-20)
(103.9529575 2.246532281 3.492702838e-20)
(103.6529135 2.165071692 -1.649268288e-20)
(103.9124312 2.028717687 0)
(103.6244865 1.968601919 1.773813331e-20)
(102.4854928 1.213758504 4.145621342e-21)
(102.8825953 1.282864511 2.793050079e-20)
(102.7682391 0.9893805833 -2.385554494e-21)
(102.4136698 0.9825387365 -4.317259058e-21)
(101.716353 0.7027479104 4.296658756e-21)
(102.0042353 0.7396268072 -1.740102786e-23)
(101.9026613 0.5401662144 -7.014079772e-21)
(101.6504266 0.5419622891 8.684149172e-21)
(100.9402899 0.1575313149 -1.859840864e-22)
(101.1904497 0.07471092126 -2.790786068e-22)
(101.4556775 0.2779286676 8.052765062e-22)
(101.366221 0.3717036328 6.36215688e-21)
(100.6455356 0.06800762416 -3.228278181e-21)
(100.7872819 0.008515949281 -2.362153273e-22)
(100.4819884 0.02252852892 2.412776855e-21)
(100.5456254 -0.01601375366 -2.148595052e-21)
(100.4298708 -0.007868081633 3.978050288e-22)
(100.0289057 -0.112366077 1.467417102e-23)
(100.1276198 -0.07030669189 -2.820481876e-21)
(99.92392786 -0.2176728407 -5.159152695e-22)
(100.0557673 -0.2091972068 1.225998588e-21)
(99.73391486 -0.3103761101 -4.053826325e-21)
(99.91090566 -0.3409371366 -2.668926767e-21)
(99.41855938 -0.3341065912 8.322443078e-21)
(99.66434879 -0.4609885906 -9.186377254e-22)
(99.43166513 -0.4277990128 8.761692837e-22)
(99.32810914 -0.2631221388 4.079096725e-21)
(99.32351434 -0.3943126467 8.4583667e-21)
(99.20795553 -0.3291361506 5.973220435e-21)
(98.83827841 -0.2297307175 -2.029368809e-21)
(98.9589135 -0.3243584255 3.154289704e-21)
(98.82164591 -0.4179516797 2.081529629e-21)
(98.65742159 -0.3065787943 6.313786992e-21)
(98.12723356 -0.1197747933 -1.048069561e-21)
(98.29133552 -0.2712627904 1.106115358e-21)
(98.07550594 -0.3869209416 -2.167991272e-21)
(97.8633912 -0.1615469109 -6.41406257e-21)
(97.8415471 -0.2687873435 2.262186384e-20)
(97.27599016 0.06228686097 7.170313815e-20)
(97.37625162 -0.05235593906 7.253773315e-20)
(97.22821925 -0.1219433388 3.544051104e-20)
(97.1062007 1.993344198e-06 -3.274266553e-21)
(95.96352786 0.3849584328 0)
(96.1084768 0.2093198232 1.181386503e-19)
(95.88056815 0.1118807614 8.336172921e-20)
(95.70071463 0.2994299793 0)
(93.9605514 0.9205889847 9.208526189e-20)
(94.18082693 0.6397063728 4.503134491e-20)
(93.83184631 0.4820097229 9.122770423e-20)
(93.54663613 0.7781961462 0)
(90.64817004 1.761720263 -2.123413642e-19)
(91.04540153 1.258476014 5.098077073e-20)
(90.49829124 0.9197008326 -2.700585642e-19)
(89.9191891 1.421191403 -1.047408392e-19)
(83.9948111 2.817997586 3.300272591e-19)
(84.59679519 2.192080403 5.799193008e-20)
(84.02467853 1.567680192 -6.770341429e-20)
(83.16539791 2.177077859 4.75344095e-21)
(120.6987783 23.06715954 3.618493273e-19)
(119.1269584 21.9325437 1.833889829e-19)
(121.5007667 21.34883555 -1.608407418e-19)
(119.9286711 20.58084552 1.950890226e-20)
(115.4525111 10.21086655 0)
(113.9814633 9.667183201 -2.352310997e-19)
(115.5268238 8.777917129 0)
(114.1251823 8.569242676 5.137626356e-21)
(109.8513589 5.003381619 -1.021170605e-19)
(110.7242189 5.176328522 -1.091423996e-19)
(110.573694 4.437567943 -2.088262262e-19)
(109.7609331 4.397849211 4.647222924e-20)
(106.7735987 2.674899923 -8.970916091e-20)
(107.320409 2.718229691 -2.782813524e-21)
(107.1453362 2.301716726 4.851656865e-22)
(106.6433103 2.317853089 -4.568811709e-20)
(104.9643144 1.433283087 -1.551957552e-19)
(104.6150452 1.43874928 -7.726230872e-20)
(104.8250395 1.184552266 5.955705857e-20)
(104.5046766 1.212023553 -5.846178982e-20)
(103.0096779 0.6982320919 -4.662611599e-21)
(103.4413767 0.6499585656 -2.284027682e-21)
(103.1979573 0.3484769556 7.418758347e-21)
(102.8488674 0.4498567982 1.108759021e-21)
(102.0526309 0.3377418924 -1.914557012e-21)
(102.3508193 0.2951168801 1.310490344e-20)
(102.1688052 0.09965936094 4.843251201e-21)
(101.9220235 0.1717615619 9.589584714e-21)
(101.0258298 -0.07048916875 -3.282095118e-22)
(101.2479778 -0.230441447 -1.020303727e-21)
(101.6079057 -0.07822230292 -1.034875592e-21)
(101.5635898 0.05961339575 -1.146076012e-21)
(100.6782336 -0.07363374652 1.036880705e-21)
(100.7901515 -0.1928470313 1.270868774e-21)
(100.4861729 -0.04520857035 -4.123246504e-21)
(100.5187641 -0.1291759607 1.604372762e-21)
(100.3872103 -0.04444192736 -2.035939808e-21)
(100.1562171 -0.1660824783 -1.609121717e-21)
(100.2842871 -0.09709956673 8.912434606e-22)
(100.0447767 -0.32942926 -9.372579319e-22)
(100.2098769 -0.291285076 -6.637081266e-22)
(99.84376059 -0.4891568728 4.805211649e-22)
(100.0616144 -0.485654068 -2.365131982e-22)
(99.49554287 -0.5905404732 5.369021511e-22)
(99.80920839 -0.6781843261 8.060907546e-22)
(99.54162465 -0.6947893943 4.780715717e-22)
(99.36909261 -0.5358295398 1.399152005e-21)
(99.41271064 -0.6796825765 -1.307300372e-23)
(99.26444439 -0.6366887318 -1.30748631e-23)
(98.8374583 -0.6175838395 -2.07886513e-21)
(98.99889308 -0.6917585352 0)
(98.88667379 -0.8233866826 -1.022034305e-21)
(98.67817416 -0.7437999529 -1.082238128e-21)
(98.07119112 -0.6697703055 4.347560137e-21)
(98.29180299 -0.7918514307 4.391248777e-21)
(98.11559561 -0.9595995248 1.056128725e-21)
(97.83176436 -0.7785998282 -2.324167583e-21)
(97.84863859 -0.8982758616 -3.733871642e-20)
(97.18825242 -0.7054508192 -1.837514054e-20)
(97.32664824 -0.7953031899 7.389461495e-20)
(97.20870212 -0.903738327 6.969875815e-23)
(97.04563668 -0.8139901306 1.496526693e-19)
(95.80355208 -0.7396288396 -1.606791493e-22)
(96.00858167 -0.8703638712 0)
(95.83104001 -1.02063126 0)
(95.5921959 -0.8931525647 -1.296467347e-19)
(93.77509686 -0.8271942966 1.549592883e-19)
(94.08743062 -1.006732499 4.753243112e-20)
(93.84525722 -1.233025715 1.699951269e-21)
(93.48651851 -1.073698618 6.148658672e-20)
(90.81172003 -1.284405623 0)
(91.32782139 -1.479775723 -5.106693952e-20)
(91.0555961 -1.856069037 0)
(90.49196799 -1.735833824 0)
(87.34182047 -3.259454835 -5.764332025e-20)
(87.7624418 -3.191313053 -6.229918531e-20)
(87.77832252 -3.505120813 -2.301969699e-19)
(87.42456489 -3.650602372 1.310932021e-19)
(134.6643777 8.842118579 -3.921914299e-20)
(132.9825717 9.568316759 0)
(133.5917878 7.427264609 0)
(132.1867236 8.203827421 2.602275203e-19)
(120.6828649 4.010600275 -3.613850906e-19)
(119.0716265 4.490131367 -2.707460536e-21)
(119.7139409 2.721498134 -3.41192921e-19)
(118.4222593 3.338520714 1.445239065e-19)
(112.2614453 2.104951357 0)
(113.1837155 1.850878427 0)
(112.600468 1.173144899 -9.816636709e-20)
(111.8224282 1.496350407 1.137414668e-21)
(108.0037824 0.8953265109 -1.891069338e-19)
(108.561914 0.7307899696 5.140702074e-21)
(108.1781311 0.3536377815 -1.467835064e-19)
(107.6974596 0.5513320217 -4.996868327e-20)