/*--------------------------------*- C++ -*----------------------------------*\
| =========                 |                                                 |
| \\      /  F ield         | OpenFOAM: The Open Source CFD Toolbox           |
|  \\    /   O peration     | Version:  v1912                                 |
|   \\  /    A nd           | Website:  www.openfoam.com                      |
|    \\/     M anipulation  |                                                 |
\*---------------------------------------------------------------------------*/
FoamFile
{
    version     2.0;
    format      ascii;
    class       volScalarField;
    location    "200";
    object      k;
}
// * * * * * * * * * * * * * * * * * * * * * * * * * * * * * * * * * * * * * //

dimensions      [0 2 -2 0 0 0 0];


internalField   nonuniform List<scalar> 
12556
(
36.829
36.8288
36.8288
36.8307
36.9166
36.9182
36.9193
36.9216
36.926
36.9339
36.9457
36.9592
36.9692
36.9705
36.9629
36.9507
36.9389
36.93
36.924
36.9206
36.8328
36.8298
36.8291
36.8286
36.6491
36.6493
36.6496
36.6535
36.7324
36.7396
36.746
36.7928
36.8055
36.8276
36.8604
36.898
36.9266
36.9323
36.9132
36.8799
36.8461
36.8195
36.7617
36.7479
36.6596
36.6524
36.6505
36.6495
36.4703
36.4707
36.4716
36.4772
36.5517
36.5643
36.5786
36.6287
36.6595
36.7113
36.7863
36.8678
36.9232
36.9337
36.8976
36.8278
36.7526
36.6914
36.613
36.5836
36.4914
36.4791
36.4749
36.4732
36.2934
36.2938
36.2952
36.3031
36.3737
36.3928
36.418
36.4802
36.5445
36.6534
36.7927
36.9194
37.0002
37.0109
36.9536
36.8491
36.7206
36.6012
36.4884
36.433
36.3302
36.31
36.3024
36.2994
36.1181
36.1187
36.121
36.1315
36.2009
36.2281
36.269
36.3515
36.4769
36.6689
36.886
37.0984
37.2358
37.2363
37.1235
36.9505
36.7595
36.5758
36.3986
36.3004
36.1768
36.1452
36.1323
36.1274
35.9447
35.9455
35.9491
35.9629
36.0329
36.0713
36.1354
36.2537
36.4628
36.7445
37.1076
37.5417
37.8635
37.7906
37.4989
37.1759
36.8739
36.6079
36.3527
36.1904
36.0321
35.9845
35.9642
35.9563
35.7737
35.7751
35.7804
35.7981
35.8698
35.9225
36.0175
36.1868
36.484
36.8919
37.5113
38.6095
39.3661
39.1851
38.2333
37.5723
37.0774
36.689
36.3491
36.1053
35.8968
35.8281
35.7978
35.7861
35.6059
35.6081
35.6159
35.6385
35.7136
35.7836
35.9151
36.1429
36.5254
37.0804
38.0333
40.1772
41.8133
39.4659
38.1548
37.3695
36.8176
36.3727
36.0438
35.7714
35.6768
35.634
35.6176
35.4422
35.4455
35.4562
35.4848
35.5649
35.6548
35.8258
36.1113
36.5748
37.2577
38.4348
41.5002
45.8191
40.953
38.858
37.7236
36.9816
36.4111
36.0009
35.6563
35.5322
35.475
35.453
35.2836
35.2884
35.3025
35.3378
35.4241
35.5356
35.7464
36.0842
36.6221
37.4044
38.7065
41.7467
48.482
42.264
39.5524
38.091
37.1594
36.4577
35.9714
35.5523
35.3965
35.3236
35.2953
35.1308
35.1371
35.155
35.1977
35.2914
35.4253
35.6747
36.0596
36.6673
37.5366
38.9434
41.4002
49.8085
43.2474
40.1501
38.4283
37.3297
36.5049
35.949
35.4583
35.2709
35.182
35.1469
34.9838
34.9919
35.0138
35.0643
35.1664
35.3227
35.6088
36.0384
36.7145
37.6732
39.1563
40.783
50.2728
43.9056
40.6095
38.7064
37.4747
36.5444
35.9281
35.3723
35.1554
35.0511
35.009
34.8425
34.8527
34.8794
34.9382
35.0477
35.2262
35.547
36.0202
36.7656
37.8226
39.3466
40.0433
42.0529
49.8717
44.2928
40.9229
38.9094
37.582
36.5704
35.9023
35.291
35.0483
34.9299
34.8813
34.7063
34.7184
34.7493
34.8157
34.9375
35.1403
35.4966
36.0198
36.8435
38.015
39.5683
38.3692
49.0205
49.8575
44.4528
41.0964
39.0342
37.6465
36.5783
35.8651
35.2108
34.9465
34.8159
34.7616
34.5739
34.5879
34.6229
34.6963
34.8273
35.0489
35.4344
35.9955
36.8886
38.1491
39.6935
32.9281
50.0958
49.3794
44.368
41.1365
39.0815
37.6679
36.5599
35.8129
35.1274
34.8466
34.706
34.6469
34.4442
34.4598
34.4985
34.5783
34.7179
34.9558
35.3658
35.9576
36.9072
38.2334
39.5485
28.8081
48.5842
48.5308
44.1074
41.0742
39.0581
37.6415
36.5071
35.7434
35.0379
34.7458
34.5967
34.5339
34.3159
34.3331
34.3751
34.4602
34.6074
34.8589
35.2882
35.9022
36.8883
38.2344
39.0976
25.363
47.02
47.604
43.6921
40.8944
38.9616
37.5608
36.423
35.6547
34.9403
34.641
34.4856
34.42
34.1881
34.2065
34.2513
34.3409
34.4947
34.757
35.2006
35.8283
36.8326
38.138
38.4306
22.751
45.5396
46.7129
43.2355
40.6391
38.7961
37.4336
36.3113
35.5476
34.8325
34.53
34.3712
34.3031
34.0599
34.0794
34.1266
34.2197
34.379
34.6497
35.103
35.7374
36.745
37.9663
37.6176
20.804
44.1607
45.8733
42.7807
40.3542
38.5939
37.2765
36.1794
35.4261
34.7158
34.4128
34.2516
34.1823
33.9311
33.9514
34.0004
34.0963
34.2599
34.5369
34.9964
35.6318
36.6305
37.7381
36.7291
19.3461
42.8779
45.0784
42.3417
40.0609
38.3737
37.1009
36.0327
35.293
34.5914
34.2896
34.1271
34.0571
33.8012
33.8221
33.8727
33.9707
34.1376
34.4193
34.882
35.514
36.4934
37.4669
35.8232
18.2416
41.6815
44.3226
41.9216
39.7688
38.1457
36.9144
35.8758
35.1513
34.4604
34.161
33.998
33.9276
33.6703
33.6918
33.7436
33.8432
34.0125
34.2975
34.761
35.3859
36.3371
37.1616
34.9307
17.3937
40.5616
43.6017
41.5172
39.4822
37.9154
36.7221
35.712
35.0031
34.3243
34.0278
33.8648
33.7942
33.5386
33.5605
33.6132
33.714
33.885
34.1723
34.6345
35.2492
36.1641
36.8284
34.071
16.7341
39.5098
42.9116
41.1239
39.2025
37.6859
36.5271
35.5439
34.8507
34.1842
33.8909
33.7282
33.6575
33.4061
33.4283
33.4818
33.5837
33.7558
34.0443
34.5035
35.1048
35.9767
36.474
33.2566
16.2145
38.5184
42.2483
40.7386
38.9289
37.4589
36.3315
35.3736
34.6955
34.0414
33.7512
33.5889
33.5182
33.2732
33.2957
33.3497
33.4525
33.6254
33.9144
34.3689
34.9539
35.7761
36.106
32.4948
15.8011
37.5809
41.6085
40.3599
38.6601
37.2351
36.1367
35.2025
34.5389
33.8967
33.6095
33.4477
33.377
33.14
33.1628
33.2173
33.3208
33.4941
33.7829
34.2313
34.7971
35.5636
35.7307
31.7888
15.4693
36.6917
40.9891
39.9868
38.3952
37.0147
35.9437
35.0316
34.3818
33.7509
33.4665
33.3051
33.2343
33.0068
33.0298
33.0848
33.189
33.3624
33.6504
34.0912
34.635
35.3407
35.3526
31.1389
15.2015
35.8458
40.3878
39.6186
38.1334
36.7977
35.7531
34.8616
34.2247
33.6045
33.3227
33.1617
33.0908
32.8738
32.897
32.9525
33.0572
33.2306
33.5171
33.949
34.4681
35.1095
34.9749
30.5437
14.9849
35.039
39.8025
39.2546
37.8744
36.5842
35.5653
34.693
34.0682
33.4581
33.1786
33.0178
32.9468
32.7412
32.7646
32.8204
32.9258
33.0988
33.3834
33.8049
34.2971
34.872
34.6002
30.0005
14.8103
34.2678
39.2318
38.8947
37.6181
36.3745
35.3808
34.5261
33.9126
33.3118
33.0344
32.8739
32.8026
32.6091
32.6327
32.6889
32.7948
32.9673
33.2493
33.6593
34.1225
34.6302
34.2304
29.5057
14.6713
33.5291
38.6742
38.5383
37.3646
36.1686
35.1999
34.3612
33.758
33.1661
32.8906
32.7302
32.6587
32.4776
32.5014
32.558
32.6643
32.8362
33.115
33.5124
33.9453
34.3857
33.8668
29.0554
14.5631
32.8202
38.1287
38.1856
37.1141
35.9671
35.0232
34.1985
33.6048
33.0211
32.7473
32.5869
32.5152
32.3469
32.3709
32.4279
32.5346
32.7056
32.9807
33.3647
33.7662
34.1401
33.5108
28.6459
14.4826
32.1391
37.5945
37.8363
36.8668
35.7704
34.8512
34.0383
33.453
32.877
32.6046
32.4442
32.3722
32.2171
32.2413
32.2986
32.4057
32.5756
32.8465
33.2164
33.5864
33.8947
33.163
28.2731
14.4279
31.484
37.071
37.4905
36.623
35.579
34.6845
33.8808
33.3028
32.7338
32.4628
32.3024
32.2301
32.0881
32.1125
32.1702
32.2776
32.4462
32.7126
33.0681
33.4068
33.6508
32.8242
27.9338
14.3977
30.8536
36.5576
37.1484
36.3832
35.3932
34.5236
33.7262
33.1542
32.5917
32.3219
32.1613
32.0886
31.961
31.9856
32.0436
32.1511
32.3176
32.579
32.9204
33.2287
33.4094
32.495
27.6247
14.3917
30.2469
36.0541
36.8102
36.1477
35.2136
34.369
33.575
33.0075
32.4515
32.183
32.0222
31.9492
31.8409
31.8656
31.924
32.0315
32.1909
32.447
32.7745
33.053
33.1718
32.1757
27.3433
14.41
29.6633
35.5604
36.4764
35.9169
35.0404
34.2211
33.4285
32.8639
32.3202
32.0527
31.8916
31.8182
41.4001
46.1472
42.1672
41.7657
49.2777
46.6467
41.4628
50.6635
49.5311
40.8704
51.1817
50.7608
40.0971
40.2101
41.6576
51.2674
51.2101
38.8175
45.1026
40.4203
48.6501
51.523
51.2181
39.9302
39.2902
41.6584
39.1432
50.1242
43.8121
45.3718
41.3419
39.9645
38.6439
41.1623
40.7731
53.0734
54.5158
48.2305
42.9823
41.7888
38.8865
41.066
41.1696
41.6602
42.8984
43.9019
50.8271
51.2095
49.6994
44.174
43.323
39.1055
40.7314
41.0333
41.1908
39.5202
41.346
51.1794
50.6292
39.3009
40.2667
40.6804
40.5049
35.293
37.3628
39.9992
52.4634
51.9453
39.5211
39.5062
40.1973
39.6456
32.2826
33.182
35.6375
45.8346
45.5579
45.1613
46.3098
42.228
44.8919
54.4849
50.5553
44.492
49.3258
53.4985
44.0334
44.85
41.7746
45.3389
44.0586
46.2922
45.4908
51.2976
52.9269
48.0006
53.3262
52.1512
53.6139
53.4153
47.8306
41.531
42.7372
41.6198
42.4066
40.7404
43.9712
42.5183
50.5748
50.8435
50.2963
52.0092
52.0231
52.091
52.0258
50.1392
37.4795
39.4055
41.115
38.5935
36.3862
40.6254
38.7168
51.8659
51.27
33.2698
35.1684
40.4566
41.5839
34.0472
32.7326
36.2718
34.1637
42.3927
52.7318
52.531
39.6761
41.7259
32.2398
39.5866
42.7293
33.0894
61.2665
32.6672
33.0161
42.3382
38.3519
40.6828
39.6475
40.8305
44.0594
41.8514
57.9298
48.196
41.7406
44.9511
45.3709
44.6933
50.2532
44.9518
44.4035
47.1812
45.0159
44.6687
44.9636
53.1912
52.8654
45.3181
44.2839
41.004
50.3029
43.9908
50.2424
43.3207
48.6529
43.9072
44.408
42.4051
51.0504
52.3001
52.5088
52.0416
52.2648
50.9901
38.9945
46.5397
40.8341
40.6446
40.3257
41.8733
43.1005
40.9093
40.7249
58.8217
47.567
57.4455
46.6655
56.1725
46.6191
54.1641
54.255
50.8633
50.8926
41.5195
43.8736
50.9277
42.1938
42.3906
45.1149
42.3174
50.8527
36.4173
39.9751
39.6125
46.401
45.3557
45.7108
32.5763
37.7626
37.2748
38.3924
37.9267
32.6468
53.4817
50.7323
45.8083
50.8712
52.2509
47.8394
50.592
45.9857
43.4843
48.1165
43.358
52.0364
48.8827
43.8852
51.1706
53.5086
53.3203
53.0736
44.7838
42.3413
44.6891
46.0281
44.9432
47.4511
42.5994
44.6194
45.9076
52.0285
52.1442
52.7407
51.707
51.2583
52.1338
51.8311
52.6585
53.9223
50.2062
49.3532
51.0822
50.452
53.9102
41.6395
41.5299
43.3351
43.2424
50.9888
45.3408
50.9712
37.7017
37.5337
39.7012
39.5756
42.5275
44.1018
51.5315
42.1879
41.4493
34.3278
38.9698
38.5408
39.4888
39.1048
34.4414
39.0293
33.4294
33.3414
35.4696
35.3528
47.9439
39.5405
47.7776
46.7491
37.1166
36.3104
33.9371
37.1039
38.9398
41.806
32.314
54.3122
42.5703
52.1718
32.2993
41.1939
45.3105
39.8249
55.1235
39.9967
40.839
39.6812
38.5861
39.3812
37.5283
32.5549
41.4835
50.4111
50.997
51.4413
51.6248
41.291
43.2869
49.0613
48.1093
39.7225
53.4281
53.2779
45.3624
42.1846
41.6752
43.5086
46.2326
42.2133
42.3033
53.5664
56.017
55.3701
54.4956
50.7826
46.2813
46.3624
48.8098
48.1624
51.0083
40.3747
41.5933
41.3242
41.9321
41.6807
40.5249
40.4271
40.0918
36.5388
32.4309
34.7904
34.4649
56.2168
42.3711
45.3873
54.1746
56.7149
56.2223
51.4803
47.4907
46.1335
49.025
47.9077
51.833
51.5895
49.7864
49.0827
52.5528
42.0649
42.2412
42.0127
37.9988
38.3983
41.0824
46.3485
46.1999
50.8934
51.9888
52.5734
52.5523
51.8205
52.3979
52.2141
52.536
52.4433
51.7965
38.4486
40.845
40.5349
41.2319
40.945
38.586
38.227
34.8999
35.1642
34.206
34.2493
36.7685
40.2455
37.3311
37.8643
35.2605
35.5721
39.0862
51.6159
44.3474
46.4528
49.9803
39.9251
33.7638
32.9385
35.9291
34.0625
34.182
33.8109
34.7101
46.0826
39.4385
35.5712
34.6536
34.36
34.0341
32.1727
39.4365
38.366
43.8483
33.2704
64.0241
39.9554
38.8029
45.7568
32.4832
32.8305
54.9906
54.2422
53.6486
45.3814
45.4032
39.8679
39.8662
47.5908
49.0358
48.6329
46.3083
54.632
46.8045
55.8839
47.3022
43.0888
41.2731
43.1282
44.3291
45.9797
46.0195
42.4617
39.4275
46.8092
50.4645
42.3905
45.5963
52.3228
39.6774
41.5361
38.5517
39.2742
50.6227
59.2889
54.062
51.5378
56.4578
54.7353
50.6053
47.6969
53.0157
54.1468
53.7703
53.7468
54.4552
55.1345
54.3849
47.0131
46.3829
50.7943
47.1297
47.6335
45.9775
46.9228
47.7251
50.9702
47.9554
47.2544
42.0099
42.3098
42.0384
47.2909
46.705
43.5617
45.8982
45.4768
46.4742
46.0413
43.1461
42.4635
40.5027
39.9756
35.3141
34.8954
32.4486
32.8616
35.7805
35.4365
52.4436
52.0177
51.6686
48.4133
48.6417
47.672
48.2752
51.9114
49.2377
48.4725
48.159
48.6513
48.5363
49.664
51.1526
46.6023
47.4366
53.2708
53.4364
56.7824
56.597
53.9804
57.4104
57.7731
57.4586
57.333
56.8883
57.8881
57.527
52.1313
56.3232
56.8543
41.3701
44.7793
43.895
45.5202
44.9961
41.6092
42.9385
42.4551
43.6527
43.1043
45.9592
47.4365
46.9729
48.0238
47.5877
46.3199
43.4306
46.1749
45.6853
46.8155
46.3369
43.7149
50.7107
50.0224
51.6948
52.4551
51.6389
50.9228
38.1377
37.7349
38.7669
38.2799
37.0915
36.7343
37.6037
37.2161
41.67
41.1958
42.2986
41.828
40.2358
39.0049
41.0366
40.5015
44.9716
44.896
45.3716
45.0725
45.8353
44.986
45.7066
44.8941
44.8543
34.5485
34.815
38.1043
34.6939
34.4734
34.9395
34.7616
34.4125
36.9344
34.2667
34.4508
36.1951
37.0083
40.1005
35.9749
35.5453
36.6171
36.2067
35.2144
35.0053
35.4824
35.2845
39.2089
35.6837
36.0497
45.959
41.6824
45.7734
44.0745
45.6875
41.5746
50.5584
39.5667
50.1485
47.8106
33.6796
33.0021
33.8827
34.0165
35.8143
34.9222
33.7866
33.8474
47.6601
32.2109
33.9039
33.1767
59.287
61.424
33.3957
59.9706
53.7984
40.1159
32.4261
54.5511
45.5797
60.3466
46.8925
32.8215
41.3505
39.5315
38.4424
47.4433
47.0813
50.3157
45.4056
45.0934
46.8947
39.6331
41.6405
39.7912
52.5395
52.8242
51.2635
43.7707
43.0912
46.2877
53.2584
43.8903
43.97
40.3935
40.8064
42.7645
48.8677
52.8599
54.6945
43.3529
42.7496
42.5783
42.9437
42.802
43.4949
41.8247
40.8859
41.6492
46.7327
47.5984
52.1689
36.2264
35.8921
32.9404
55.1837
56.0329
51.7573
42.5161
42.3139
42.2376
42.0767
39.6483
40.1396
40.3716
41.2852
42.8493
33.6534
36.7061
36.3398
45.1648
44.1014
40.927
33.1486
33.0885
32.8025
43.3785
47.9732
46.5341
39.1946
42.8438
42.1111
33.1399
32.606
33.2602
33.2141
32.9531
57.2845
45.1727
42.2296
43.0745
47.7381
40.1836
40.2596
45.3288
49.8617
45.6529
44.1775
46.4558
43.5051
40.8854
40.2563
52.02
52.2226
52.8694
49.6578
51.4616
41.7491
42.0984
45.1557
57.9835
56.1867
55.3878
59.6513
59.0252
41.6361
43.0385
42.5016
45.1994
45.0341
43.1933
47.8972
47.4551
42.074
44.7811
43.0347
43.1921
44.368
40.8694
41.481
53.2046
54.0017
51.1576
51.1439
50.5021
50.341
48.2194
48.6584
48.3731
50.1687
49.9851
50.3012
45.3935
46.3197
50.8115
52.2364
55.2165
53.9241
54.4797
54.8616
53.5246
40.896
41.6958
41.4773
44.1176
43.8847
42.0903
39.9152
39.7243
41.2433
41.0041
45.281
46.5768
46.3202
48.1101
47.8547
47.0679
42.8664
44.5904
44.3524
46.0654
45.8133
44.3062
39.0858
39.5049
41.9688
41.1948
38.5344
38.9478
42.1458
42.5837
43.6125
38.4956
38.3362
39.5431
39.3611
37.5169
38.1814
38.0316
42.9515
41.5067
41.9981
45.8046
45.9263
43.4411
43.7523
45.5096
46.0015
46.1753
50.9059
46.209
46.4667
37.1851
36.8319
33.843
34.7504
37.6024
37.2926
32.8439
32.9034
33.5139
33.2445
32.7428
32.7882
48.1961
32.8642
32.3182
32.6517
97.8867
34.7839
39.7002
52.2321
49.2855
33.2998
33.2917
32.3416
55.062
56.3414
56.2044
50.0354
32.3219
33.3161
33.305
42.3049
38.6169
38.5343
46.8833
47.5072
43.6517
42.8837
40.4829
53.9665
54.1952
55.8547
41.8526
45.9317
44.7271
46.3575
46.3136
42.5047
43.2098
43.7335
51.277
52.9349
53.152
52.4572
52.7079
55.808
55.3211
55.497
54.9608
55.1433
55.581
48.6164
48.4006
48.5909
48.1545
48.2464
48.4026
56.5533
55.9289
55.9779
55.6665
55.818
56.4033
49.5139
49.231
49.4573
48.798
49.0119
49.3178
51.9963
52.2108
51.5729
51.762
34.9847
36.0861
35.9796
34.2224
34.2991
34.2024
34.5184
34.4038
34.2371
49.2307
49.2414
47.1054
48.6793
33.5291
33.5524
33.4911
33.5092
33.7654
32.8706
33.0467
33.0425
34.1079
33.9358
33.8511
34.1112
34.0227
34.1489
33.4678
33.475
33.3322
33.4897
34.0656
48.5879
48.4351
44.5479
49.0842
33.1743
32.486
42.9373
32.1788
32.3791
32.323
33.1843
64.2545
63.7106
62.6624
62.9945
59.4664
33.2755
33.2791
32.5446
32.8897
56.7766
57.876
56.584
55.7857
54.7336
52.1821
57.1656
55.8431
45.3805
45.5405
47.7265
44.0654
45.3997
49.4423
48.0775
53.313
49.0358
50.8192
55.5818
56.1739
52.4749
54.8631
57.0968
45.4856
46.31
45.9014
48.3608
51.3615
51.5797
49.9786
43.3831
49.1075
47.1979
51.614
51.007
44.4832
46.3831
47.8171
52.7945
48.9969
44.0113
45.1021
57.9502
56.8628
58.476
55.815
57.4086
58.2952
58.6951
58.3354
53.9029
53.7407
53.9589
53.3473
53.523
53.724
54.8842
54.5743
54.7718
54.1685
54.3736
54.6414
46.7778
47.9912
48.0807
47.3101
47.4954
46.2717
46.9742
46.839
46.6587
47.9537
48.2235
47.6812
48.1742
48.1414
48.1569
48.193
47.482
44.653
43.7795
41.7915
45.4169
45.4753
45.3954
42.7013
45.1071
45.0519
42.902
42.9526
44.1133
52.8489
51.5839
49.3285
48.9772
48.5534
49.9985
49.7913
49.5821
55.4731
55.3953
52.9257
56.5807
56.8721
53.5083
55.2002
55.4217
56.6914
55.8727
55.822
55.9454
55.9094
56.6222
57.5368
57.6329
57.2358
58.7812
58.7871
58.4943
58.6799
57.1185
57.9667
58.7938
59.0557
58.0015
43.0533
42.5345
41.1451
41.8489
43.6492
43.3906
40.3266
40.1164
40.7711
40.5451
47.0867
46.8317
45.6157
46.6905
47.5996
47.3435
45.0772
44.8331
43.145
44.0039
45.5647
45.3205
50.4869
50.1609
50.4052
49.6864
49.921
50.2239
51.3983
51.1278
51.3291
50.6538
50.8994
51.1781
38.0007
37.0727
37.1907
36.8359
36.955
37.8672
38.587
37.5697
37.7047
37.3119
37.4382
38.4285
36.9701
36.155
36.2583
35.9543
36.0547
36.8514
37.4733
36.5959
36.7161
36.366
36.4787
37.3436
38.8289
38.6598
41.5122
40.1826
40.3485
39.8551
40.0185
41.3543
39.1796
39.0021
37.6167
37.5163
39.8404
38.5523
38.9366
37.8389
37.9756
39.3593
40.8742
39.5307
39.6931
39.1809
39.3649
40.7018
37.887
37.7479
45.1446
45.544
45.6218
44.1163
44.5771
45.1944
46.4755
46.3311
46.7448
46.6324
45.4427
44.8575
45.2454
44.8538
46.0908
45.7501
44.8228
34.6393
35.6451
35.5077
35.8729
35.763
34.728
34.6202
34.5448
34.8782
34.823
34.403
34.6165
34.3071
34.8416
34.6551
35.3293
35.0811
34.3442
35.6952
35.6621
35.5332
35.6123
36.4974
35.7562
35.8546
35.5774
35.6628
36.3682
35.1438
35.0738
35.4186
35.3527
45.6769
41.9481
42.4601
41.1593
41.5138
45.202
44.9427
45.4117
43.0771
43.9362
45.65
50.2289
44.4791
45.6225
42.4607
43.4506
49.6158
33.5504
33.5261
33.5647
33.5651
32.7772
32.7241
33.1319
33.4507
33.4846
33.4984
33.4716
33.9247
33.6152
33.5436
33.7693
33.6906
33.9703
33.8049
33.3669
33.3308
33.4771
33.4172
33.8201
48.2361
32.2726
32.2275
32.3589
57.741
74.8673
76.0816
69.2949
71.3482
59.5064
33.7434
57.6763
49.9498
51.4922
32.3784
33.2763
33.2715
54.9597
57.5184
57.9276
53.1428
55.3329
60.2665
57.864
48.3922
55.603
53.4977
33.6764
33.3909
32.4472
36.6685
36.686
36.8006
36.6936
36.7237
36.8194
36.7362
36.7813
36.849
36.7981
36.8508
36.8862
36.8672
36.9083
36.9194
36.9174
36.9291
36.9334
36.9274
36.9061
36.9215
36.8947
36.8507
36.8911
36.8347
36.7865
36.8563
36.7717
36.7321
36.827
36.5156
36.5531
36.6502
36.5695
36.6338
36.6962
36.6605
36.7527
36.766
36.784
36.8721
36.8488
36.8977
36.9578
36.9133
36.9707
36.9851
36.9357
36.9817
36.949
36.9104
36.9315
36.8636
36.8467
36.8373
36.7508
36.7703
36.7215
36.6416
36.7051
36.3813
36.4561
36.525
36.489
36.6137
36.6216
36.6596
36.8034
36.7581
36.8525
36.994
36.8908
37.0363
37.1342
36.9861
37.1539
37.1685
37.0152
37.1591
37.0965
36.9733
37.0665
36.9577
36.8782
36.9161
36.7865
36.7543
36.7433
36.6165
36.628
36.2751
36.4057
36.4381
36.4616
36.6489
36.6182
36.7185
36.9523
36.8304
37.0375
37.3054
37.0491
37.3929
37.6034
37.2131
37.6424
37.6389
37.249
37.6029
37.4426
37.1591
37.379
37.1743
36.9979
37.1053
36.9025
36.8071
36.8374
36.6531
36.621
36.2009
36.4002
36.4012
36.4764
36.7438
36.6673
36.8495
37.2347
37.0086
37.3923
37.9955
37.431
38.2462
38.9942
37.8142
39.0733
38.8871
37.8428
38.7142
38.1689
37.5794
38.0057
37.58
37.2557
37.455
37.1189
36.9465
37.018
36.7455
36.6707
36.1524
36.4145
36.4026
36.5139
36.881
36.7753
37.0324
37.6303
37.3269
37.9051
39.4399
38.2655
38.9938
39.6927
38.7659
40.4901
40.4663
39.3997
39.8207
39.3917
38.927
39.1169
38.2191
37.7181
37.9934
37.4421
37.19
37.2889
36.8945
36.7777
36.1186
36.4384
36.4198
36.5625
37.0248
36.918
37.2165
37.9881
37.7301
38.1521
38.5636
38.4117
40.4143
41.0618
40.7552
43.3783
41.8102
40.7938
40.5842
39.0375
38.4124
38.6782
37.8506
37.5383
37.632
37.0892
36.9399
36.0909
36.4644
36.445
36.6106
37.15
37.0581
37.3701
38.2407
38.0594
38.5098
38.9938
38.9074
41.5921
42.4881
42.3871
46.9847
44.4189
43.5118
41.9657
39.8705
39.2512
39.3859
38.2859
37.9594
38.0008
37.305
37.1423
36.0656
36.4903
36.4709
36.6561
37.2612
37.1787
37.5039
38.4515
38.2949
38.7678
39.2939
39.2241
41.7235
42.4832
42.5848
49.1134
46.165
45.6324
43.0338
40.5907
40.0639
40.0126
38.6915
38.3917
38.3488
37.5156
37.359
36.0435
36.5183
36.4971
36.7025
37.3719
37.2885
37.6381
38.6614
38.5036
38.9991
39.5174
39.4708
41.3341
41.6326
41.8276
50.0644
47.0491
46.7928
43.769
41.1469
40.7465
40.5084
39.0303
38.7836
38.6436
37.6997
37.5648
36.0247
36.5501
36.526
36.7526
37.4908
37.4009
37.7843
38.8759
38.715
39.2087
39.7556
39.6342
40.6937
40.3982
40.6578
50.3115
48.0705
47.9675
44.218
41.5293
41.2588
40.8584
39.2829
39.1021
38.8662
37.8422
37.7396
36.0238
36.6052
36.5587
36.8293
37.6487
37.5221
37.9757
39.1304
38.9298
39.3942
39.8828
39.8441
39.8764
38.7233
39.0857
43.3047
50.2698
49.3582
49.9171
45.5925
45.4759
44.4324
41.7486
41.5989
41.0657
39.444
39.3317
39.0104
37.9352
37.8701
36.0028
36.6344
36.6146
36.8793
37.7663
37.6812
38.1196
39.3146
39.1826
39.6151
39.9312
39.9616
38.1795
35.1258
35.9785
49.5317
53.1748
53.4246
49.5388
45.5033
45.6029
44.4045
41.812
41.7804
41.1392
39.5168
39.4708
39.0783
37.9781
37.9504
35.9688
36.6423
36.6389
36.9061
37.8493
37.791
38.2184
39.3747
39.3458
39.6167
35.775
37.9652
29.8001
43.1759
43.4816
48.979
49.9677
50.7702
48.7594
45.1964
45.4485
44.1939
41.7506
41.8056
41.0979
39.5052
39.5202
39.0693
37.9659
37.9794
35.918
36.6206
36.64
36.8968
37.8748
37.8631
38.2445
39.2092
39.3571
39.2337
32.7958
35.0116
26.1413
42.2431
42.978
47.4056
48.8368
49.6847
47.8344
44.7063
45.0839
43.8029
41.562
41.7178
40.9492
39.4203
39.4928
38.994
37.9003
37.9562
35.8487
36.568
36.6105
36.85
37.8243
37.8691
38.1703
38.8485
39.1342
38.6139
30.1458
32.0968
23.3333
41.1188
41.9715
45.9008
47.7516
48.5599
46.9309
44.1721
44.574
43.3507
41.2818
41.4976
40.7072
39.2533
39.3847
38.8421
37.7767
37.874
35.7618
36.4875
36.5505
36.7698
37.7094
37.8013
38.0155
38.3574
38.7366
37.8311
27.8985
29.546
21.2378
39.965
40.8303
44.4967
46.7302
47.4905
46.0789
43.6456
44.039
42.8935
40.9686
41.2054
40.4271
39.0424
39.2037
38.647
37.6165
37.7395
35.6597
36.3835
36.4637
36.6617
37.5433
37.6725
37.8
37.7715
38.2188
36.9547
26.0284
27.397
19.6721
38.8424
39.6807
43.1908
45.7703
46.4848
45.2735
43.142
43.5175
42.45
40.6481
40.8888
40.1347
38.8107
38.986
38.4301
37.4348
37.5729
35.5448
36.2599
36.3545
36.5299
37.3367
37.4953
37.5385
37.1247
37.6142
36.0494
24.4811
25.6129
18.4897
37.772
38.57
41.9737
44.8666
45.5394
44.5083
42.6623
43.0202
42.0253
40.3309
40.5684
39.8417
38.5708
38.7514
38.2033
37.241
37.3874
35.4191
36.1195
36.2265
36.3781
37.0981
37.2801
37.2411
36.4515
36.9579
35.1514
23.2013
24.1373
17.585
36.7587
37.5139
40.8355
44.0128
44.6489
43.7791
42.201
42.5457
41.6174
40.0215
40.253
39.5536
38.3289
38.5105
37.9733
37.0408
37.1915
35.2844
35.9648
36.0824
36.2092
36.8332
37.0344
36.9144
35.7742
36.2821
34.2819
22.1415
22.9166
16.8835
35.8008
36.5148
39.7675
43.2021
43.8065
43.0818
41.7529
42.0881
41.2217
39.7207
39.9457
39.2721
38.0886
38.2689
37.7434
36.838
36.9904
35.1419
35.7973
35.9243
36.0252
36.5462
36.7637
36.5646
35.1059
35.606
33.4553
21.2627
21.9051
16.3327
34.8943
35.5702
38.7617
42.4289
43.0058
42.4122
41.3153
41.6428
40.8347
39.4272
39.647
38.9971
37.8515
38.0293
37.5157
36.6348
36.7873
34.9925
35.6184
35.7539
35.8278
36.241
36.4717
36.1993
34.4558
34.9414
32.6798
20.5343
21.0664
15.8954
34.0346
34.6758
37.8113
41.6882
42.2411
41.7668
40.8868
41.2076
40.4544
39.1391
39.355
38.7273
37.6181
37.7931
37.2911
36.4327
36.5843
34.8372
35.4291
35.5723
35.6182
35.9229
36.1628
35.8253
33.8302
34.2969
31.9596
19.932
20.3714
15.5451
33.2171
33.827
36.9105
40.976
41.5079
41.1425
40.4661
40.7812
40.08
38.8549
39.068
38.4615
37.3884
37.5606
37.0698
36.2327
36.3827
34.6763
35.2302
35.3805
35.3978
35.5966
35.8422
35.4476
33.2334
33.6781
31.2957
19.4369
19.7974
15.2627
32.438
33.0195
36.0542
40.2889
40.8023
40.537
40.0524
40.3623
39.7106
38.5739
38.7846
38.199
37.1623
37.3318
36.852
36.0354
36.1834
34.5107
35.0232
35.1796
35.1685
35.2661
35.5146
35.0695
32.6677
33.0889
30.6869
19.0338
19.3265
15.0343
31.694
32.2495
35.2381
39.6243
40.1211
39.9479
39.6447
39.9502
39.3457
38.2957
38.5044
37.9393
36.9395
37.1065
36.6377
35.8411
35.9868
34.3406
34.8093
34.9707
34.9324
34.934
35.1834
34.6938
32.1342
32.5311
30.1308
18.7106
18.9442
14.85
30.982
31.5137
34.4584
38.9799
39.4618
39.3737
39.2425
39.5439
38.9847
38.0201
38.2268
37.6823
36.7202
36.8846
36.4269
35.6502
35.7933
34.1669
34.5903
34.7554
34.6915
34.6026
34.8513
34.3226
31.6329
32.0056
29.6242
18.4573
18.6392
14.7026
30.2997
30.8094
33.7118
38.3538
38.8221
38.813
38.8452
39.143
38.6275
37.7471
37.9519
37.4281
36.5046
36.6662
36.2201
35.4632
35.6034
33.9903
34.3677
34.5353
34.4475
34.2735
34.5203
33.9573
31.1628
31.5121
29.163
18.2656
18.4019
14.587
29.645
30.1342
32.9957
37.7444
38.2004
38.2646
38.4526
38.747
38.2739
37.4767
37.6795
37.1768
36.2929
36.4515
36.0174
35.2805
35.4174
33.8116
34.1429
34.312
34.2021
33.9482
34.1921
33.5992
30.7228
31.0497
28.7436
18.1283
18.2242
14.4998
29.0164
29.4862
32.3079
37.1506
37.595
37.7277
38.0645
38.3555
37.9237
37.2093
37.4099
36.9287
36.0855
36.2409
35.8195
35.1027
35.2358
33.6318
33.9172
34.0869
33.9565
33.6277
33.8679
33.2493
30.3113
30.6169
28.3619
18.039
18.0992
14.4386
28.4125
28.8639
31.6465
36.5713
37.005
37.2016
37.6807
37.9685
37.577
36.945
37.1432
36.684
35.8828
36.0346
35.6266
34.9302
35.0592
33.4521
33.6921
33.8612
33.712
33.313
33.5487
32.9082
29.9266
30.2122
28.0144
17.9922
18.0209
14.4023
27.8323
28.266
31.0101
36.0057
36.4292
36.6857
37.3013
37.5858
37.234
36.6842
36.8798
36.4431
35.6854
35.8332
35.4394
34.7638
34.8882
33.2735
33.4687
33.6364
33.4699
33.0049
33.2355
32.5764
29.5672
29.8339
27.6979
17.9828
17.9837
14.3901
27.2753
27.6917
30.3976
35.4533
35.867
36.1798
36.9264
37.2075
36.8948
36.4272
36.6198
36.2064
35.4936
35.6371
35.2581
34.6038
34.7233
33.097
33.2481
33.4136
33.2312
32.704
32.9291
32.2546
29.2314
29.4805
27.4097
18.0065
17.9828
14.402
26.7411
27.1404
29.8083
34.9136
35.3178
35.6836
36.5563
36.8338
36.5598
36.1744
36.3638
35.9743
35.3076
35.4467
35.0832
34.4505
34.5649
32.9347
33.044
33.1939
33.0098
32.4231
32.6301
31.9541
28.9234
29.1504
27.1504
18.0578
18.0139
14.4383
26.2356
26.6119
29.2506
34.4014
34.7814
35.2129
36.2075
36.465
36.2452
35.9403
36.1122
35.7605
35.1391
35.2623
34.9254
34.3137
34.4134
42.2739
42.1437
41.2866
45.6195
46.9666
48.0214
42.4631
43.1102
42.7351
42.6151
42.6867
41.78
48.9966
50.912
51.2662
48.3394
49.1851
47.1173
41.8897
42.0653
41.5207
50.557
51.9529
51.9877
51.365
51.609
49.758
40.7413
40.9817
40.9549
51.1459
51.9739
52.0008
51.7439
51.7995
50.8461
39.2012
39.5328
40.2558
40.0267
38.9818
39.0811
44.2856
43.8681
41.2882
51.2712
52.884
53.0575
52.0243
52.0474
51.2339
36.2123
36.8031
39.0644
44.2015
38.4337
38.73
39.3691
38.6803
40.2154
51.4781
51.2185
46.7536
51.0921
53.2673
53.257
53.1111
53.2403
51.1148
41.5392
40.059
39.2042
51.3755
48.9134
54.525
38.9991
39.9318
40.3981
52.4212
52.2745
41.1963
41.4179
41.9062
39.317
40.3698
40.0457
49.6854
50.6235
51.2175
44.4289
45.5528
44.7058
43.1879
42.1575
43.9011
40.8826
41.6387
42.1939
40.5282
41.0774
40.4192
39.1505
39.0741
38.5789
41.075
39.56
39.6969
39.359
39.5129
41.0108
53.2301
52.7498
52.5165
55.147
55.0586
54.5282
45.4233
44.6916
47.3288
42.6128
43.7037
44.1349
42.7296
43.2351
42.2144
39.4183
39.3593
38.828
41.1405
39.8708
39.9305
39.7381
39.8431
41.1558
42.3193
42.4457
41.695
43.0561
43.0509
42.9392
43.6499
43.5573
43.7691
50.7991
49.5098
49.5411
49.9318
49.8114
51.1303
46.6867
46.3163
49.2852
43.9186
45.1912
45.4672
44.5262
44.8784
43.6355
39.5987
39.56
39.0533
40.8735
39.9843
40.0035
39.945
39.9761
40.9172
41.3548
41.5652
41.2642
39.8699
40.922
40.7684
41.7931
41.6508
41.1539
51.0926
49.2966
49.4459
47.3644
47.7423
50.6954
39.8313
39.7812
39.2555
40.4618
40.0078
40.0192
40.0088
40.005
40.5203
40.0324
40.3086
40.6043
35.8106
38.0779
38.0414
39.2393
39.0568
37.0127
39.4102
39.4405
40.4211
52.2445
47.8856
48.7325
50.8006
50.9449
52.0221
39.9525
39.8962
39.4538
39.9047
40.033
40.0382
40.0223
40.0307
39.9815
38.2065
38.5969
39.8201
32.3336
32.6354
32.5629
34.1811
34.0798
33.1005
27.9044
31.1277
37.1342
45.544
39.896
35.6738
38.7428
38.9039
44.8312
45.3984
47.1202
46.3581
47.679
47.8591
46.2603
42.6191
43.0563
42.56
45.9712
45.5741
44.5868
54.4259
55.2678
55.2207
51.7537
52.231
50.9746
45.3498
46.5843
45.0652
49.9722
48.6809
48.1036
51.2731
50.9266
52.9643
44.4131
43.1052
42.9873
43.273
43.1428
44.5309
41.788
42.6956
42.5624
45.183
45.243
45.6606
43.3012
43.7353
44.326
46.2254
47.2805
47.5904
45.7943
46.1883
45.6373
51.3906
50.206
50.0655
52.291
52.0866
52.7885
50.2815
50.7748
48.4725
53.0715
52.8437
52.7791
52.9955
53.007
52.3518
53.8402
51.8577
51.5838
52.751
52.6654
53.6855
47.2987
49.435
50.0942
41.7119
42.0674
41.932
42.8238
42.7051
42.5735
41.5733
42.1206
42.2731
42.2952
41.8334
41.969
40.0544
40.1832
40.8558
43.7025
42.7287
43.1588
42.1117
42.2598
42.632
50.5317
46.8899
47.2474
49.5647
49.5857
50.8641
51.8591
51.9373
50.435
51.9971
52.8431
52.8603
52.5573
52.573
51.9944
51.9424
52.9659
52.9824
52.8795
52.8993
51.7303
49.9608
51.6729
51.8242
37.8499
39.5975
39.4194
40.6121
40.4535
39.0631
41.0365
41.0593
41.2829
38.4711
37.4163
37.5384
35.1764
35.2853
36.5039
40.5059
39.7877
39.9242
37.6612
37.7842
38.8403
51.7836
50.502
50.6526
49.6034
49.7497
51.3591
33.3704
34.4113
34.2889
37.97
37.7005
34.8508
40.3067
39.6379
39.9371
33.9455
33.2301
33.3165
36.158
34.969
35.0722
33.4099
33.5099
34.3083
52.5966
50.0437
50.749
49.0086
49.7954
52.7272
39.4408
39.5085
39.4355
45.4775
32.1836
32.3014
32.4969
32.436
32.2042
39.2959
37.3981
38.0745
40.3161
40.6392
43.1102
60.9448
60.0105
66.3387
41.9557
39.7184
40.0047
38.81
38.6967
38.2582
40.3386
39.1045
39.3034
38.7766
39.0293
40.1922
41.5954
41.3458
40.6338
43.2385
41.9628
42.3966
41.455
41.8073
42.9093
50.0669
52.4315
50.2456
42.5786
42.561
41.6763
45.2149
43.3573
43.303
43.2056
43.3502
45.2842
47.8412
47.1205
50.1294
44.7904
46.1066
46.2712
45.7096
45.9221
44.6081
44.6925
40.4093
41.0919
42.6748
42.9445
44.8968
51.1697
50.5359
43.7245
53.0921
52.1493
52.3685
50.9562
51.918
52.9824
44.9795
42.9234
43.146
42.5198
42.8379
44.8325