/*--------------------------------*- C++ -*----------------------------------*\
| =========                 |                                                 |
| \\      /  F ield         | OpenFOAM: The Open Source CFD Toolbox           |
|  \\    /   O peration     | Version:  v1912                                 |
|   \\  /    A nd           | Website:  www.openfoam.com                      |
|    \\/     M anipulation  |                                                 |
\*---------------------------------------------------------------------------*/
FoamFile
{
    version     2.0;
    format      ascii;
    class       volScalarField;
    location    "200";
    object      nut;
}
// * * * * * * * * * * * * * * * * * * * * * * * * * * * * * * * * * * * * * //

dimensions      [0 2 -1 0 0 0 0];


internalField   nonuniform List<scalar> 
12556
(
1.15562
1.15558
1.15553
1.15552
1.15589
1.15591
1.15592
1.15596
1.15602
1.15612
1.15628
1.15645
1.15659
1.1566
1.1565
1.15634
1.15619
1.15607
1.15599
1.15594
1.15555
1.15554
1.15558
1.15562
1.15486
1.15475
1.15466
1.15463
1.15492
1.155
1.15509
1.15534
1.15552
1.15582
1.15627
1.15679
1.15718
1.15726
1.15701
1.15655
1.15609
1.15572
1.15531
1.15512
1.15472
1.1547
1.15478
1.15487
1.15407
1.15391
1.15377
1.15374
1.15398
1.15412
1.15431
1.15463
1.15507
1.1558
1.15685
1.15796
1.09025
1.08443
1.15836
1.15742
1.15637
1.15551
1.15482
1.1544
1.15394
1.15388
1.15397
1.15411
1.15326
1.15305
1.15288
1.15286
1.15307
1.15329
1.15363
1.15413
1.15506
1.15661
1.01945
0.824935
0.742747
0.752985
0.837026
0.993147
1.15752
1.15586
1.15465
1.15386
1.15324
1.15308
1.15317
1.15334
1.15244
1.15218
1.15199
1.15199
1.15222
1.15254
1.15311
1.15394
1.15574
0.997756
0.696429
0.516434
0.441057
0.461952
0.553683
0.701315
0.922226
1.15709
1.15497
1.15357
1.15263
1.15233
1.15237
1.15256
1.15162
1.15132
1.15112
1.15115
1.15141
1.15189
1.1528
1.15418
1.15714
0.762455
0.475865
0.292406
0.21747
0.249953
0.348076
0.491638
0.691685
0.987573
1.1559
1.15359
1.15213
1.15161
1.15156
1.15176
1.1508
1.15047
1.15027
1.15035
1.15067
1.15136
1.15273
1.15488
1.02433
0.630752
0.35118
0.148904
0.077085
0.118453
0.219537
0.355769
0.539296
0.803631
1.15735
1.15397
1.15175
1.15093
1.15077
1.15094
1.15
1.14965
1.14946
1.14961
1.15001
1.15096
1.15289
1.1559
0.966405
0.610825
0.352757
0.130912
0.0641202
0.15926
0.281593
0.448735
0.686704
1.06574
1.15467
1.15151
1.15032
1.14999
1.15013
1.14924
1.14888
1.14871
1.14894
1.14945
1.1507
1.15323
1.15707
0.978817
0.685449
0.525834
0.392084
0.0723828
0.148936
0.254796
0.406049
0.622193
0.983545
1.15564
1.15142
1.1498
1.14927
1.14935
1.14854
1.14816
1.14803
1.14835
1.14899
1.15057
1.15372
1.15826
1.02024
0.77989
0.743033
0.732588
0.0987581
0.163658
0.25949
0.399167
0.599348
0.942379
1.15677
1.15148
1.1494
1.14865
1.14867
1.14789
1.14751
1.14742
1.14785
1.14863
1.15056
1.1543
1.15945
1.05329
0.829306
0.838581
0.62805
0.13231
0.193439
0.285941
0.419762
0.609846
0.937012
1.15798
1.1517
1.14915
1.14818
1.14811
1.14732
1.14693
1.14689
1.14744
1.14837
1.15066
1.15496
1.16065
1.06612
0.826639
0.797515
0.515938
0.167061
0.236637
0.332546
0.465771
0.650712
0.963619
1.15919
1.15204
1.14905
1.14786
1.14773
1.1468
1.14642
1.14644
1.14711
1.14819
1.15084
1.15567
1.16185
1.07491
0.809894
0.698735
0.431483
0.0450101
0.214549
0.302312
0.40698
0.541466
0.723685
1.02189
1.16032
1.15244
1.14907
1.14769
1.14749
1.14634
1.14597
1.14604
1.14683
1.14812
1.15115
1.15652
1.16316
1.10832
0.826082
0.618662
0.222271
0.103407
0.309402
0.419078
0.526144
0.656602
0.833723
1.11574
1.16129
1.15287
1.14918
1.14764
1.14739
1.14593
1.14555
1.14567
1.14657
1.14803
1.15138
1.15719
1.16414
1.16756
0.92107
0.651435
0.0437853
0.155064
0.520444
0.637211
0.715459
0.824889
0.987489
1.16709
1.16204
1.15325
1.14932
1.14766
1.14738
1.14554
1.14517
1.14533
1.14633
1.14795
1.15156
1.15773
1.16486
1.16775
1.11238
0.784613
0.033529
0.171567
0.537698
0.830296
1.00245
1.06114
1.15788
1.16776
1.16254
1.15355
1.14946
1.14771
1.14741
1.14519
1.1448
1.14498
1.14607
1.14783
1.15168
1.15812
1.16528
1.16715
1.12017
0.657894
0.0304286
0.184713
0.549496
0.838927
1.02835
1.12131
1.15892
1.168
1.16278
1.15374
1.14956
1.14775
1.14745
1.14484
1.14444
1.14463
1.14578
1.14767
1.15171
1.15833
1.16537
1.16569
1.0996
0.546255
0.0295255
0.19554
0.556341
0.84476
1.03068
1.1222
1.15921
1.16786
1.16275
1.15378
1.14958
1.14776
1.14745
1.14449
1.14408
1.14427
1.14546
1.14744
1.15164
1.15837
1.16516
1.16328
1.07336
0.46123
0.0296508
0.204576
0.558665
0.848628
1.03181
1.12231
1.15895
1.16743
1.16251
1.15372
1.14954
1.14772
1.14742
1.14415
1.14372
1.1439
1.1451
1.14716
1.15147
1.15824
1.16468
1.15989
1.0427
0.403157
0.0303662
0.212199
0.558861
0.850648
1.03212
1.12189
1.15832
1.16678
1.16212
1.15355
1.14944
1.14763
1.14733
1.1438
1.14337
1.14353
1.14473
1.14683
1.15122
1.15797
1.16395
1.15546
1.00833
0.364592
0.0314627
0.218683
0.558444
0.850367
1.03179
1.12111
1.15743
1.16598
1.1616
1.15332
1.14928
1.14749
1.14718
1.14344
1.14301
1.14316
1.14435
1.14647
1.1509
1.15758
1.16299
1.14997
0.969661
0.337305
0.0328241
0.224225
0.557731
0.847913
1.03075
1.12004
1.15637
1.16508
1.16102
1.15304
1.14908
1.14731
1.147
1.14308
1.14265
1.14279
1.14398
1.1461
1.15054
1.15709
1.1618
1.14336
0.927482
0.317156
0.0343785
0.228979
0.556737
0.844159
1.02886
1.11872
1.15517
1.16413
1.16039
1.15272
1.14884
1.14709
1.14676
1.14272
1.1423
1.14243
1.14361
1.14573
1.15016
1.15652
1.16038
1.13533
0.886629
0.301986
0.036078
0.233061
0.555463
0.839838
1.02611
1.1171
1.15387
1.16313
1.15973
1.15239
1.14858
1.14684
1.1465
1.14235
1.14194
1.14207
1.14325
1.14536
1.14977
1.15589
1.15869
1.12544
0.850805
0.290474
0.0378891
0.23656
0.553919
0.83529
1.02269
1.1152
1.15246
1.16212
1.15907
1.15204
1.14831
1.14657
1.1462
1.14197
1.14159
1.14172
1.1429
1.14501
1.14938
1.15521
1.15669
1.11357
0.820432
0.281739
0.0397881
0.239548
0.552123
0.83063
1.01879
1.11303
1.15098
1.16111
1.15841
1.15168
1.14802
1.14628
1.14589
1.1416
1.14124
1.14138
1.14257
1.14467
1.14898
1.15445
1.15429
1.10013
0.794686
0.275162
0.0417573
0.24208
0.550095
0.825894
1.01461
1.11064
1.14944
1.16009
1.15776
1.15132
1.14771
1.14597
1.14555
1.14122
1.14088
1.14104
1.14223
1.14433
1.14857
1.15361
1.15144
1.08584
0.772687
0.270293
0.0437846
0.244202
0.547852
0.82109
1.01023
1.10808
1.14785
1.15908
1.15711
1.15095
1.14741
1.14566
1.14521
1.14084
1.14053
1.1407
1.14191
1.144
1.14816
1.15268
1.14809
1.07135
0.753738
0.266795
0.0458608
0.245947
0.545408
0.81622
1.00572
1.10538
1.14623
1.15807
1.15646
1.15059
1.1471
1.14534
1.14486
1.14046
1.14018
1.14037
1.14159
1.14367
1.14772
1.15162
1.14427
1.05711
0.737298
0.264402
0.0479809
0.247347
0.542776
0.811284
1.00113
1.10259
1.1446
1.15708
1.15583
1.15022
1.14678
1.14501
1.1445
1.14009
1.13983
1.14004
1.14127
1.14334
1.14726
1.15044
1.14001
1.04338
0.722945
0.262905
0.0501423
0.248426
0.539967
0.806279
0.996461
1.09972
1.14297
1.1561
1.1552
1.14986
1.14647
1.14469
1.14415
1.13971
1.13948
1.13972
1.14096
1.14301
1.14678
1.14912
1.1354
1.03029
0.710339
0.262128
0.0523451
0.249205
0.53699
0.801206
0.991738
1.0968
1.14135
1.15514
1.15458
1.1495
1.14616
1.14436
1.14379
1.13934
1.13914
1.13939
1.14065
1.14268
1.14626
1.14766
1.13053
1.01791
0.69921
0.261929
0.0545922
0.249706
0.533854
0.796067
0.986966
1.09383
1.13975
1.1542
1.15398
1.14914
1.14585
1.14404
1.14344
1.13897
1.13879
1.13907
1.14034
1.14235
1.14572
1.14606
1.12549
1.00626
0.689341
0.262184
0.0568883
0.249947
0.53057
0.790867
0.982153
1.09082
1.13818
1.15329
1.15339
1.14879
1.14554
1.14371
1.14308
1.13862
1.13847
1.13877
1.14005
1.142
1.14514
1.14435
1.12036
0.995332
0.680554
0.262791
0.0592409
0.249948
0.52715
0.78562
0.977309
1.08779
1.13663
1.1524
1.15281
1.14845
1.14525
1.14341
1.14275
1.13831
1.13819
1.13851
1.13979
1.14168
1.14454
1.14254
1.11522
0.98512
0.672699
0.263662
0.0616601
0.249732
0.523616
0.780349
0.972452
1.08475
1.13511
1.15157
1.15226
1.14817
1.145
1.14315
1.14246
0.328818
0.0643536
0.0548971
0.744275
0.0906161
0.0674203
0.641687
0.126809
0.094925
0.530186
0.155874
0.132134
0.439011
0.0342371
0.0422463
0.190314
0.15954
0.26854
0.0679747
0.0358037
0.0984148
0.248512
0.193211
0.125966
0.0791866
0.0570417
0.111072
0.033839
0.0236414
0.0699212
0.126075
0.134068
0.69575
0.840623
0.412105
0.0442937
0.0548811
0.0949467
0.139801
0.127558
0.830562
0.754149
0.830736
0.695006
0.21018
0.252107
0.0660153
0.0507157
0.128119
0.168381
0.145889
0.814169
0.652011
0.742118
0.586526
0.115022
0.164098
0.105832
0.083807
0.722715
0.545098
0.638348
0.492657
0.0571176
0.0813776
0.0188222
0.137759
0.13759
0.632831
0.380889
0.530969
0.378738
0.0251882
0.0366113
0.0861738
0.0894508
0.0715934
0.0969362
0.253097
0.0448554
0.0861534
0.053393
0.035479
0.0569406
0.0367334
0.0530323
0.258223
0.305771
0.778032
0.222952
0.194081
0.286613
0.22935
0.0502589
0.0443008
0.0793417
0.0573913
0.0633569
0.0542903
0.057386
0.0776362
0.168734
0.20426
0.681907
0.147904
0.11767
0.191281
0.150793
0.0810751
0.0675826
0.113585
0.0883338
0.106526
0.0639702
0.0862284
0.10873
0.0827338
0.113069
0.572538
0.0867211
0.0605695
0.115957
0.0880394
0.136674
0.109356
0.0370297
0.0558224
0.488415
0.016675
0.0393327
0.0264467
0.0597882
0.040107
0.0160871
0.14092
0.142388
0.0196757
0.00517703
0.0250997
0.371281
0.0519366
0.0186141
0.00897978
0.026336
0.0189572
0.0494731
0.469948
0.352745
0.155033
0.176363
0.0976141
0.0537186
0.0126096
0.0106911
0.660636
0.313702
0.312915
0.014265
0.16022
0.205602
0.176989
0.014053
0.0548376
0.0494168
0.0654467
0.149518
0.142098
0.262182
0.109679
0.202964
0.0413144
0.0164266
0.0285998
0.0271382
0.0348252
0.0554397
0.0471625
0.032504
0.145729
0.133992
0.138578
0.109479
0.13298
0.142906
0.0234139
0.0145932
0.039857
0.0304007
0.0545365
0.043523
0.0239723
0.0385038
0.0289726
0.0108477
0.0271206
0.0222888
0.0125768
0.0200405
0.0254577
0.0531983
0.0538502
0.057567
0.0566167
0.0207165
0.0149693
0.0959159
0.0198033
0.0279356
0.0143212
0.0187397
0.0928103
0.0716325
0.246587
0.228531
0.0686763
0.0581448
0.014426
0.0339648
0.157561
0.143013
0.178842
0.162919
0.0345687
0.0531054
0.0423745
0.141282
0.0655337
0.0775648
0.0412581
0.064672
0.158672
0.0547802
0.0303275
0.0192509
0.0664452
0.0335074
0.0606829
0.0315207
0.0637906
0.0446827
0.0439973
0.214137
0.0284025
0.212772
0.258663
0.0333526
0.0399473
0.0288416
0.0326298
0.250622
0.048016
0.0477347
0.0599142
0.0744337
0.0695386
0.0812919
0.0763787
0.0602433
0.0646688
0.061664
0.0563668
0.067753
0.0630972
0.0644699
0.132202
0.130259
0.172789
0.170333
0.0797461
0.0142397
0.0781518
0.0773943
0.0752047
0.0999459
0.098118
0.0292908
0.0415173
0.120444
0.0308668
0.0216664
0.0497612
0.200738
0.184226
0.222763
0.206189
0.0505921
0.0222915
0.0371566
0.0367475
0.0547828
0.0540249
0.00782454
0.0278632
0.0838942
0.0723582
0.138786
0.112978
0.0119123
0.00744286
0.0216412
0.0169137
0.0256603
0.0115091
0.0164017
0.0133861
0.0253663
0.0422187
0.0149951
0.018719
0.0050944
0.0198347
0.0176049
0.627923
0.249362
0.357786
0.15175
0.00824088
0.00555966
0.150066
0.431376
0.277034
0.00684827
0.0169037
0.0150856
0.10022
0.0878867
0.0293826
0.179666
0.15425
0.0684563
0.0122105
0.0214277
0.0165823
0.0107317
0.0160225
0.0114548
0.046047
0.0293757
0.0272501
0.0556354
0.0615731
0.024313
0.0280975
0.0178478
0.0175368
0.0526395
0.133353
0.347148
0.327416
0.374614
0.353907
0.137881
0.27095
0.252662
0.0728306
0.026221
0.0689851
0.0643969
0.0094798
0.0143637
0.0750669
0.0500382
0.0320896
0.0300798
0.0440152
0.048604
0.0444272
0.0548055
0.0500227
0.045643
0.0491324
0.0193656
0.0181091
0.0454328
0.183057
0.402953
0.381611
0.0503322
0.0516516
0.122869
0.0290692
0.0312957
0.072014
0.0954903
0.110163
0.101954
0.0703751
0.0892238
0.0833161
0.0988916
0.0916308
0.0714386
0.0981155
0.295774
0.277103
0.320999
0.302062
0.100372
0.0829348
0.031296
0.0318578
0.0207925
0.0217659
0.0639725
0.1098
0.0460252
0.0498269
0.0320374
0.0324779
0.092139
0.124353
0.0435253
0.0619594
0.00758542
0.0186547
0.0382465
0.0291514
0.0576067
0.0198029
0.0205238
0.0179401
0.0474825
0.0144526
0.00432126
0.0775161
0.0545757
0.0631233
0.0592954
0.0247091
0.019426
0.0259535
0.0591554
0.0177861
0.00982367
0.021376
0.0220856
0.00303949
0.0261895
0.0198487
0.0151436
0.00743711
0.0138843
0.0137962
0.0138716
0.024215
0.0208029
0.00794101
0.0381908
0.0370644
0.019249
0.0126636
0.00869697
0.0133029
0.0210746
0.015188
0.0172651
0.0378463
0.0145198
0.0135334
0.0146587
0.0161139
0.0279836
0.0144177
0.0114648
0.016155
0.0147535
0.0115769
0.0186664
0.0167139
0.0219302
0.0194167
0.0136328
0.0174792
0.0255749
0.0221062
0.0327865
0.0271743
0.0213452
0.0190285
0.0154607
0.0243925
0.0221808
0.0479619
0.0551745
0.0266243
0.024994
0.0225251
0.023566
0.0604738
0.016092
0.0171846
0.0191488
0.0161711
0.0178551
0.0535646
0.018466
0.0221014
0.0178258
0.0170022
0.0228864
0.0569588
0.0503698
0.0162329
0.0413729
0.0366627
0.0480447
0.0429935
0.0167772
0.0158776
0.0299229
0.0255291
0.0772947
0.0707919
0.0277954
0.0355655
0.0840632
0.0790716
0.0479989
0.0463522
0.0675628
0.103756
0.137846
0.0774872
0.0960625
0.0682836
0.05351
0.141488
0.123469
0.154888
0.147865
0.0591322
0.0467253
0.0581556
0.0710598
0.0419015
0.0478218
0.039325
0.0361638
0.0489638
0.0291509
0.0319612
0.027481
0.0400289
0.0339362
0.032749
0.03835
0.0402584
0.0397441
0.0397495
0.026934
0.0878759
0.0709048
0.0964841
0.0913282
0.0273361
0.064692
0.06319
0.0680822
0.0652129
0.0356539
0.112774
0.108337
0.120302
0.11437
0.0366347
0.030365
0.101591
0.0977658
0.106922
0.10288
0.0308123
0.0214503
0.019824
0.0488178
0.0461615
0.0232094
0.0221492
0.037082
0.0366257
0.0380118
0.0372251
0.0355446
0.0347746
0.0364516
0.0357965
0.0607729
0.0591924
0.0627189
0.0612753
0.0533025
0.0392782
0.0586237
0.0558148
0.0298557
0.0265756
0.0352894
0.0312387
0.0142228
0.0210463
0.0198209
0.0255044
0.0217745
0.0301456
0.0311219
0.0817071
0.0197174
0.0192123
0.0206306
0.0198968
0.0190234
0.0661224
0.0220692
0.0289963
0.0333203
0.0421277
0.107078
0.0292058
0.0236653
0.0344949
0.0321432
0.0218146
0.0209107
0.0232563
0.0221421
0.0935537
0.032592
0.0329504
0.00872388
0.026506
0.0135873
0.0145419
0.0135406
0.0252209
0.00749552
0.0194467
0.0113568
0.0142034
0.0379834
0.0324094
0.0189504
0.0195806
0.0569006
0.0502005
0.0181476
0.0187354
0.0137284
0.0241248
0.0576293
0.0412343
0.0122999
0.0118728
0.0172172
0.0102608
0.0131707
0.0185977
0.0260942
0.00724505
0.0150233
0.00983177
0.0145997
0.0200285
0.0661627
0.142351
0.190672
0.0131958
0.0124743
0.195847
0.260184
0.216935
0.0081469
0.029648
0.0166266
0.0185574
0.142909
0.14922
0.169647
0.00581372
0.00924435
0.00671716
0.00571574
0.00708886
0.00552435
0.0722169
0.0460304
0.0276288
0.0304465
0.0276693
0.0312263
0.22822
0.462674
0.439789
0.494149
0.470417
0.234067
0.0381624
0.0320954
0.0165228
0.0652867
0.0759177
0.139952
0.0910907
0.0857436
0.0358315
0.0325799
0.0375561
0.0386959
0.432281
0.410183
0.188112
0.140542
0.055186
0.0575022
0.0598135
0.0737411
0.160025
0.0414376
0.0999813
0.0930569
0.01474
0.015115
0.0172723
0.0198567
0.0201818
0.0267071
0.0155126
0.0129719
0.0143406
0.0225735
0.0456879
0.0401889
0.0184031
0.0262934
0.0192886
0.0195269
0.0191996
0.0120963
0.0137976
0.0159583
0.0153833
0.0131854
0.0218581
0.0252367
0.0555764
0.040042
0.0432309
0.0399786
0.0295218
0.0403158
0.0181009
0.0208302
0.0110824
0.00736627
0.00728281
0.0138409
0.0118179
0.0290016
0.0184148
0.0124509
0.0171001
0.0224654
0.0213088
0.0302981
0.0314552
0.0197936
0.0154561
0.0159919
0.0108457
0.0138784
0.0157678
0.0651525
0.059098
0.0240261
0.0146919
0.019628
0.018715
0.0148951
0.0173302
0.016625
0.0516072
0.0420568
0.0435247
0.0662423
0.0927797
0.0916731
0.04269
0.0612392
0.0590506
0.0904183
0.0888202
0.063502
0.0440318
0.0527587
0.0432385
0.0333421
0.0367732
0.0297615
0.0462932
0.0482592
0.0681121
0.0246375
0.0320524
0.0314648
0.04871
0.0480575
0.0279827
0.0268507
0.0263318
0.0307186
0.0299475
0.0341644
0.0551001
0.0544695
0.058148
0.0576407
0.0387723
0.0293181
0.0499991
0.0493495
0.0538174
0.0531516
0.0319383
0.0536604
0.0547806
0.138365
0.124655
0.0520782
0.0532859
0.0816936
0.0846124
0.180444
0.0241552
0.0239054
0.0259641
0.0256185
0.0213444
0.0236665
0.0234339
0.162783
0.0765567
0.0806985
0.0145599
0.0147018
0.0180657
0.0175536
0.0142694
0.014913
0.014881
0.0735266
0.0322796
0.0363197
0.109382
0.102476
0.0444675
0.0526469
0.117489
0.11146
0.0269752
0.0270844
0.0374634
0.0360817
0.0264885
0.0268099
0.0120202
0.0183948
0.0265724
0.0187964
0.00723774
0.0120372
0.0194663
0.0135389
0.0144257
0.0179381
0.0181129
0.0258309
0.011022
0.00721933
0.0104788
0.0137824
0.0246354
0.0175845
0.0177753
0.0163744
0.026825
0.0232392
0.0139632
0.0136665
0.0149052
0.0152783
0.0182777
0.00795969
0.00552273
0.00981724
0.0162152
0.014057
0.0144453
0.0129771
0.0138047
0.0156091
0.0123267
0.00826305
0.00628005
0.0257772
0.0263612
0.0246763
0.025168
0.0286493
0.0373413
0.0375211
0.036924
0.037156
0.0280434
0.017406
0.0283151
0.028202
0.0291805
0.0285846
0.0172059
0.0316478
0.0389372
0.0407274
0.0377244
0.0380874
0.0308537
0.0190491
0.0281894
0.0281778
0.0281422
0.0281414
0.0184978
0.0236255
0.0241772
0.0243263
0.0237265
0.0314661
0.0451681
0.0448279
0.0211097
0.0296199
0.0295387
0.0300588
0.0297468
0.0214389
0.0123227
0.011387
0.014301
0.0131426
0.0197337
0.0194318
0.0203468
0.0200411
0.0164229
0.0274231
0.0204591
0.0206649
0.02003
0.029317
0.0292166
0.029475
0.0294029
0.0202701
0.0209063
0.0206391
0.0247283
0.021109
0.0171802
0.00773168
0.0120093
0.0149757
0.00751334
0.0194037
0.014649
0.00358297
0.0249392
0.0334836
0.0330515
0.0181997
0.00951407
0.00671323
0.00453293
0.0115255
0.0123795
0.0188403
0.0190606
0.0262569
0.0194618
0.00869495
0.00729819
0.0167203
0.00582618
0.00999103
0.00814655
0.00594737
0.0073443
0.0136861
0.0123892
0.0122034
0.0148975
0.0143797
0.039087
0.034047
0.0106818
0.0126391
0.0141569
0.0204939
0.023338
0.0153827
0.0188993
0.0162399
0.0140681
0.0083922
0.0137784
0.0140609
0.00734522
0.0109076
0.0122545
0.0156323
0.013977
0.0143996
0.0117084
0.012344
0.0151566
0.0146238
0.0142326
0.0109264
0.0139491
0.0154293
0.0150288
0.0279235
0.0241212
0.0185589
0.0307259
0.0328447
0.0363694
0.0276968
0.0246894
0.023916
0.0340152
0.0352076
0.0269496
0.031427
0.0233372
0.0260876
0.0364328
0.0366815
0.0357868
0.0361379
0.0254894
0.0228186
0.0343612
0.0338969
0.016354
0.0166925
0.017969
0.0161258
0.0159889
0.0168535
0.0180793
0.0179388
0.0198508
0.0314049
0.0301814
0.0333368
0.0325281
0.0213044
0.0141652
0.0147669
0.0188014
0.00988387
0.0135785
0.0135824
0.0163722
0.0137918
0.013811
0.0217973
0.0207195
0.015423
0.0497976
0.0448054
0.0755755
0.0661914
0.0438575
0.0619555
0.0865267
0.0826043
0.04134
0.0377456
0.0373365
0.0266589
0.0331307
0.0563654
0.0500339
0.0468282
0.0389551
0.046912
0.0456735
0.043806
0.0457939
0.0380989
0.0300447
0.0312738
0.0395407
0.0335597
0.0326916
0.0330967
0.0346893
0.0362682
0.0335342
0.031824
0.029669
0.0342621
0.0440054
0.0394321
0.0263264
0.027659
0.0473439
0.0462611
0.0279723
0.0274001
0.029241
0.0285848
0.0561718
0.0556433
0.0348588
0.0376826
0.057191
0.0567027
0.0513007
0.0506608
0.0298438
0.0313048
0.0524966
0.0518931
0.020861
0.0282051
0.028167
0.0281933
0.0282272
0.0204604
0.0230977
0.0270965
0.0257148
0.0280464
0.0277577
0.0225826
0.0369337
0.0240928
0.0244995
0.0234351
0.0237537
0.0367867
0.0375695
0.0259677
0.0264713
0.0249478
0.0254327
0.0373702
0.0352856
0.0217117
0.0219793
0.021274
0.0214734
0.0350283
0.0362602
0.0228538
0.0231364
0.0222563
0.0225476
0.0360371
0.0246939
0.0244179
0.0602584
0.0409458
0.0412568
0.040306
0.0406297
0.0597329
0.0252921
0.0249846
0.0227577
0.0224225
0.0485799
0.0331511
0.0366996
0.0269538
0.02733
0.0424175
0.0579834
0.0395999
0.0399694
0.0383815
0.0391422
0.0571505
0.0232134
0.0229954
0.0152571
0.0147034
0.0143438
0.0169577
0.0160623
0.0205907
0.0150567
0.0148344
0.0156462
0.015312
0.0202335
0.0242177
0.0165944
0.0176755
0.0149581
0.0155926
0.0228801
0.0306414
0.0435255
0.0426241
0.0444755
0.0440712
0.0309188
0.0195451
0.0193789
0.0203559
0.0200834
0.0187805
0.0179854
0.0223268
0.0332229
0.0309663
0.040896
0.0375971
0.0265099
0.0243455
0.0193339
0.0202223
0.0240486
0.0341334
0.0208838
0.0210772
0.0204905
0.0206913
0.0335203
0.0215018
0.0211999
0.0228609
0.0224903
0.0136953
0.0162408
0.0156991
0.0178312
0.0169581
0.0140156
0.0140048
0.0136465
0.0151957
0.0145594
0.00912344
0.0121638
0.0150462
0.0146816
0.0160162
0.0154876
0.0128207
0.0188042
0.0186141
0.0192117
0.0190034
0.0238838
0.0256934
0.0348191
0.0180778
0.0178542
0.0184329
0.0182579
0.0191616
0.0288245
0.0286583
0.0290999
0.0289695
0.0193675
0.0183055
0.0277698
0.0268324
0.0284611
0.0282013
0.0185207
0.0129134
0.0322784
0.0305461
0.0224351
0.0125383
0.00930139
0.00919446
0.00639399
0.00910056
0.0121784
0.0157117
0.0124259
0.0139288
0.013546
0.0259755
0.0183617
0.0186032
0.0104631
0.0106465
0.0101998
0.0131698
0.0127857
0.00683926
0.00702207
0.0141813
0.0109667
0.0131144
0.0151404
0.0173406
0.0229715
1.15479
1.15504
1.15546
1.15515
1.15558
1.15572
1.15575
1.15638
1.15613
1.15661
1.15734
1.15664
1.15757
1.15812
1.15709
1.15824
1.15318
1.15728
1.15837
1.15809
1.15711
1.15794
1.15733
1.15669
1.15711
1.15644
1.15622
1.15624
1.15568
1.15581
1.15423
1.15477
1.15494
1.15501
1.15593
1.15559
1.15631
1.15758
1.15657
1.112
0.952783
1.15771
0.914576
0.839923
1.10406
0.82808
0.825892
1.07761
0.835036
0.890675
1.1363
0.917998
1.0298
1.15767
1.07668
1.15754
1.15662
1.15713
1.15602
1.1557
1.15395
1.15502
1.15478
1.1555
1.15724
1.15616
1.07324
0.831385
1.08631
0.767496
0.620743
0.862045
0.585571
0.519109
0.753776
0.509543
0.515707
0.743055
0.527797
0.58908
0.809648
0.616785
0.723675
0.946813
0.766363
0.929255
1.15796
0.994682
1.15725
1.15623
1.15408
1.15596
1.15519
1.15675
0.903169
1.09166
0.808728
0.582578
0.759046
0.521662
0.376765
0.551461
0.340799
0.273944
0.450287
0.265761
0.279774
0.448986
0.294931
0.363453
0.525519
0.39183
0.496199
0.65833
0.536933
0.68316
0.859406
0.741155
0.952384
1.14258
1.15467
1.15744
1.1563
1.05222
0.739381
0.852959
0.653531
0.435455
0.536315
0.372912
0.216045
0.328973
0.178348
0.0946038
0.225484
0.0928508
0.127049
0.233851
0.145094
0.216193
0.319333
0.244991
0.345033
0.451307
0.383392
0.518042
0.635028
0.571041
0.760838
0.896418
1.15562
1.08631
1.1349
0.973312
0.683782
0.715299
0.605201
0.39829
0.414346
0.337995
0.151512
0.191438
0.134432
0.0782993
0.123103
0.0379779
0.0477526
0.0834467
0.0895425
0.12012
0.141795
0.16863
0.259886
0.317943
0.295152
0.418397
0.487648
0.466536
0.639001
0.723584
1.15677
1.07965
1.07914
0.971135
0.724012
0.686081
0.661456
0.508705
0.412435
0.379034
0.327175
0.301708
0.140295
0.117719
0.106644
0.0629472
0.0905892
0.096613
0.148437
0.22677
0.247332
0.257991
0.369198
0.401752
0.412914
0.570503
0.616424
1.15796
1.11107
1.08569
1.00961
0.803668
0.743298
0.758899
0.685789
0.552477
0.584267
0.575985
0.498084
0.465087
0.456571
0.373012
0.0819333
0.101299
0.0960402
0.158397
0.227897
0.22449
0.25606
0.35777
0.363276
0.398099
0.543757
0.559876
1.15916
1.14187
1.12018
1.04704
0.859418
0.821574
0.822664
0.789335
0.722601
0.782209
0.845128
0.792562
0.720396
0.547172
0.57121
0.11101
0.127657
0.117201
0.184799
0.25089
0.231849
0.277546
0.374084
0.3595
0.412296
0.549547
0.542535
1.16035
1.15321
1.14675
1.06444
0.871133
0.866275
0.830533
0.779661
0.796079
0.837085
0.918613
0.921648
0.614291
0.427887
0.449477
0.144422
0.164371
0.150175
0.22421
0.291993
0.259443
0.31875
0.414402
0.381894
0.451765
0.583676
0.556163
1.16155
1.15609
1.15392
1.07161
0.86266
0.869489
0.812934
0.723227
0.767136
0.765572
0.815553
0.839461
0.501663
0.318552
0.338541
0.175154
0.198274
0.187209
0.282708
0.356732
0.305532
0.385013
0.482194
0.428506
0.519299
0.647494
0.59779
1.16288
1.16693
1.15914
1.0948
0.872853
0.862282
0.814592
0.672865
0.708262
0.672655
0.617465
0.69517
0.408715
0.217628
0.235999
0.0536201
0.110008
0.104382
0.276381
0.358145
0.279007
0.383268
0.462198
0.378343
0.490974
0.587386
0.504502
0.623471
0.746646
0.670037
1.16392
1.1679
1.16721
1.16741
0.949315
0.885992
0.888168
0.70089
0.669991
0.60944
0.539371
0.531221
0.207682
0.0679863
0.0906417
0.116299
0.251778
0.192182
0.466393
0.551348
0.395027
0.570901
0.635212
0.4981
0.66016
0.744697
0.621123
0.777368
0.888797
0.779329
1.16471
1.16846
1.16809
1.16777
1.12164
0.982113
1.05281
0.841094
0.726331
0.77564
0.115981
0.191217
0.0350001
0.0845779
0.0725969
0.167836
0.450195
0.43682
0.533966
0.76085
0.621086
0.827523
0.906751
0.69294
0.917718
0.970627
0.793992
0.994551
1.08865
0.934476
1.16521
1.16849
1.16852
1.16738
1.1459
1.1507
1.12431
0.886511
0.898186
0.688489
0.0827056
0.104045
0.0309173
0.0984225
0.0882491
0.18167
0.462416
0.453819
0.546974
0.771932
0.764023
0.837066
0.990513
0.986549
1.02751
1.10427
1.04018
1.12091
1.15264
1.15161
1.16538
1.16791
1.1684
1.16614
1.13609
1.14382
1.10531
0.793842
0.863506
0.571952
0.0689415
0.0782548
0.0296273
0.110341
0.10157
0.193022
0.4687
0.464486
0.555105
0.779571
0.774101
0.843496
0.993881
0.991521
1.03022
1.10569
1.10474
1.12206
1.15324
1.15286
1.16525
1.16671
1.16767
1.16397
1.12227
1.133
1.08037
0.703569
0.770902
0.479806
0.061891
0.0667477
0.0295513
0.120689
0.113068
0.202466
0.471476
0.469584
0.558369
0.784749
0.78107
0.847812
0.99578
0.994463
1.03161
1.10614
1.10588
1.12234
1.15318
1.15327
1.16483
1.16488
1.16632
1.16083
1.10476
1.11822
1.05071
0.62173
0.681865
0.415429
0.0580129
0.0606964
0.0301443
0.129731
0.123068
0.210414
0.473195
0.471953
0.558888
0.787401
0.785664
0.850328
0.996667
0.996077
1.0321
1.10595
1.10614
1.12203
1.15268
1.15309
1.16416
1.1624
1.16433
1.15666
1.08404
1.09986
1.01727
0.55696
0.603715
0.372916
0.0558967
0.0573502
0.031159
0.137674
0.131819
0.217163
0.474458
0.473545
0.558569
0.787107
0.787589
0.850652
0.996738
0.996753
1.03192
1.10532
1.10583
1.12132
1.15187
1.1525
1.16326
1.15924
1.16167
1.15144
1.06023
1.07839
0.979749
0.510344
0.543748
0.343323
0.0548721
0.0555532
0.0324625
0.144682
0.139515
0.222927
0.47529
0.474703
0.557927
0.784583
0.786624
0.848673
0.995884
0.996613
1.03108
1.10435
1.1051
1.12033
1.15085
1.15163
1.16212
1.15536
1.15834
1.14513
1.03256
1.05371
0.938098
0.476449
0.500885
0.321639
0.0545819
0.0547379
0.033974
0.150884
0.14631
0.227867
0.475696
0.475427
0.557006
0.781023
0.783744
0.845159
0.9939
0.99549
1.02941
1.10304
1.10405
1.11907
1.14967
1.15057
1.16076
1.15066
1.15427
1.13749
1.00101
1.02496
0.896422
0.450705
0.469352
0.305371
0.05482
0.0545948
0.035641
0.156384
0.152328
0.232109
0.475707
0.475733
0.555803
0.77709
0.780052
0.840935
0.990848
0.993219
1.02686
1.10137
1.10266
1.11753
1.14835
1.14935
1.15914
1.14489
1.14933
1.1281
0.968397
0.992794
0.8592
0.43064
0.445205
0.29304
0.0554607
0.0549428
0.0374271
0.161267
0.157668
0.235748
0.475361
0.475652
0.554327
0.773002
0.77607
0.836428
0.987029
0.989944
1.02358
1.0993
1.10088
1.1157
1.1469
1.148
1.15723
1.13778
1.14325
1.1167
0.93781
0.960463
0.827521
0.414789
0.426305
0.283674
0.0564245
0.05567
0.0393064
0.165599
0.162409
0.23886
0.474694
0.475224
0.552595
0.768813
0.771956
0.831792
0.982739
0.985983
1.01979
1.09689
1.09873
1.11359
1.14533
1.14652
1.15494
1.12923
1.13577
1.10359
0.910478
0.930641
0.800704
0.402186
0.411343
0.276604
0.0576596
0.0567052
0.0412598
0.169436
0.166614
0.241505
0.473737
0.474483
0.550625
0.764533
0.767745
0.827075
0.978176
0.98161
1.01566
1.09419
1.09624
1.11125
1.14367
1.14493
1.1522
1.11945
1.12688
1.08944
0.886405
0.904145
0.77784
0.392142
0.399434
0.271342
0.0591321
0.0580018
0.0432738
0.172823
0.170336
0.243728
0.472517
0.473461
0.548437
0.760162
0.763444
0.82229
0.973449
0.976998
1.01133
1.09128
1.09348
1.10873
1.14193
1.14324
1.14898
1.10885
1.11686
1.07495
0.865222
0.880831
0.758182
0.384148
0.389943
0.267526
0.0608191
0.0595292
0.0453389
0.175797
0.173617
0.245567
0.471054
0.47218
0.546045
0.7557
0.759051
0.817439
0.968618
0.972242
1.00685
1.0882
1.09052
1.10606
1.14013
1.14148
1.14527
1.0978
1.10611
1.06062
0.846518
0.860303
0.741158
0.37781
0.382395
0.264877
0.0627051
0.0612666
0.0474488
0.17839
0.176494
0.247054
0.469365
0.470662
0.543463
0.751147
0.754568
0.812521
0.963712
0.96739
1.00227
1.08499
1.0874
1.10329
1.1383
1.13967
1.14111
1.08666
1.09501
1.04674
0.829927
0.842158
0.726315
0.372816
0.376418
0.263171
0.0647789
0.0631998
0.0496006
0.18063
0.178998
0.248214
0.467464
0.468921
0.540701
0.746503
0.749994
0.807536
0.958748
0.96247
0.997624
1.0817
1.08417
1.10044
1.13645
1.13784
1.13658
1.07564
1.08387
1.03348
0.815143
0.826045
0.713298
0.368912
0.371717
0.262227
0.0670317
0.0653183
0.0517934
0.182544
0.181157
0.24907
0.465363
0.466972
0.537769
0.741771
0.74533
0.802483
0.953732
0.957493
0.992917
1.07833
1.08086
1.09752
1.13459
1.13598
1.13177
1.0649
1.07291
1.02091
0.801913
0.81167
0.701822
0.365891
0.368051
0.261895
0.0694558
0.0676139
0.0540294
0.184154
0.182994
0.249642
0.463072
0.464825
0.534676
0.736952
0.740579
0.797363
0.94867
0.952467
0.988158
1.07491
1.07748
1.09457
1.13273
1.13412
1.12676
1.05455
1.06226
1.00908
0.790032
0.798793
0.691655
0.36358
0.365222
0.262045
0.0720437
0.070079
0.056313
0.185484
0.184534
0.24995
0.460602
0.462491
0.531431
0.732055
0.735742
0.792181
0.943567
0.947395
0.983356
1.07145
1.07404
1.09157
1.13089
1.13227
1.12164
1.04466
1.05202
0.997969
0.77933
0.78722
0.68261
0.361838
0.363065
0.262572
0.0747875
0.0727058
0.0586511
0.186556
0.1858
0.250014
0.457966
0.459981
0.528048
0.727089
0.730829
0.786947
0.938432
0.942284
0.97852
1.06794
1.07057
1.08855
1.12905
1.13042
1.11649
1.03526
1.04225
0.987578
0.769665
0.77679
0.674534
0.360545
0.361445
0.263385
0.0776786
0.0754863
0.0610527
0.187394
0.186813
0.249853
0.455181
0.457309
0.524544
0.722076
0.725852
0.781682
0.933281
0.937145
0.973664
1.06441
1.06706
1.0855
1.12723
1.12859
1.11167
1.02677
1.03297
0.978283
0.761175
0.767363
0.667475
0.359598
0.360248
0.264379
0.0806911
0.078412
0.0635213
0.188042
0.187599
0.249536
0.452408
0.454493
0.521118
0.717309
0.720834
0.776701
0.928443
0.931997
0.969105
1.0611
1.06353
1.08265
1.12557
1.12678
0.304862
0.250339
0.277157
0.061571
0.0535715
0.0577074
0.0460794
0.0455456
0.0540893
0.579548
0.607762
0.755443
0.0868793
0.0790919
0.0839755
0.0593452
0.0650193
0.0694704
0.456732
0.478752
0.655218
0.122742
0.117584
0.124446
0.0861559
0.0918872
0.0993419
0.345237
0.36544
0.544369
0.152892
0.151512