/*--------------------------------*- C++ -*----------------------------------*\
| =========                 |                                                 |
| \\      /  F ield         | OpenFOAM: The Open Source CFD Toolbox           |
|  \\    /   O peration     | Version:  v1912                                 |
|   \\  /    A nd           | Website:  www.openfoam.com                      |
|    \\/     M anipulation  |                                                 |
\*---------------------------------------------------------------------------*/
FoamFile
{
    version     2.0;
    format      ascii;
    class       volScalarField;
    location    "200";
    object      omega;
}
// * * * * * * * * * * * * * * * * * * * * * * * * * * * * * * * * * * * * * //

dimensions      [0 0 -1 0 0 0 0];


internalField   nonuniform List<scalar> 
12556
(
31.8693
31.8706
31.8719
31.8739
31.9377
31.9386
31.9392
31.9403
31.9425
31.9464
31.9523
31.9591
31.9641
31.9647
31.9609
31.9548
31.9489
31.9445
31.9415
31.9398
31.8748
31.8723
31.8706
31.8691
31.7347
31.7377
31.7408
31.7448
31.8051
31.8092
31.8124
31.8458
31.8519
31.8627
31.8786
31.8969
31.9108
31.9135
31.904
31.8877
31.8713
31.8586
31.8198
31.813
31.7475
31.7419
31.7382
31.7347
31.6014
31.6062
31.6108
31.6165
31.6745
31.6816
31.6887
31.7234
31.7379
31.7626
31.7986
31.8384
31.8675
31.8729
31.8534
31.819
31.7827
31.7534
31.7046
31.6905
31.6232
31.6144
31.6082
31.6028
31.4702
31.4764
31.4823
31.4897
31.545
31.5556
31.5682
31.6085
31.6386
31.6903
31.7634
31.8473
31.9077
31.912
31.865
31.794
31.7236
31.6659
31.6012
31.5748
31.5028
31.4895
31.4806
31.4732
31.3405
31.3481
31.3553
31.3645
31.4185
31.4332
31.4532
31.5021
31.5615
31.6622
31.8282
32.0524
32.2242
32.2024
32.0451
31.8652
31.7158
31.6102
31.5147
31.4679
31.3864
31.3672
31.3549
31.3452
31.2124
31.2212
31.2298
31.2408
31.2945
31.3148
31.3456
31.4107
31.5111
31.7058
32.1187
32.9256
33.7809
33.4465
32.6916
32.1487
31.8049
31.595
31.4497
31.372
31.2745
31.2472
31.2307
31.2185
31.086
31.0961
31.1061
31.1192
31.1729
31.2
31.2453
31.3339
31.4894
31.8535
32.8486
36.677
42.203
39.49
34.639
32.847
32.0457
31.6393
31.4072
31.288
31.1672
31.1296
31.1078
31.0929
30.9616
30.973
30.9847
31.0005
31.0549
31.0902
31.1523
31.2682
31.4896
32.0683
33.9027
44.1949
63.0673
39.3487
34.162
32.4776
31.7532
31.3866
31.2156
31.0648
31.0146
30.9864
30.9684
30.8396
30.8524
30.866
30.8848
30.9408
30.9853
31.0655
31.2093
31.498
32.2582
34.604
50.3222
110.088
46.0352
35.9813
33.0715
31.9279
31.3846
31.1525
30.9673
30.9029
30.8674
30.8461
30.7205
30.7347
30.7505
30.7726
30.8307
30.8852
30.9837
31.1538
31.5044
32.3988
35.0899
56.9852
132.734
51.5151
37.7954
33.7124
32.132
31.3939
31.0963
30.8752
30.7955
30.7522
30.7272
30.6045
30.6203
30.6382
30.664
30.7249
30.7896
30.9058
31.1006
31.5092
32.523
35.7331
65.9186
133.551
54.7704
39.2251
34.2819
32.3278
31.4054
31.0446
30.7878
30.693
30.6417
30.6127
30.4919
30.5091
30.5293
30.5588
30.6229
30.6979
30.8311
31.0501
31.5173
32.6639
36.672
79.0463
124.404
56.0813
40.1295
34.7034
32.4828
31.4096
30.9942
30.7041
30.5953
30.5361
30.503
30.3824
30.4013
30.4241
30.4576
30.5242
30.6091
30.7587
31.0025
31.5314
32.8408
37.8314
92.8037
934.299
105.935
56.1025
40.5503
34.9515
32.5772
31.3996
30.9418
30.6227
30.5015
30.435
30.3979
30.2758
30.2962
30.3213
30.3583
30.4302
30.5262
30.6925
30.9671
31.5763
33.1403
40.0449
172.624
474.052
100.468
55.435
40.6051
35.0443
32.6078
31.3717
30.8839
30.5418
30.4101
30.3371
30.2963
30.1712
30.1932
30.2206
30.2609
30.3364
30.4409
30.6212
30.9202
31.5945
33.3988
43.7728
752.037
323.065
94.8793
54.2544
40.4076
35.0137
32.5827
31.3256
30.819
30.4594
30.3194
30.2407
30.1965
30.0679
30.0915
30.1211
30.1644
30.2434
30.3551
30.5475
30.8686
31.6054
33.7076
50.4051
859.2
283.179
90.2566
53.1225
40.1043
34.898
32.5091
31.2625
30.7459
30.3739
30.2279
30.1441
30.0973
29.9654
29.9904
30.0223
30.0682
30.1503
30.2679
30.4703
30.81
31.6053
34.1327
59.4284
833.525
254.558
86.6321
52.0809
39.7669
34.7465
32.4102
31.1842
30.6634
30.2845
30.1343
30.0461
29.997
29.8628
29.8892
29.9234
29.9717
30.0564
30.1787
30.389
30.7441
31.5973
34.6837
70.3528
770.556
232.892
83.9645
51.1808
39.4295
34.5713
32.2925
31.0921
30.572
30.1898
30.037
29.9463
29.895
29.7599
29.7875
29.8238
29.8743
29.9614
30.0873
30.3038
30.6715
31.5873
35.3714
81.5593
701.636
215.865
82.1124
50.4115
39.1101
34.388
32.164
30.9906
30.4737
30.0905
29.9362
29.8432
29.7907
29.6562
29.6849
29.7232
29.7757
29.8649
29.9938
30.2151
30.5935
31.5811
36.1928
91.1036
637.094
202.064
80.6612
49.7758
38.8141
34.2046
32.0298
30.8821
30.3696
29.9868
29.8317
29.7371
29.6839
29.5518
29.5812
29.6213
29.6757
29.7668
29.8982
30.1233
30.5115
31.5835
37.1574
98.2557
579.786
190.603
79.368
49.2982
38.5436
34.0251
31.8933
30.7687
30.261
29.8793
29.7239
29.6281
29.5747
29.4465
29.4764
29.5179
29.5741
29.6671
29.8006
30.029
30.4267
31.5982
38.3243
103.558
529.906
180.897
78.1769
48.964
38.3043
33.8517
31.7564
30.6518
30.1487
29.7685
29.6131
29.5167
29.4632
29.3405
29.3707
29.4133
29.4709
29.5655
29.7011
29.9325
30.3402
31.6297
39.708
107.427
486.76
172.548
77.0769
48.7159
38.1028
33.6868
31.6205
30.5327
30.0337
29.6552
29.5
29.4033
29.35
29.2339
29.2641
29.3076
29.3664
29.4624
29.5997
29.8339
30.253
31.6883
41.1379
110.126
449.43
165.272
76.0597
48.5077
37.9381
33.5322
31.4867
30.4123
29.9168
29.5399
29.385
29.2883
29.2353
29.127
29.157
29.2011
29.2608
29.3578
29.4967
29.7336
30.1667
31.7885
42.4375
111.868
417.035
158.864
75.1166
48.3185
37.8025
33.3888
31.356
30.2915
29.7987
29.4233
29.2688
29.172
29.1196
29.0199
29.0496
29.094
29.1545
29.2522
29.3924
29.6322
30.0833
31.9366
43.5511
112.831
388.792
153.171
74.239
48.1403
37.6869
33.2558
31.2287
30.1708
29.68
29.3058
29.1516
29.055
29.0031
28.9128
28.9421
28.9867
29.0478
29.1459
29.2872
29.5302
30.0053
32.1243
44.4863
113.166
364.043
148.074
73.4196
47.9705
37.5844
33.132
31.1049
30.0507
29.5612
29.1879
29.034
28.9376
28.8862
28.8059
28.8347
28.8793
28.9409
29.0393
29.1815
29.4284
29.9348
32.3341
45.2641
113.002
342.241
143.484
72.652
47.808
37.4909
33.016
30.9844
29.9315
29.4426
29.0699
28.9161
28.8199
28.7692
28.6992
28.7275
28.7721
28.834
28.9325
29.0756
29.3273
29.8731
32.5496
45.9049
112.448
322.941
139.33
71.9311
47.6522
37.4041
32.9067
30.8671
29.8134
29.3244
28.952
28.7983
28.7023
28.6521
28.5928
28.6207
28.6651
28.7273
28.8258
28.9698
29.2277
29.8204
32.7592
46.4268
111.594
305.774
135.555
71.2525
47.5029
37.3226
32.8034
30.753
29.6965
29.2068
28.8345
28.6807
28.5849
28.5352
28.487
28.5143
28.5586
28.621
28.7194
28.8644
29.1301
29.7763
32.956
46.8457
110.517
290.436
132.113
70.613
47.3602
37.2459
32.7057
30.6422
29.5809
29.09
28.7175
28.5636
28.4679
28.4187
28.3817
28.4085
28.4526
28.5152
28.6134
28.7594
29.035
29.7395
33.1363
47.1757
109.282
276.676
128.966
70.0097
47.2241
37.1739
32.6136
30.5349
29.4668
28.9741
28.6011
28.4469
28.3514
28.3026
28.277
28.3033
28.3472
28.4099
28.508
28.6553
28.9428
29.7085
33.2984
47.4292
107.942
264.284
126.084
69.4403
47.0946
37.1067
32.5271
30.4315
29.3543
28.8591
28.4854
28.3309
28.2354
28.187
28.1728
28.1987
28.2424
28.3052
28.4032
28.552
28.8537
29.6821
33.4416
47.6168
106.543
253.087
123.44
68.9026
46.9717
37.0443
32.4463
30.3323
29.2436
28.7452
28.3705
28.2155
28.1201
28.072
28.0698
28.0952
28.1387
28.2015
28.299
28.4499
28.7678
29.6589
33.5661
47.7479
105.12
242.934
121.013
68.3944
46.855
36.987
32.3716
30.2376
29.1348
28.6323
28.2568
28.1014
28.0059
27.9582
27.9719
27.9969
28.0401
28.1029
28.1962
28.3495
28.6856
29.6382
33.6729
47.8308
103.706
233.7
118.781
67.9132
46.7437
36.9344
32.3029
30.1478
29.0286
28.5213
28.1493
27.9936
27.898
27.8506
49.7153
125.87
70.4786
56.1159
160.737
132.764
64.6154
159.517
162.016
77.0869
146.436
158.243
91.3352
1174.46
986.065
131.335
144.525
144.55
663.521
1128.94
494.337
127.554
128.882
43.0018
41.6295
63.7788
39.4983
463.787
148.47
105.021
49.6248
42.2873
34.9646
48.9665
45.0033
1198.22
950.787
131.378
57.8395
52.0015
35.5471
54.4534
49.5579
59.9423
204.103
174.14
769.929
1009.74
134.192
62.407
59.3099
36.4092
62.4703
55.2922
70.2284
343.588
251.96
483.591
604.117
37.5119
73.8705
63.7276
82.2173
617.901
459.129
2125.1
298.264
368.434
39.5165
103.721
75.7056
104.678
1281.66
906.332
413.554
512.401
636.342
116.087
155.048
75.8148
111.907
937.253
494.886
102.42
368.887
732.995
170.524
146.679
53.6927
203.358
227.012
161.515
198.347
1020.67
1194.72
146.65
929.169
823.134
749.535
930.807
145.225
246.133
209.23
61.0344
286.718
346.225
229.877
281.965
623.802
752.316
162.564
588.781
488.359
814.301
603.349
163.023
453.013
348.509
71.8117
445.03
600.735
350.348
439.766
379.485
468.834
898.463
630.005
82.8324
2493.79
865.622
1237.68
606.672
851.812
2635.2
277.016
290.387
2016.51
8059.82
1284.47
106.622
822.719
1777.65
6822.72
1240.4
1741.61
855.783
34.4682
44.5983
40.6765
47.1361
91.0161
66.678
1641.68
606.155
52.7942
143.292
118.962
3133.08
125.877
64.0568
63.047
3357.37
820.895
903.919
687.026
247.563
268.444
114.73
93.6866
47.8763
1217.56
164.401
460.954
121.58
333.387
94.2491
941.595
1304.61
151.921
382.472
314.734
475.357
393.027
153.631
1665.44
3189.13
1024.52
60.0891
50.9725
70.8984
122.022
61.6308
61.9292
1750.95
315.216
1545.97
421.363
1391.65
267.092
1018.15
1007.52
883.549
898.897
2004.18
2930.9
530.962
2130.65
1517.44
3150.21
2258.16
547.921
508.391
162.114
173.335
675.648
780.048
3168.63
959.119
239.671
260.639
214.672
232.795
944.404
1007.08
1197.24
128.698
776.261
673.642
1159.52
782.286
133.931
92.6123
305.646
127.757
589.372
344.4
97.891
521.841
838.817
741.509
715.338
209.137
1490.76
210.033
177.946
1347.52
1187.84
1477.01
1367.44
183.175
1083.57
1092.38
880.271
310.662
305.384
310.538
311.37
874.098
826.157
280.974
256.806
302.255
287.544
836.207
314.969
318.826
250.798
253.869
639.389
3184.11
652.208
487.138
499.086
397.227
403.347
1451.9
1062.25
427.846
1366.77
1913.07
689.851
194.133
209.204
177.268
189.655
680.766
1750.86
899.689
907.31
647.458
654.38
3543.29
1419.09
569.498
646.079
267.437
321.392
2848.91
4985.17
1799.34
2471.72
1259.3
4149.12
2595.48
3897.45
1273.32
975.726
3021.69
2127.51
1773.09
2016.5
2319.76
42.621
154.739
110.069
247.303
3950.42
7461.52
335.926
118.219
124.877
978.352
2442.72
2869.42
489.535
547.402
1351.91
227.874
241.739
662.647
117.295
82.9248
145.896
412.09
111.369
125.884
1163.3
1906.92
2031.92
979.512
824.754
1903.56
1650.05
2734.78
2746.37
969.013
302.766
119.815
126.213
111.934
117.773
293.912
149.205
158.677
501.696
1236.83
504.317
535.195
5930.16
2949.88
604.625
861.536
1767.39
1869.1
518.533
203.061
166.391
247.261
214.857
549.245
1050.01
2570.87
2710.39
1156.72
229.791
104.829
110.093
754.96
743.41
334.359
1594.42
1476.24
706.716
544.441
276.006
287.739
736.346
303.479
309.374
291.38
300.86
725.049
391.871
138.095
146.281
128.449
135.552
384.431
460.928
1115.15
1103.79
1645.11
1573.53
574.755
366.533
811.102
759.917
1100.61
1095.27
424.209
415.076
1018.89
749.73
3740.19
2140.22
882.793
1129.91
623.696
1720.08
1665.49
1884.66
731.008
3188.54
9126.62
458.888
634.964
544.331
573.976
1302.06
2030.08
1478.26
741.24
1870.58
5539.02
1869.17
1756.93
14571.4
1240.31
1654.04
1348.41
1564.63
1202.88
3289.41
3273.11
1646.41
1916.38
3536.23
1283.97
1312.12
258.609
1040.69
412.323
1118.3
302.972
2837.02
2390.55
1139.56
3053
3375.33
3139.4
2635.1
1408.95
3246.64
3721.62
2623.99
3090.53
3909.79
2125.61
2485.12
1757.93
2022.7
3713.31
1769.71
987.592
736.078
1281.59
1060.72
651.31
412.53
1055.37
2219.81
2424.19
1120.62
986.962
2070.84
2175.92
2087.15
1968.21
839.939
2928.77
2771.87
2401.06
2901.64
2672.91
951.565
2596.95
2138.07
2356.69
2488.5
1836.83
830.264
927.243
2683.54
1109.38
1240.41
967.311
1070.89
2571.71
2674.42
1353.57
1565.88
456.876
492.929
1167.41
923.974
425.638
448.156
1092.6
1122.23
764.75
264.31
292.685
219.405
254
760.233
920.159
342.591
390.049
300.992
328.248
839.881
484.969
180.911
208.471
707.643
723.994
1443.93
1565.02
826.6
1969.42
1807.6
2090.84
1432.29
1346.6
1767.63
1500.05
622.091
1236.47
1430.32
1535.98
509.574
619.07
471.79
492.686
1522.13
663.738
671.864
641.176
660.978
1289.04
420.632
433.581
399.194
416.086
1264.37
1430.29
454.516
467.293
437.845
450.399
1418.75
2364.1
2523.32
1058.93
1136.34
2224.92
2299.09
1028.47
1030.28
1019.86
1028.34
1043.52
1056.35
1031.61
1039.66
685.668
695.963
674.416
682.623
754.858
993.041
700
725.641
1506.3
1689.37
1285.7
1442.84
3222.66
2137.48
2305.98
1760.25
2059.95
1146.05
1118.66
466.353
1759.56
1794.34
1693.58
1747.1
1808.96
558.575
1552.69
1188.11
1086.28
878.479
374.498
1231.77
1502
1061.52
1126.42
1614.26
1674.04
1525.71
1593.55
419.106
1094.86
1094.06
3422.01
1572.56
3368.83
3030.87
3374.12
1648.42
3785.78
2034.62
3707.14
3366.14
886.691
1018.29
1787.96
1737.26
629.418
695.655
1861.77
1806.6
3386.2
1335.18
588.311
804.589
4820.12
5173.52
1939.68
4942.78
4084.69
2157.03
1242.66
4294.86
3033.92
5028.93
3211.88
1638.74
57.9608
40.1273
35.4384
3493.52
3472.87
114.353
63.8902
64.1516
3493.28
1336.79
2504.44
2144.22
306.36
247.049
138.761
254.867
164.964
427.782
1542.47
257.307
282.362
49.2098
58.1687
104.368
386.068
816.924
1013.24
189.961
92.3969
96.8152
86.9044
90.9872
185.822
1095.97
1273.89
2520.71
715.808
626.973
338.274
397.696
418.598
919.315
1072.88
1181.04
589.336
98.3529
103.159
224.534
299.389
718.448
698.054
674.958
559.867
267.766
812.147
367.13
390.511
3064.1
2917.72
2369.52
1669.39
1639.52
1228.23
2796.33
3420.14
3244.93
1736.31
937.748
1047.83
1800.78
1240.08
1724.35
1700.94
1716.34
1591.23
3273.95
2646.25
2800.08
3469.68
1838.38
1595.28
815.611
1245.23
154.19
119.439
233.91
1079.11
2258.75
1932.6
3899.95
3978.75
4063.87
3587.77
3796.85
79.6359
101.946
295.005
1597.16
1330.93
1243.56
1854.97
1717.94
2103.51
2784.56
2657.7
3301.07
3244.9
2739.34
735.155
802.989
1751.18
3048.01
2192.52
2307.89
2978.69
2358.27
2495.09
1030.95
1284.02
1175.37
772.074
544.323
549.136
1129.52
794.562
819.18
554.852
562.767
792.119
152.568
173.522
464.485
614.402
951.969
780.336
1176.84
1136.81
770.332
1659.91
1300.86
1318.21
905.72
913.171
1504.16
1486.56
1508.6
1342.62
1369.2
1325.39
845.314
850.388
827.374
830.224
1213.96
1462.11
891.825
898.74
855.958
861.936
1387.24
728.392
721.147
303.32
330.47
739.933
730.921
515.9
503.28
241.696
1593.67
1603.66
1522.99
1536.44
1757.7
1613.31
1622.93
263.857
542.169
520.432
3145.95
3123.87
2404.61
2492.5
3189.31
3084.65
3102.96
692.346
1431.52
1279.38
339.957
359.42
761.071
660.066
320.05
334.582
1217.56
1214.85
894.576
921.368
1236.11
1222.99
3528.13
1786.61
1216.23
1737.13
13524.5
2889.71
2039.43
3857.93
3416.5
1856.38
1838.02
1252.05
4272.69
4512.87
4448.39
3630.38
1312.01
1894.63
1873.66
2583.61
1439.59
1658.16
3357.62
3476.18
2928.63
2806.84
2214.87
1168.3
1439.54
1306.12
2581.07
3267.52
3096.32
3396.48
3354.9
2723.08
164.915
230.03
1169.67
2053.55
2016.3
2125.81
2094.25
1947.97
1481.5
1479.09
1488.48
1484.1
1981.96
2793.09
1709.36
1722.96
1650.23
1687.85
2813.13
1786.96
1436.39
1374.45
1475.61
1465.52
1828.09
2599.27
1746.44
1755.18
1733.98
1741.63
2666.14
2200.86
2159.5
2120.05
2181.61
1111.82
798.929
802.615
1621.17
1157.97
1157.89
1148.36
1156.55
1596.96
3576.98
3618.53
3293.86
3475.9
1699.08
1726.68
1646.02
1672.03
1966.19
1198.65
1615.26
1598.97
1702.84
1157.55
1158.63
1157.29
1157.12
1684.69
1600.85
1621.92
1347.94
1586.51
1970.27
3595.87
3519.65
2974.69
3653.9
1709.7
2217.62
11983.7
1290.29
967.011
977.959
1823.34
5605.42
5560.6
8986.94
5244.42
4803.62
1766.18
1745.97
1239.47
1689.96
1622.12
1737.12
1534.48
1736.42
1522.67
1200.6
1773.36
1623.93
3315.82
3307.79
3504.78
2957.9
3157.22
1264.93
1412.09
963.819
513.293
632.136
995.31
1043.76
744.354
950.781
1220.1
3233.24
3438.89
3331.4
3439.38
3894.77
3866.75
3627
2775.21
3513.44
3277.72
3832.43
3731.21
2934.9
3171.75
3359.68
4002.11
3512.56
2852.45
3001.05
1555.79
1404.67
1643.26
1185.92
1438.79
1602.86
1658.93
1605.19
2253.84
1579.9
1532.59
1979.52
1703.09
2302.07
2103.84
1497.94
1493.17
1513.65
1504.62
2143.69
2049.99
1396.67
1418.44
2892.88
2845.32
2575.09
2912.99
2929.47
2768.48
2652.4
2688.22
2401.97
1533.97
1595.07
1444.56
1481.58
2228.74
3152.3
2964.7
2222.79
3376.2
3349.07
3342.23
2608.15
3270.56
3262.04
1968.23
2073.05
2860.23
1061.27
1151.29
652.705
739.933
1107.07
807.006
575.444
600.236
1022.06
983.06
676.851
1096.99
1210.61
740.567
1103.25
1064.32
1455.3
1191.01
1170.76
1277.12
1220.89
1486.19
1915.04
1842.85
1404.19
1751.54
1798.23
1639.52
1691.59
1382.41
1728.58
1847.47
1990.48
1692.88
978.364
1078.68
1562.89
1513.03
921.962
937.95
1441.66
1464.1
1394.31
1418.42
838.263
841.642
1308.58
1239.05
832.293
834.942
878.686
884.966
1445.69
1405.66
867.955
873.344
2420.16
1778.43
1789.51
1762.34
1768.54
2454.69
2225.25
1886.88
1996.09
1806.07
1833.7
2266.26
1028.89
1538.75
1518.02
1571.83
1555.76
1029.37
1027.08
1446.79
1424.36
1495.6
1472.05
1028.32
1047.74
1665.23
1649.65
1690.06
1679.04
1052.05
1033.45
1601.31
1586.94
1633.96
1617.85
1036.25
1572.41
1583.26
688.903
981.361
977.986
988.814
984.956
692.321
1549.08
1561.04
1652.92
1673.15
820.1
1162.93
1060.95
1403.84
1389.52
927.902
704.93
998.252
993.088
1020.83
1005.69
712.186
1632.12
1641.55
2958.92
3097.51
3180.58
2601.55
2775.26
2194.89
3086.71
3123.22
2987.62
3045.48
2245.92
1852.26
2726.55
2537.63
3081.32
2934.09
1959.03
1130.47
818.947
833.042
806.576
811.483
1123.2
1771.29
1782.6
1713.42
1733.91
1831.85
1924.7
1536.59
1048.72
1119.12
863.881
933.081
1295.53
1466.19
1844.54
1757.13
1480.85
1069.26
1712.15
1701.1
1736.29
1723.57
1084.96
1634.45
1654.43
1549.31
1571.9
3335.23
2582.88
2704.62
2308.28
2448.02
3225.11
3209.1
3327.71
2834.82
3017.72
3407.88
3681.61
2956.17
3107.46
2651.11
2805.51
3576.64
1784.2
1801.11
1747.1
1766.27
1372.36
1273.64
951.545
1850.38
1875.45
1817.32
1833.27
1770.46
1166.2
1170.47
1160.46
1162.97
1753.99
1846.71
1201.55
1242.19
1176.24
1184.95
1826.07
3497.05
999.821
1055.04
1442.33
4605.17
7388.9
7475.67
6419.39
6734.97
4886.24
2147.66
4641.62
3586.06
3801.29
1246.5
1812.27
1788.48
4297.98
4605.19
4689.68
4035.21
4327.71
5066.5
4725.78
3412.4
4337.55
4079.32
2008.55
1925.58
1412.49
31.7534
31.7616
31.8494
31.7653
31.7796
31.8584
31.7856
31.8072
31.8727
31.8154
31.8408
31.8908
31.8489
31.8691
31.9071
31.8738
31.8796
31.9141
31.8787
31.8682
31.9084
31.8624
31.8411
31.8936
31.8333
31.8101
31.8766
31.8028
31.7839
31.8624
31.6364
31.6539
31.7335
31.6616
31.6921
31.7553
31.7049
31.7497
31.7888
31.7661
31.8178
31.829
31.8343
31.8749
31.8622
31.8836
31.8921
31.8741
31.889
31.8643
31.8601
31.8522
31.8092
31.8282
31.794
31.7491
31.7913
31.7349
31.6964
31.76
31.5276
31.563
31.6294
31.5786
31.6389
31.6751
31.6637
31.7588
31.7434
31.7971
31.9251
31.827
31.9681
32.0737
31.8972
32.0947
32.1008
31.9165
32.0858
32.0068
31.8802
31.9738
31.8691
31.8124
31.8339
31.7381
31.7405
31.7105
31.641
31.6788
31.4321
31.4938
31.543
31.5208
31.6327
31.6322
31.6856
31.9119
31.7797
32.0146
32.4205
31.9947
32.5838
33.0357
32.1963
33.1208
33.0543
32.226
32.9491
32.5766
32.0897
32.456
32.1371
31.9096
32.0483
31.8295
31.749
31.7707
31.6307
31.6333
31.3518
31.4488
31.4807
31.4923
31.7006
31.6424
31.8073
32.3309
31.9859
32.6159
34.2062
32.6808
35.1521
39.3643
33.6442
39.8589
38.0791
33.6271
36.9908
34.4931
32.8674
33.9497
32.8638
32.2629
32.6197
32.0946
31.8763
31.9686
31.6898
31.638
31.2838
31.4207
31.4405
31.4882
31.8301
31.7289
32.0135
33.0177
32.4864
33.6511
39.8218
35.1085
38.3779
43.9191
37.6445
56.9534
54.1849
42.0264
43.7361
40.2912
37.8257
37.8818
34.394
33.1603
33.7721
32.6009
32.1968
32.3512
31.8358
31.7179
31.2237
31.4022
31.4155
31.496
31.9659
31.866
32.2161
33.5895
33.1874
34.1241
35.3272
34.9959
45.3011
50.6807
48.938
81.3416
56.7045
49.1287
44.3659
36.7352
34.9208
35.5052
33.3436
32.7682
32.9135
32.0652
31.8866
31.1675
31.3861
31.3982
31.5031
32.0724
31.9954
32.3668
33.9498
33.6919
34.7274
36.1818
36.0088
51.0175
59.8396
58.5563
121.935
76.3701
69.8481
50.354
39.1938
37.3732
37.369
34.1804
33.5514
33.5553
32.3405
32.1318
31.1137
31.3706
31.3821
31.5079
32.1608
32.0953
32.4917
34.3005
34.0314
35.2271
37.0291
36.7752
57.9175
77.6414
74.5519
134.891
85.5832
83.4927
54.1618
41.143
39.7416
38.9148
34.9411
34.3828
34.1516
32.6117
32.4105
31.0625
31.3586
31.3673
31.5148
32.253
32.1829
32.626
34.783
34.4053
35.9388
38.3606
37.9847
67.2875
97.2981
93.0584
130.859
85.8677
86.3844
55.9023
42.3795
41.5218
39.9525
35.5152
35.105
34.6143
32.8352
32.6732
31.0143
31.3516
31.3564
31.5274
32.3635
32.2788
32.7929
35.4507
34.9335
36.9482
41.1762
39.6762
81.1175
126.818
120.097
119.972
89.7227
90.4021
56.1792
42.954
42.5806
40.4856
35.8646
35.6238
34.9056
32.9846
32.88
30.9782
31.3687
31.3507
31.5706
32.5505
32.3948
33.0787
36.6488
35.6476
38.1897
44.9583
43.5338
97.5651
177.933
165.618
807.621
423.097
472.861
102.028
62.7688
63.6699
55.639
43.0407
43.0138
40.619
36.0095
35.9183
35.0341
33.0529
33.0089
30.9324
31.3678
31.3693
31.5906
32.7022
32.5889
33.3318
38.0442
36.9361
40.8024
48.6543
49.3671
183.836
516.66
396.931
425.899
206.038
222.514
96.1928
61.071
62.4309
54.5491
42.7915
43.0105
40.4776
35.9966
36.0202
35.034
33.0504
33.0582
30.8822
31.3594
31.3666
31.6039
32.8598
32.7406
33.6216
40.491
38.5256
48.4922
308.455
198.545
851.43
510.487
598.945
291.827
110.991
116.227
91.3155
59.4026
60.6419
53.405
42.391
42.6943
40.1822
35.8683
35.9708
34.9312
32.9818
33.0376
30.8255
31.3402
31.3558
31.6065
33.0523
32.9044
34.016
44.2286
41.3326
56.9852
396.537
336.506
845.525
429.201
487.008
260.944
105.612
109.481
87.4529
57.9148
59.0087
52.3291
41.9601
42.2866
39.8529
35.6981
35.8293
34.7877
32.8813
32.9594
30.7614
31.3107
31.3339
31.6
33.2935
33.1075
34.5337
48.9373
45.3202
67.5124
437.266
410.157
787.561
372.653
413.226
237.801
101.881
104.545
84.5442
56.662
57.5817
51.3941
41.536
41.8525
39.5132
35.5011
35.6508
34.6166
32.7571
32.8522
30.6904
31.2738
31.3021
31.5899
33.6009
33.3639
35.1874
54.5183
50.2484
78.8465
450.768
442.651
718.678
331.141
361.115
219.774
99.1147
101.133
82.5241
55.6173
56.383
50.5932
41.1423
41.4349
39.1884
35.2959
35.4503
34.4344
32.6198
32.7239
30.6136
31.2336
31.264
31.5823
33.9831
33.6897
35.9757
60.7523
56.0504
88.9556
448.666
451.378
652.596
299.406
322.429
205.265
96.726
98.4945
81.0064
54.7903
55.3895
49.9219
40.784
41.0499
38.8864
35.0925
35.2449
34.2505
32.4763
32.5845
30.5325
31.194
31.2237
31.5822
34.4421
34.0909
36.9013
66.656
62.3046
96.6691
437.971
446.605
593.397
274.357
292.599
193.282
94.5639
96.1671
79.6828
54.2014
54.6226
49.4036
40.4629
40.7006
38.6093
34.8955
35.0429
34.0698
32.3308
32.4402
30.4483
31.1581
31.1847
31.5935
34.9905
34.5702
38.0108
71.4253
67.9688
102.386
422.825
434.49
541.701
254.065
268.888
183.179
92.6019
94.0566
78.4674
53.7878
54.0864
49.0382
40.1869
40.3897
38.3615
34.7073
34.8479
33.8948
32.1856
32.2946
30.3621
31.1287
31.1502
31.6202
35.6717
35.1466
39.3502
75.0851
72.4359
106.585
405.655
418.66
496.952
237.275
249.571
174.52
90.8187
92.1413
77.3452
53.4592
53.7013
48.774
39.9645
40.1267
38.1502
34.5305
34.6622
33.7275
32.0423
32.1498
30.275
31.1103
31.123
31.6707
36.5093
35.8684
40.7894
77.8911
75.8621
109.556
387.864
401.231
458.255
223.132
233.51
166.998
89.1912
90.399
76.3079
53.1668
53.3847
48.5586
39.7914
39.9177
37.9769
34.3678
34.4888
33.5703
31.9022
32.0071
30.1883
31.1107
31.1085
31.7594
37.4237
36.7364
42.1314
80.0106
78.4839
111.52
370.249
383.423
424.703
211.045
219.929
160.389
87.6981
88.8067
75.3469
52.8935
53.0978
48.3657
39.6534
39.7548
37.835
34.2199
34.3298
33.4241
31.7663
31.868
30.104
31.1388
31.1151
31.8959
38.305
37.6514
43.2924
81.56
80.4514
112.663
353.251
365.931
395.485
200.587
208.283
154.527
86.3209
87.3439
74.4534
52.6345
52.8284
48.1851
39.5373
39.6234
37.7151
34.0858
34.1856
33.2886
31.6351
31.7333
30.0244
31.1985
31.1511
32.0753
39.0966
38.5135
44.2705
82.632
81.8737
113.143
337.097
349.129
369.916
191.447
198.18
149.29
85.0449
85.9931
73.6198
52.388
52.5726
48.0133
39.4345
39.5112
37.6098
33.9631
34.0545
33.1627
31.5086
31.6033
29.9519
31.2859
31.2184
32.2813
39.7855
39.2797
45.0858
83.3059
82.8395
113.093
321.886
333.204
347.422
183.39
189.329
144.58
83.858
84.7401
72.8395
52.1529
52.3289
47.8489
39.3402
39.4109
37.5144
33.8498
33.9344
33.0448
31.3865
31.4779
29.888
31.3924
31.3116
32.4968
40.3757
39.9434
45.7592
83.6507
83.4254
112.628
307.644
318.234
327.533
176.238
181.513
140.322
82.7504
83.5735
72.107
51.9286
52.0965
47.6913
39.2519
39.3182
37.426
33.7441
33.8231
32.9339
31.2685
31.3569
29.8331
31.5087
31.4214
32.7088
40.8763
40.5104
46.3094
83.7269
83.6979
111.841
294.352
304.231
309.862
169.851
174.563
136.455
81.7141
82.4841
71.4179
51.7146
51.8747
47.5403
39.1684
39.2312
37.3432
33.645
33.7191
32.8292
31.1546
31.2399
29.787
31.627
31.5388
32.9093
41.297
40.9903
46.7529
83.5877
83.7158
110.814
281.968
291.17
294.089
164.12
168.349
132.932
80.7429
81.4643
70.7685
51.5103
51.663
47.3959
39.0893
39.1488
37.2653
33.5517
33.6215
32.7301
31.0446
31.1269
29.7485
31.742
31.6568
33.0941
41.6469
41.3925
47.1041
83.2795
83.5304
109.613
270.443
279.006
279.954
158.956
162.766
129.714
79.8314
80.5081
70.156
51.3157
51.4611
47.258
39.0144
39.0707
37.1921
33.4641
33.5297
32.6366
30.9387
31.018
29.7163
31.8501
31.7704
33.2608
41.9344
41.7261
47.3757
82.8425
83.1866
108.295
259.719
267.685
267.237
154.287
157.731
126.767
78.9754
79.6106
69.5778
51.1304
51.2687
47.1267
38.944
38.9969
37.1236
33.3821
33.4435
32.5486
30.8371
30.9131
29.6888
31.9491
31.8765
33.4088
42.1667
41.9992
47.5789
82.3109
82.7229
106.907
249.74
257.151
255.754
150.053
153.175
124.065
78.171
78.7673
69.0319
50.9543
51.0855
47.0019
38.8782
38.9276
37.06
33.3058
33.3629
32.4664
30.7403
30.8127
29.665
32.0378
31.973
33.538
42.3503
42.2189
47.7233
81.7139
82.1724
105.487
240.452
247.349
245.35
146.205
149.041
121.584
77.4146
77.9748
68.5161
50.7867
50.9114
46.8835
38.8171
38.8628
37.0012
33.2354
33.288
32.3901
30.6485
30.7171
29.6437
32.1157
32.0591
33.6492
42.4912
42.3913
47.8176
81.0757
81.5629
104.067
231.808
238.226
235.895
142.7
145.281
119.303
76.7028
77.2295
68.0279
50.6267
50.7456
46.7707
38.7605
38.8028
36.9474
33.1709
33.219
32.3198
30.562
30.6266
29.6265
32.1827
32.1344
33.7426
42.5961
42.5225
47.873
80.4326
80.9177
102.695
223.789
229.734
227.299
139.52
141.856
117.22
76.0407
76.5278
67.5718
50.4768
50.5872
46.6656
38.7103
38.7471
36.9005
33.1156
33.156
32.2592
30.4857
30.5414
57.5334
56.6214
49.1335
118.416
170.946
195.324
79.1283
89.8207
78.2502
73.5316
70.2358
55.3053
158.921
247.582
248.224
202.621
221.376
139.027
91.7163
87.8646
63.3693
160.784
224.327
216.082
247.759
244.609
162.795
118.01
112.143
75.2337
148.313
177.935
174.881
197.297
194.208
156.809
161.86
151.463
87.1881
1220.69
1502.92
1433.91
762.455
799.454
1042.92
136.858
239.779
220.922
171.818
168.871
142.611
368.206
306.704
133.039
718.114
1413.2
1390.22
2036.83
1749.26
1137.95
366.374
379.623
585.549
121.445
197.894
187.743
215.552
201.787
123.03
63.1284
47.0399
39.3873
1392.84
959.873
1886.64
39.1395
46.6583
55.1624
1617.61
1609.41
58.0286
63.2648
70.4442
41.1644
51.9109
45.9992
434.056
531.928
581.873
189.223
241.776
183.173
67.3986
59.3841
87.6089
47.1463
53.3438
56.8985
46.3428
49.7575
44.6621
36.5533
36.3591
34.8457
47.1543
38.2627
38.7968
37.7489
38.1215
46.513
1197
1573.81
1572.26
1188.09
1194.21
961.816
82.4654
78.1619
124.915
56.1405
65.9174
68.1578
60.2572
63.29
54.1928
37.6367
37.3175
35.379
52.1615
39.9708
40.7804
39.0048
39.7176
51.4652
81.9695
78.6968
58.9047
199.024
148.421
151.532
131.98
134.518
177.911
788.834
973.898
950.389
1279.48
1265.82
997.981
86.4257
85.9743
135.051
61.5828
72.7403
73.6226
70.0325
71.5552
60.5569
39.2128
38.7703
36.1643
59.0804
42.3248
43.4515
41.0615
41.9908
58.0628
103.466
98.7832
68.7227
328.195
206.857
211.005
182.71
186.796
258.552
498.815
634.958
611.731
954.614
869.054
584.923
43.0812
41.6943
37.2207
69.1789
45.5133
47.1743
43.8606
45.0352
67.8325
136.816
129.227
83.2248
556.22
309.033
304.629
261.426
268.233
477.102
1713.22
1805.42
2244.7
326.261
601.318
533.607
447.666
433.448
358.032
48.697
45.5017
38.7448
84.7314
50.5616
55.2938
47.7838
49.7856
82.1073
197.136
182.463
99.2408
1278.83
938.659
947.442
667.596
675.858
911.205
2762.82
3584.26
285.911
580.081
2646.15
2027.1
1330.17
1174.1
662.653
120.049
184.791
157.287
285.682
259.267
147.71
81.1368
95.0258
86.528
146.093
137.749
107.406
919.138
1163.45
1179.16
628.658
671.155
526.415
134.961
162.223
110.537
406.223
299.373
274.708
425.251
406.078
663.782
160.563
81.8499
85.5972
78.0306
80.7267
157.355
54.5378
68.8957
64.0299
208.661
377.848
362.247
483.285
470.966
218.688
167.145
308.365
292.493
358.232
346.424
193.351
1031
1302
1291.33
1566.31
1553.9
1187.44
241.348
246.69
150.183
912.583
507.785
509.209
528.488
533.406
847.359
788.564
459.473
443.1
509.48
511.245
908.593
140.574
226.549
238.588
240.582
175.148
178.861
154.704
157.922
214.285
62.1767
86.6398
83.1031
291.182
372.723
366.192
437.908
433.267
342.21
238.726
499.218
487.265
358.372
349.567
277.002
643.683
1087.38
985.324
928.453
907.971
736.492
234.702
227.052
161.805
574.119
446.685
455.885
259.292
271.927
529.751
783.854
515.97
522.723
465.006
473.981
681.01
163.127
243.004
237.069
431.59
248.432
254.85
215.392
219.998
363.053
73.4784
110.301
105.106
450.309
590.889
585.947
826.659
822.458
594.103
354.861
448.534
442.833
581.067
576.257
434.534
390.871
478.423
462.687
589.251
568.665
454.723
884.114
644.178
657.594
306.123
315.8
653.449
85.9446
148.29
139.516
873.188
1210.03
1207.96
612.378
832.898
829.867
1199.33
1169.63
824.956
286.146
445.36
402.938
513.697
461.363
271.386
1917.17
1549.47
1628.3
11455.2
2320.39
3538.48
954.108
960.071
1286.45
119.247
239.568
202.27
1033.91
991.47
793.044
4727.19
4783.76
8880.42
891.551
1133.1
1081.09
35.8218
35.6009
34.3111
43.3035
37.2328
37.6349
36.4572
37.0716
42.7748
53.5989
52.259
46.286
82.0014
59.9335
62.465
56.6534
59.0069
78.4473
866.544
1147.2
825.114
62.7678
61.3646
51.8587
133.17
73.672
76.9609
68.9162
72.5076
129.767
90.947
85.5707
129.767
63.8517
74.816
74.8784
74.2372
74.626
63.5205
864.621
1517.48
1305.34
1143.18
1093.59
872.417
377.831
409.028
773.151
253.933
324.813
314.484
390.621
336.233
260.923
104.103
65.8413
68.0511
63.1796
65.1992