/*--------------------------------*- C++ -*----------------------------------*\
| =========                 |                                                 |
| \\      /  F ield         | OpenFOAM: The Open Source CFD Toolbox           |
|  \\    /   O peration     | Version:  v1912                                 |
|   \\  /    A nd           | Website:  www.openfoam.com                      |
|    \\/     M anipulation  |                                                 |
\*---------------------------------------------------------------------------*/
FoamFile
{
    version     2.0;
    format      ascii;
    class       volScalarField;
    location    "200";
    object      p;
}
// * * * * * * * * * * * * * * * * * * * * * * * * * * * * * * * * * * * * * //

dimensions      [0 2 -2 0 0 0 0];


internalField   nonuniform List<scalar> 
12556
(
623.933
623.298
621.674
618.165
613.318
602.35
584.29
555.159
510.82
446.448
358.146
245.301
112.948
-27.9855
-164.086
-284.371
-383.138
-459.714
-516.188
-556.108
-589.343
-604.917
-613.904
-618.135
624.318
623.939
622.874
620.342
615.53
606.239
590.252
566.092
526.154
466.497
381.994
270.306
135.318
-11.3398
-153.98
-279.601
-381.775
-460.125
-525.044
-562.614
-595.305
-609.128
-616.981
-620.653
625.288
625.496
625.683
625.249
621.946
616.573
605.956
586.083
553.473
500.627
419.09
301.906
150.731
-17.6072
-178.105
-312.463
-415.237
-489.281
-549.897
-581.221
-609.266
-619.282
-624.731
-627.246
626.34
627.373
629.292
631.759
631.096
631.422
628.803
617.116
597.467
558.814
487.006
363.901
181.817
-31.315
-225.483
-372.816
-473.84
-539.23
-588.478
-609.457
-629.528
-634.04
-636.05
-636.905
626.597
628.561
632.428
638.23
641.198
648.551
656.373
657.078
656.999
644.284
599.534
480.508
240.766
-67.6796
-319.82
-479.43
-565.992
-609.595
-639.568
-645.663
-653.381
-650.903
-648.735
-647.575
625.156
628.045
633.845
643.01
650.218
664.955
683.913
699.646
725.846
755.01
772.191
707.67
361.282
-181.152
-516.021
-651.697
-693.841
-700.034
-699.615
-686.117
-677.809
-667.422
-660.665
-657.309
621.164
624.857
632.328
644.415
655.938
677.297
706.257
736.771
788.655
865.572
987.989
1174.22
728.42
-600.904
-895.521
-903.498
-855.027
-802.385
-760.986
-725.58
-699.133
-680.889
-669.664
-664.183
613.86
618.132
626.789
640.941
656.244
682.395
718.305
759.882
828.236
932.297
1110.53
1497.45
-1935.01
-1494.76
-1204.6
-1020.8
-899.011
-813.318
-757.091
-713.185
-688.364
-673.454
-666.221
602.67
607.229
616.454
631.6
649.734
678.227
717.078
763.957
835.618
934.341
1062.61
1174.91
-3351.81
-1995.04
-1439.46
-1142.77
-966.046
-844.654
-773.702
-716.228
-687.242
-670.036
-661.699
587.289
591.822
600.963
615.974
635.773
664.145
702.262
749.422
815.925
899.531
990.46
1060.18
-3292.44
-2067.53
-1496.16
-1175.67
-982.883
-846.287
-770.196
-705.84
-675.857
-658.124
-649.5
567.711
571.921
580.369
594.212
614.497
640.656
675.236
719.332
777.741
849.695
929.137
1006.05
-2543.51
-1787.3
-1372.72
-1112.18
-944.363
-815.868
-745.663
-681.705
-653.914
-637.421
-629.336
544.189
547.816
555.07
566.933
586.629
608.92
637.919
676.646
725.446
787.836
865.416
965.999
-1691.61
-1354.63
-1140.36
-978.959
-861.36
-758.618
-702.694
-645.497
-622.455
-608.621
-601.755
517.239
520.106
525.794
534.974
553.129
570.408
592.402
623.751
660.347
709.146
778.19
893.72
-726.509
-875.421
-918.31
-878.185
-815.047
-753.21
-684.25
-646.497
-600.378
-583.506
-573.185
-567.986
487.499
489.545
493.556
499.915
515.892
527.583
541.642
564.145
585.6
612.569
648.514
739.69
222.98
-367.127
-575.997
-645.206
-654.345
-639.28
-603.084
-583.373
-549.898
-539.579
-533.046
-529.676
455.748
456.895
459.079
462.375
475.603
481.273
486.995
499.676
504.431
504.462
490.199
425.204
174.808
-158.041
-362.454
-468.961
-517.083
-533.354
-523.322
-518.809
-497.483
-493.214
-490.219
-488.609
422.766
423.042
423.472
423.883
434.308
434.524
432.834
436.346
427.092
406.629
364.471
273.348
120.742
-82.1143
-242.59
-347.811
-409.389
-442.156
-449.987
-456.669
-445.749
-446.519
-446.53
-446.449
389.332
388.84
387.746
385.673
393.382
388.96
381.271
377.434
358.365
326.283
275.074
191.714
83.729
-52.5645
-172.704
-263.784
-326.28
-366.18
-385.281
-399.364
-396.506
-401.126
-403.487
-404.59
356.15
355.025
352.689
348.619
353.907
345.93
333.933
324.916
300.325
263.888
213.125
141.865
59.8285
-39.1549
-130.865
-206.555
-263.979
-305.006
-329.693
-347.946
-350.859
-358.11
-362.172
-364.125
323.797
322.184
318.903
313.356
316.638
306.204
291.501
279.303
252.452
215.855
168.929
108.768
43.7546
-32.0223
-103.935
-166.436
-217.086
-256.044
-282.628
-302.678
-309.299
-318.127
-323.265
-325.811
292.714
290.758
286.827
280.298
282.012
270.102
254.012
240.201
213.196
178.503
136.357
85.4843
32.5092
-27.62
-85.3668
-137.203
-181.112
-216.647
-242.929
-263.196
-271.938
-281.498
-287.21
-290.072
263.218
261.051
256.732
249.657
250.211
237.621
221.137
206.823
180.897
149.006
111.63
68.3806
24.3894
-24.5222
-71.7754
-115.078
-152.884
-184.597
-209.382
-228.884
-238.588
-248.272
-254.167
-257.146
235.505
233.241
228.757
221.487
221.237
208.572
192.388
178.308
154.122
125.327
92.3769
55.3979
18.3822
-22.1025
-61.3247
-97.7498
-130.226
-158.18
-180.888
-199.071
-208.936
-218.327
-224.129
-227.077
209.676
207.405
202.928
195.738
194.975
182.668
167.241
153.857
131.723
106.018
77.0591
45.2901
13.856
-20.0663
-52.9623
-83.7746
-111.657
-136.107
-156.522
-173.11
-182.617
-191.451
-196.973
-199.79
185.743
183.535
179.199
172.286
171.242
159.585
145.195
132.78
112.803
90.0389
64.645
37.2522
10.3951
-18.2658
-46.0521
-72.2207
-96.1504
-117.422
-135.527
-150.425
-159.255
-167.379
-172.505
-175.127
163.663
161.568
157.466
150.97
149.82
138.998
125.802
114.501
96.6714
76.6379
54.4232
30.7501
7.71965
-16.621
-40.194
-62.4686
-82.988
-101.412
-117.294
-130.51
-138.486
-145.825
-150.49
-152.883
143.343
141.397
137.596
131.604
130.479
120.6
108.668
98.5474
82.7892
65.2625
45.8875
25.4147
5.63733
-15.0879
-35.1247
-54.0905
-71.6515
-87.5363
-101.335
-112.937
-119.973
-126.504
-130.682
-132.827
124.666
122.891
119.429
113.998
112.995
104.109
93.4574
84.5292
70.7362
55.4998
38.6705
20.9813
4.00858
-13.6407
-30.6617
-46.7814
-61.7592
-75.382
-87.2544
-97.3397
-103.409
-109.143
-112.83
-114.724
107.487
105.896
102.799
97.9532
97.1444
89.266
79.8772
72.1245
60.1769
47.0331
32.4977
17.2577
2.73357
-12.2594
-26.6716
-40.315
-53.0205
-64.6234
-74.7267
-83.4052
-88.5134
-93.4821
-96.6891
-98.338
91.6523
90.2518
87.5292
83.281
82.719
75.839
67.6757
61.0655
50.8425
39.6158
27.1592
14.0989
1.73857
-10.9271
-23.0542
-34.5192
-45.2092
-55.0008
-63.4822
-70.8639
-75.0372
-79.281
-82.028
-83.441
77.0006
75.7935
73.4501
69.7964
69.5219
63.6179
56.6333
51.125
42.5124
33.0505
22.4917
11.3921
0.970268
-9.62899
-19.7295
-29.2566
-38.1431
-46.3008
-53.2935
-59.4831
-62.7558
-66.319
-68.6303
-69.8192
63.3646
62.3508
60.3844
57.32
57.3687
52.4126
46.557
42.1086
35.0028
27.1763
18.3685
9.05454
0.392237
-8.34996
-16.6302
-24.4142
-31.672
-38.3451
-43.967
-49.0599
-51.4639
-54.3892
-56.2886
-57.2654
50.6003
49.7768
48.1841
45.6971
46.0914
42.051
37.2752
33.8472
28.1571
21.8588
14.6833
7.02278
-0.0241758
-7.07315
-13.6967
-19.8953
-25.6688
-30.9824
-35.3361
-39.4172
-40.9917
-43.3194
-44.831
-45.6091
38.4685
37.8392
36.6204
34.712
35.5158
32.3753
28.6337
26.1897
21.8361
16.9785
11.3431
5.23423
-0.300883
-5.77738
-10.8732
-15.6137
-20.0225
-24.0823
-27.2565
-30.3974
-31.126
-32.8826
-34.0215
-34.6057
27.0777
26.6214
25.7595
24.402
25.544
23.2479
20.4962
19.0008
15.9112
12.4234
8.26792
3.64551
-0.442895
-4.43691
-8.10313
-11.4894
-14.635
-17.5328
-19.606
-21.8711
-21.8819
-23.1111
-23.9071
-24.3248
15.3513
15.1289
14.6663
13.9238
15.8821
14.5323
12.743
12.1589
10.2544
8.07616
5.37371
2.22626
-0.446323
-3.01432
-5.32543
-7.44268
-9.41664
-11.2402
-12.2765
-13.7046
-12.5094
-13.1752
-13.6006
-13.7988
6.85117
6.67498
6.4543
6.03712
6.91279
6.04839
5.23682
5.55967
4.72337
3.78818
2.56454
0.926743
-0.282046
-1.46061
-2.47185
-3.38908
-4.27774
-5.13437
-5.12602
-5.77218
-5.4495
-5.8155
-6.01642
-6.18057
1205.26
-3551.57
-2015.38
1068.25
-3581.65
-3640.37
1011.31
-2765.88
-3504.75
972.097
-1844.17
-2649.52
900.984
-779.703
-812.823
-987.76
-1731.6
763.218
307.742
-737.412
179.243
-378.665
-894.712
1504.23
878.969
-1717.42
-430.336
-4385.67
-2274.91
-3264.85
-2102.08
-1593.47
1007.32
1061.07
1168.37
-5037.48
-5110.02
-3354.7
-2307.84
-2209.57
943.96
1001.82
1052.17
1037.15
1060.81
1090.06
-3846.32
-4509.07
-2648.55
-2034.87
-2274.17
882.741
957.501
996.107
991.995
1031.17
1035.26
-2589
-3128.36
803.587
888.961
950.892
938.501
1004.16
1021.95
-1495.96
-1434.65
-1930.34
684.891
752.399
877.204
847.681
941.149
969.086
490.981
277.316
315.241
1416.67
1154.13
2066.56
1484.78
-5100.92
-4458.73
-3084.39
-4281.01
-4963.7
1091.96
1098.18
1098.33
1095.15
1096.06
1139.26
1096.18
-4547.06
-5019.22
-3660.9
-4903.44
-4465.63
-4974.3
-4920.49
-3678.21
1037.08
1056.62
1029.97
1059.62
1039.48
1094.86
1062
-3207.47
-3795.12
-3105.95
-3702.78
-3139.98
-4427.88
-3790.96
-3214.55
1023.38
1031.39
987.482
1034.62
1027.63
1038.37
1034.08
-2002.25
-2514
971.683
1002.79
933.184
-1459.65
1008.5
976.315
1026.17
1010.06
-1493.9
-924.886
-1366.26
-1453.43
976.181
940.296
837.426
-46.4275
946.886
871.223
974.101
947.394
-119.228
1081.17
1195.23
1416.34
1379.27
1482.46
1951.5
-4925.37
-2407.38
1112.61
1100.58
1153.83
-3089.82
-1796.5
-1548.6
-1924.16
-1854.32
-1799.02
-2053.14
-168.521
-449.041
-795.699
1169.81
1421.6
1330.24
1091.26
2844.7
1978.66
-2218.31
-4114.49
-2856.99
-2093.66
-2373.61
-2187.17
-2471.02
-1975.57
-3064.12
-2543.69
-2302.74
-1098.1
-310.221
-444.296
1447.07
1746.66
2095.51
-1893.14
-216.087
1271.21
-5066.87
-3700.41
-4968.96
-2370.41
-4784.59
-3381.83
-5089.54
-5097.2
-4164.85
-4209.84
-2743.49
-3032.64
-2816.9
-3010.74
-2719.9
-3369.78
-3054.82
-2893.78
1012.21
983.5
973.537
-1478.24
-1718.44
-1788.99
952.437
913.632
896.373
934.092
918.953
953.879
1270.09
1109.55
1262.33
1131.18
1313.98
1057.14
1114.81
1226.3
1838.12
1973.79
2701.94
1362.01
1871.46
1741.98
1861.01
1325.72
-4915.36
-4877.27
1094.63
1084.68
1095.16
1109.55
1056.81
1058.72
1079.89
1059.39
1104.23
-4778.41
-4807.21
-4719.06
-4184.75
-4271.69
-4005.09
-4145.95
-4690.09
-4985.04
-4306.33
-4238.62
-4290.16
-4312.4
-4977.69
1047.47
1045.94
1082.38
1079.56
-3448.71
-3400.84
-3493.47
1032.54
1031.74
1033.31
1033.22
-2676.7
-2393.67
-2292.36
-2412.84
-2696.99
982.279
952.63
938.793
969.876
957.284
985.7
-1142.74
989.909
986.06
1017.02
1016.5
-1797.64
-1142.57
-1160.26
-1398.57
889.38
864.915
916.432
930.97
454.12
160.321
960.4
-304.001
116.726
-226.109
959.684
-359.462
-252.932
86.8548
-2549.07
-1982.18
-2115.57
528.275
505.664
720.859
620.516
633.554
902.934
192.151
-112.659
-275.906
3815.55
-2146.91
-2290.54
-850.089
-1081.03
-1098.89
-124.195
-351.02
-99.5106
2360.35
2501.82
2895.22
-1933.03
83.537
1856.14
-5074.5
-5538.85
-5509.04
-5118.36
-3981.89
-4160.51
-3992.43
-4748.11
-4617.15
-4387.84
1030.99
1015.85
1011.84
1023.16
1017.46
1031.23
994.903
986.553
1013.11
944.903
925.57
919.006
808.407
561.373
330.832
-5037.76
-5473.64
-5552.03
-4733.42
-3924.25
-3583.17
-4197.83
-4010.11
-4765.97
-4653.58
-4906.37
-4793.8
-4940.13
1043.4
1032.96
1025.41
1044.8
1045.42
1041.58
-3940.22
-3792.92
-3664.75
-3452.94
-3223.29
-3430.88
-4144.62
-3769.02
-3950.17
-3500.34
-3703.85
-4101.06
1028.26
1003.91
997.495
1010.5
1005.82
1029.08
1035.36
1049.39
1044.61
1040.27
1051.25
1031.34
1035.71
1039.88
1043.96
1042.56
1038.46
1032.83
-2219.34
-2354.71
-2090.72
-1328.56
-1324.32
1002.92
971.911
1021.11
1029
1039.73
1033.04
1012.38
-1620.07
819.249
855.479
822.859
916.335
905.881
932.944
129.311
362.222
138.726
943.122
425.487
642.597
488.193
521.469
962.416
955.276
-4211.57
-2745.29
-3832.68
-3202.01
-3254.01
-1817.42
-1940.89
-1957.94
1073.18
1064.66
2521.04
2770.41
3490.64
2558.74
2384.03
-2439.77
-2296.98
-2252.73
-2304.78
-2456.93
-1111.73
-952.577
-960.211
-958.835
-1115.61
-758.159
-909.9
-545.176
-562.55
-711.161
-366.217
-512.29
-453.441
-5320.33
-4697.79
-4210.18
-5141.23
-4831.75
-4020.59
-3338.3
-3958.88
-5411.76
-5376.66
-5077.56
-5115.41
-5488.55
-5431.19
-4364.33
-4212.16
-4028.8
-4263.63
-4427.68
-4045.5
-4215.72
-4468.4
-4344.18
-4574.63
-4410.15
-2869.82
-2919.75
-2890.56
-2811.96
-2930.93
-3232.8
-3137.71
-3264.16
-2971.51
-3095.93
-3185.6
-1671.34
-1648.52
-1774.18
934.383
928.131
942.558
956.403
942.985
937.263
1178
1158.22
1185.95
1266.67
1201.65
1395.08
1293.84
1209.7
1078.47
1132.32
1107.33
1184.29
1143.15
1087.27
1530.85
1585.15
1435.54
1572.26
1494.39
-5405.17
-5445.09
-5010.96
-5563.21
-5553.17
-5561.73
-5379.11
-5231.24
-5556.97
-5414.8
-4730.36
-5236.39
-5387.79
1086.33
1091.23
1096.63
1088.37
1090.73
1087.7
1107.33
1111.5
1099.91
1105.45
1054.46
1087.83
1083.77
1102.11
1090.33
1053.27
1073.9
1085.01
1087.2
1083.39
1084.59
1073.46
-5036.5
-4941.39
-4686.88
-4905.4
-5167.27
-5059.45
1054.92
1051.21
1063.23
1055.16
1046.43
1047.05
1049.04
1045.91
1102.06
1092.59
1111.54
1104.95
1074.61
1065.06
1089.24
1078.68
-3472.18
-3603.28
-3306.23
-3431.21
-3523.72
-3839.21
-3988.76
-3647.83
-3792.49
1042.98
1048.6
1034.99
1054.26
1045.54
1047.59
1055.84
1045.21
1031.04
1050.56
1041.98
1039.9
1039.15
1034.6
1043
1043.79
1046.08
1042.19
1039.22
1044.67
1038.64
1038.34
1032.71
1037.81
1038.55
-2469.57
-2535.58
-2592.82
-2457.79
-2637.67
-2574.64
-1127.85
-1282.87
-1312.32
-1124.82
1001.03
977.047
1026.57
1027.18
1019.67
1013.83
1034.9
1028.06
-1689.79
927
901.162
890.422
618.565
526.588
940.241
240.46
399.304
292.998
958.675
-450.268
-34.0849
182.571
-75.3489
941.046
-1686.11
-1393.21
-867.93
-2100.84
-2151.35
-1000.68
-1035.76
-1417.12
-2164.29
-917.1
-908.158
-762.181
-1906.24
-1454.92
-1400.4
3095.31
3337.71
3857.21
-1565.48
516.766
2549.57
-979.625
-518.003
-1895.89
-4064.62
-4604.87
-4915.86
1074.92
1061.29
1049.7
1075.72
1065.18
1079.48
-1479.18
-1605.64
-1621.28
-2012.06
-1777.07
-1715.62
952.481
946.009
959.467
-5008.34
-5186.81
-4684.5
1045.97
1035.91
1046.15
1053.8
1055.48
1062.95
1064.82
1073.49
1069.07
971.461
960.167
955.267
-1473.25
-1428.92
-1419.06
981.074
986.482
978.123
-1553.84
-1566.88
-1483.72
-1321.42
-1308.41
-1437.41
947.402
972.286
979.344
979.275
944.502
-4786.64
-3121.98
-1835.28
-1891.48
-1898.24
-2098.72
-1971.27
-1932.71
1078.34
-3439.37
-2919.64
-3446.1
-2213.06
-2266.18
-2137
-763.031
-779.096
-617.061
-618.118
-708.49
-948.166
-293.488
-1966.52
-5134.82
-4900.37
-4724.89
-5460.12
-5395.01
-2785.31
-2813.04
-2768.73
-3048.18
-3036.45
-3011.88
-2650.86
-2769.43
-2844.92
-3337.52
-3291.17
-3333.99
-1779.26
-1758.25
-1788.34
1228.72
1254.61
1126.72
1148.31
1176.52
1158.45
1057.22
1076.76
1073.39
1142.05
1128.01
1101.89
1842.55
1644.41
1603.6
1756.21
1708.94
1848.5
1297.61
1336.76
1372.81
1087.7
1090.01
1101.52
1084.94
1086.96
1087.17
1120.91
1124.12
1104.81
1104.83
1057.77
1065.53
1065.54
1071.52
1069.16
1057.65
1074.84
1078.56
1081.74
1067.02
1070.28
1065.24
1050.32
1054.35
1051.87
1042.71
1045.56
1048.68
1089.96
1098.48
1088.68
1101.36
1097.6
1126.16
1123.29
1065.12
1093.78
1089.95
1072
1076.99
1086.88
-3619.83
-3669.5
-3373.59
-3418.8
-3442.59
-3719.03
-3743.09
-3617.23
-3746.73
-3609.34
969.433
962.861
973.837
995.123
979.244
972.64
993.78
999.268
994.169
982.797
986.512
989.521
-1792.7
894.441
897.761
901.235
697.925
901.44
334.264
467.685
585.059
966.665
963.934
959.792
-359.497
-222.133
-196.874
-210.124
956.585
963.51
966.79
-106.497
-176.763
-318.489
-2017.81
-2051.93
-2138.13
-2093.37
-2074.78
3603.98
4276.77
3275.27
-2193.23
-2218.65
-2153.24
-2307.03
-2257.51
-2245.39
-835.389
74.9662
-1683.09
-5308.44
-5313.88
-5267.62
-5286.47
-5529.64
-5401.05
-5406.36
-5386.35
-5395.27
-5520.98
-4709.93
-4636.29
-4676.79
-4545.9
-4594.26
-4667.46
-5520.26
-5370.27
-5336.32
-5408.96
-5398.07
-5550.67
-4865.66
-4790.93
-4827.75
-4717.93
-4755.07
-4832.53
-5237.56
-5254.03
-5168.58
-5204.75
1048.41
1043.54
1044
1041.13
1037.99
1036.49
1042.23
1040.51
1044.85
-1431.11
-1481.78
-1321.53
-1388.8
1013.46
1014.92
1015.2
1012.56
972.051
975.82
986.292
968.764
1032.24
1029.8
1027.27
1035.19
1032.85
1036.63
1023.17
1021.83
1025.76
1009.14
1015.18
-1628.74
-1617.83
-1606.79
-1487.99
875.996
938.633
1090.94
936.751
926.898
922.924
946.971
364.685
346.33
1078.31
949.186
728.977
963.427
973.502
968.281
948.466
-4440.08
-4722.76
-4542.31
-3535.94
-3356.4
-2532.35
-4216.4
-3906.29
-3159.26
-3284.46
-1950.55
-1938.63
-1950.94
1075.44
1048.22
3019.85
2916.96
2725.55
2076.73
1944.88
2514.35
2265.28
2335.55
-2368.3
-2316.45
-2407.11
-971.327
-971.299
-959.509
-1061.23
-793.314
-778
-764.228
-902.323
-854.399
-847.778
-546.763
-602.343
-601.455
-435.519
-437.099
-479.781
-5184.39
-5056.1
-5234.03
-5043.92
-5260.46
-5349.55
-5363.16
-5305.61
-5389.83
-5299.21
-5312.95
-5300.91
-5288.54
-5373.38
-5465.29
-5356.42
-5372.72
-5327.88
-5341.82
-5448.52
-4316.93
-4247.24
-4294.08
-4314.6
-4375.01
-4096.54
-4120.19
-4084.1
-4165.62
-4516.15
-4557
-4523.19
-4441.33
-4494.59
-4341.02
-4390.8
-4463.81
-2903.77
-2834.61
-2820.79
-2847.91
-2782.2
-2830.9
-2969.88
-2995.35
-2946.89
-3199
-3240.25
-3268.34
1200.45
1141.2
1096.39
1083.83
1062.63
1094.02
1116.85
1106.87
1525.96
1602.36
1660.74
1831.2
1719.73
1427.78
1387.88
1454.81
-5418.56
-5253.48
-5232.67
-5300.97
-5275.47
-5433.71
-5567.85
-5556.82
-5348.15
-5511.15
-5520.75
-5451.55
-5500.15
-5304.76
-5540.66
-5545.24
-5593.82
-5476.46
1088.18
1090.74
1088.17
1088.28
1087.99
1088.33
1113.57
1117.15
1106.76
1110.1
1064.39
1065.1
1056.89
1054.72
1066.38
1064.59
1076.53
1076.96
1073
1070.36
1073.47
1075.6
-5008.46
-4926.86
-4955.35
-4861.36
-4894.04
-4972.28
-5125.12
-5054.77
-5121.94
-4981.49
-5011.34
-5088.96
1054.36
1055.44
1055.01
1052.23
1054.65
1053.13
1059.33
1056.59
1063.96
1053.47
1052.96
1056.27
1047.06
1048.71
1047.19
1049.77
1049.67
1047.34
1047.28
1046.83
1049.16
1045.61
1045.35
1046.15
1109.25
1105.33
1099.07
1102.43
1105.78
1095.36
1098.9
1095.9
1117.41
1112.83
1078.85
1076.33
1071.29
1074.13
1076.6
1067.88
1061.67
1065.75
1085.83
1088.14
1091.77
1080.88
1084.5
1082.29
1086.36
1082.78
-3551.27
-3580.19
-3494.51
-3467.24
-3503.07
-3883.82
-3914.24
-3874.39
-4024.27
-3963.61
-3932.97
-3689.69
-3724.73
-3689.9
-3830.39
-3786.46
-3741.8
1044.01
1040.56
1039.39
1043.52
1042.15
1046.25
1049.96
1046.66
1050.78
1053.61
1047.1
1037.28
1033.81
1034.99
1039.46
1038.07
1038.02
1044.01
1032.06
1034.78
1045.52
1044.39
1044.71
1046.61
1048.42
1044.97
1045.65
1043.65
1040.43
1042.22
1036.78
1037.4
-2550.49
-2533.26
-2580.68
-2446.4
-2490.12
-2521.57
-2700.3
-2735.31
-2621.86
-2637.26
-2648.11
-1251.12
-1252.12
-1306.09
-1134.98
-1188.75
-1200.78
1004.04
996.576
1015.37
1011.69
982.778
983.11
979.251
985.814
985.199
991.69
988.716
1026.13
1024.18
1024.21
1025.64
1024.66
1026.33
1033.36
1026.9
1026.24
1024.84
1025.89
1030.67
-1737.45
917.094
912.298
922.949
577.569
599.573
666.146
533.827
543.183
518.821
938.945
337.031
285.289
218.097
958.552
960.295
958.428
-427.566
53.9243
-6.60079
163.709
153.815
163.622
-26.5248
-146.746
-132.411
-34.8873
951.91
962.449
955.712
580.022
555.648
537.584
545.157
506.352
483.266
490.061
431.302
405.205
407.363
324.113
300.072
291.65
184.781
169.952
145.587
25.218
24.7364
-15.8176
-133.224
-120.278
-170.637
-271.705
-250.899
-302.369
-381.8
-359.02
-405.067
-463.571
-442.955
608.409
592.252
563.293
584.91
555.041
516.289
541.791
489.242
442.77
466.552
380.002
334.857
344.519
219.187
191.238
172.089
23.2708
24.9132
-26.5808
-167.604
-139.739
-210.379
-322.499
-281.618
-354.428
-434.24
-392.292
-456.129
-510.183
-473.007
646.523
643.163
603.756
640.819
627.623
570.939
620.314
584.556
509.11
566.309
483.389
400.362
444.067
286.482
232.094
222.222
13.7639
22.06
-54.8693
-238.367
-180.811
-289.807
-413.982
-340.638
-446.622
-521.625
-452.255
-539.959
-580.221
-525.716
689.192
703.712
657.875
708.614
722.375
649.376
725.88
727.648
615.569
722.953
672.178
520.421
635.025
425.488
311.855
321.642
-29.6705
8.21186
-138.713
-391.899
-265.924
-452.732
-576.76
-446.859
-601.878
-649.242
-549.602
-658.361
-673.543
-601.379
728.52
761.441
718.94
774.43
821.377
747.802
840.244
908.493
771.103
935.033
1014.47
740.587
1026.58
783.754
483.042
661.418
-250.811
-56.6724
-437.115
-736.957
-454.135
-779.147
-830.426
-630.285
-832.888
-820.57
-688.1
-812.804
-785.874
-700.313
755.844
802.432
773.829
821.328
892.081
843.131
921.965
1042.85
951.477
1099.28
1419.92
1126.82
1345.43
1512.75
1144.54
1033.23
-42.0021
173.427
-885.846
-946.221
-736.872
-1334.74
-1175.6
-910.583
-1129.89
-1013.64
-868.532
-981.208
-899.563
-815.018
764.804
816.3
808.57
836.696
909.75
901.582
938.689
1041.82
1054.57
1108.58
1170.69
1177.45
1469.53
1552.76
1594.56
-2641.07
-2186.41
-1730.88
-1904.91
-1492.1
-1264.61
-1394.72
-1174.99
-1059.68
-1119.37
-988.193
-925.286
754.685
803.941
815.434
822.86
886.69
906.793
910.085
983.528
1028.64
1043.61
1071.89
1096.69
1150.06
1149.6
1175.45
-3472.48
-2829.22
-2691.73
-2090.15
-1615.02
-1545.19
-1500.68
-1242.12
-1202.38
-1176.92
-1024.12
-1002.86
728.18
772.017
797.555
788.71
843.563
877.314
863.197
924.046
968.43
974.41
993.687
1010.64
1052.38
1060.89
1071.63
-3046.89
-2612.06
-2753.35
-1878.83
-1511.49
-1608.29
-1417.1
-1194.26
-1240.55
-1136.02
-996.256
-1023.02
688.402
725.45
761.633
739.757
787.241
830.708
804.659
862.02
909.257
914.246
934.338
948.557
1001.16
1012.7
1018.75
-2223.12
-2004.4
-2243.7
-1468.12
-1262.08
-1458.75
-1204.14
-1057.52
-1166.74
-1016.71
-914.01
-980.018
637.832
666.481
711.82
677.767
716.099
770.989
730.685
782.403
844.421
846.85
870.893
887.39
959.274
978.263
986.907
-1382.19
-1375.97
-1548.96
-1021.6
-964.393
-1188.77
-942.818
-877.674
-1014.75
-856.85
-799.009
-887.322
578.993
597.177
650.005
604.256
628.105
695.659
637.111
670.115
757.806
749.985
770.981
814.811
877.092
908.124
924.122
-474.723
-554.326
-775.036
-464.51
-620.71
-919.003
-649.449
-693.548
-891.947
-698.644
-697.009
-831.241
-692.845
-674.554
-767.944
515.8
522.404
579.647
524.539
529.952
605.38
530.995
530.485
637.824
608.747
616.267
676.752
699.524
703.442
780.446
246.224
28.1379
-72.3871
-191.501
-364.254
-541.474
-404.885
-489.079
-635.584
-507.402
-542.194
-655.27
-548.666
-557.975
-644.157
451.885
447.992
503.506
445.764
435.03
505.345
429.497
404.3
496.188
392.102
333.786
447.705
302.244
184.755
254.019
133.395
-41.5167
-86.0314
-94.6989
-230.432
-322.297
-267.02
-352.325
-449.164
-373.805
-422.034
-508.86
-433.607
-458.048
-531.251
391.615
379.795
430.202
374.576
353.699
413.293
344.628
309.269
377.873
294.415
233.76
303.49
208.256
124.392
165.945
91.4863
-21.5483
-34.08
-57.7995
-157.58
-207.75
-186.808
-261.297
-326.282
-281.849
-331.811
-397.204
-344.966
-375.762
-435.964
337.395
320.71
364.126
313.836
288.317
335.877
277.989
241.05
289.96
226.65
172.153
215.646
152.372
88.532
113.73
64.8866
-15.4682
-19.3303
-41.7037
-116.609
-145.201
-139.568
-201.04
-243.859
-218.947
-264.988
-313.059
-277.904
-310.131
-357.871
290.066
271.056
307.444
263.551
236.992
274.298
226.739
191.842
227.268
178.71
131.564
160.477
115.922
65.3513
81.8148
47.2091
-13.5192
-14.7736
-33.471
-91.4688
-109.234
-109.704
-160.062
-189.353
-175.256
-215.794
-251.287
-227.637
-258.401
-296.042
249.398
229.805
260.012
222.299
196.611
225.991
187.015
155.337
181.719
143.657
103.282
123.571
90.6042
49.4477
60.8214
34.9549
-12.8346
-13.2935
-28.5686
-74.7196
-86.6852
-89.4483
-130.927
-151.882
-143.731
-178.759
-205.569
-189.276
-217.366
-247.269
214.67
195.564
220.647
188.406
164.495
187.903
155.772
127.514
147.693
117.233
82.6748
97.5418
72.1849
38.0553
46.2439
26.1704
-12.487
-12.7437
-25.2227
-62.7453
-71.3777
-74.8275
-109.289
-124.941
-120.089
-150.149
-170.933
-159.347
-184.404
-208.473
185.017
167.005
187.943
160.369
138.598
157.51
130.794
105.793
121.595
96.7809
67.1262
78.3938
58.3053
29.6271
35.7068
19.707
-12.1676
-12.4194
-22.6693
-53.6752
-60.2612
-63.7121
-92.5814
-104.727
-101.723
-127.473
-144.001
-135.458
-157.521
-177.194
159.62
143.01
160.62
136.969
117.422
132.914
110.504
88.4754
101.106
80.5913
55.069
63.8377
47.5611
23.2389
27.8587
14.8574
-11.7807
-12.0871
-20.5547
-46.4805
-51.7343
-54.8992
-79.2478
-88.9799
-87.0123
-109.072
-122.524
-115.978
-135.256
-151.583
137.757
122.679
137.617
117.251
99.8698
112.733
93.7714
74.4173
84.6936
67.5275
45.505
52.4822
39.0589
18.3022
21.8798
11.1623
-11.3075
-11.6781
-18.7042
-40.5603
-44.9026
-47.6702
-68.3078
-76.3194
-74.9203
-93.8244
-104.999
-99.7823
-116.543
-130.291
118.828
105.307
118.084
100.477
85.1385
95.951
79.7838
62.8259
71.3149
56.8112
37.7757
43.4292
32.2076
14.4249
17.2388
8.31214
-10.7541
-11.1832
-17.0254
-35.5471
-39.2364
-41.5775
-59.124
-65.8675
-64.7635
-80.9596
-90.4078
-86.0886
-100.6
-112.332
102.333
90.3345
101.358
86.0752
72.6274
81.8229
67.9444
53.1345
60.2435
47.8924
31.4302
36.0826
26.6042
11.3436
13.5819
6.09731
-10.1336
-10.6109
-15.4667
-31.2051
-34.4085
-36.33
-51.2646
-57.0482
-56.0738
-69.932
-78.0456
-74.3353
-86.8489
-96.9836
87.8634
77.3228
86.9116
73.5985
61.886
69.7901
57.8107
44.931
50.9567
40.374
26.1493
30.0297
21.9619
8.86959
10.6675
4.36693
-9.46169
-9.9751
-13.9994
-27.3757
-30.2066
-31.7289
-44.4274
-49.4678
-48.5206
-60.346
-67.4098
-64.1118
-74.8511
-83.7052
75.0828
65.9195
74.3304
62.6926
52.5688
59.432
49.0446
37.9065
43.0724
33.9616
21.7012
24.9761
18.0722
6.8683
8.32261
3.01233
-8.75009
-9.29153
-12.6027
-23.9437
-26.4849
-27.6304
-38.3914
-42.8478
-41.8608
-51.9049
-58.1335
-55.1076
-64.2673
-72.0872
63.71
55.8394
63.2804
53.073
44.4058
50.4241
41.3837
31.8247
36.302
28.4307
17.9141
20.7077
14.7806
5.23976
6.42253
1.954
-8.0047
-8.57001
-11.2587
-20.8233
-23.1368
-23.9271
-32.99
-36.983
-35.9105
-44.3803
-49.9393
-47.0822
-54.8295
-61.8104
53.5093
46.8488
53.4912
44.509
37.1825
42.5127
34.6205
26.5025
30.4244
23.6078
14.6545
17.0638
11.9667
3.91018
4.87469
1.13415
-7.22813
-7.81558
-9.95237
-17.9472
-20.0819
-20.5349
-28.0928
-31.7174
-30.525
-37.5909
-42.6126
-39.8443
-46.3213
-52.6217
44.2784
38.7518
44.7391
36.8084
30.723
35.4935
28.5855
21.7954
25.2671
19.3582
11.8219
13.9191
9.54016
2.82665
3.61049
0.512357
-6.41928
-7.02996
-8.66891
-15.2587
-17.2563
-17.384
-23.5927
-26.9271
-25.5861
-31.3883
-35.9813
-33.2364
-38.5624
-44.3143
35.8429
31.382
36.8365
29.809
24.8812
29.1993
23.139
17.5839
20.6931
15.5719
9.34166
11.1808
7.43511
1.95148
2.58222
0.0591761
-5.57401
-6.21118
-7.39207
-12.7074
-14.6051
-14.4131
-19.3986
-22.5098
-20.9936
-25.6476
-29.9035
-27.1264
-31.4014
-36.716
28.0473
24.5923
29.6226
23.3677
19.5288
23.4895
18.1585
13.7654
16.5877
12.1521
7.14275
8.7772
5.58863
1.24905
1.75263
-0.250248
-4.68181
-5.35411
-6.10185
-10.2456
-12.0789
-11.566
-15.4297
-18.3775
-16.6592
-20.2601
-24.2589
-21.3995
-24.7075
-29.6811
20.7527
18.2496
22.9545
17.354
14.5474
18.2387
13.531
10.2487
12.8518
9.01673
5.16748
6.63792
3.94986
0.700783
1.08924
-0.425118
-3.72709
-4.44683
-4.77417
-7.82481
-9.63041
-8.78663
-11.6106
-14.4512
-12.5017
-15.1295
-18.9425
-15.9551
-18.3682
-23.0836
13.834
12.2263
16.7012
11.6409
9.81776
13.3299
9.14238
6.9415
9.39563
6.08449
3.37564
4.7119
2.48959
0.302112
0.577724
-0.463087
-2.68327
-3.47135
-3.37475
-5.39108
-7.20991
-6.01552
-7.86629
-10.6559
-8.44186
-10.1666
-13.8602
-10.7015
-12.2867
-16.815
7.18366
6.39075
10.7354
6.09178
5.19916
8.64098
4.85461
3.73348
6.12418
3.25886
1.71257
2.9574
1.1657
0.0577883
0.215719
-0.348437
-1.50998
-2.39814
-1.85748
-2.88263
-4.76187
-3.1857
-4.11718
-6.91627
-4.39672
-5.28295
-8.92377
-5.55062
-6.38388
-10.7825
0.814972
0.631199
4.92171
0.576087
0.510395
4.02157
0.467682
0.320323
2.92169
0.214948
0.203626
1.31668
0.137802
-0.185651
0.0224634
-0.188348
-0.171018
-1.18269
-0.16015
-0.17326
-2.22325
-0.163962
-0.208299
-3.15168
-0.216264
-0.348001
-4.04379
-0.393787
-0.65727
-4.91011
1208.82
1250.82
1241.6
-3430.3
-3814.16
-4005.11
-2107.32
-2474.16
-2313.16
1075.16
1085.28
1076.93
-3647.94
-3998.29
-3873.06
-4045.45
-4124.6
-3700.14
1021.22
1028.97
1017.03
-2880.91
-3083.19
-2887.56
-3821.9
-3657.62
-3416.18
989.758
996.587
977.656
-1957.26
-2013.99
-1892.9
-2763.48
-2635.37
-2533.77
929.076
943.376
914.954
-826.69
-819.82
-774.244
-825.726
-909.189
-900.376
-1293.43
-1323.02
-943.953
-1772.68
-1653.17
-1619.86
803.517
839.453
797.188
187.331
429.819
558.561
-716.75
-570.848
-621.48
66.1306
-2.32012
121.572
-563.044
-415.542
-197.446
-825.252
-506.383
-633.837
1972.36
1656.22
1404.03
3897.19
4215.74
4711.26
1117.65
1555.43
1333.07
1415.24
2839.81
-1437.75
-1406
-1742.7
6.64674
-311.848
-798.461
-4275.99
-4439.49
-4541.31
-2340.44
-2808.64
-2661.19
-2632.99
-2308.32
-2838.09
-1958.92
-2174.54
-2351.8
-1709.13
-1955.56
-1785.97
1029.09
1049.39
1025.06
1094.56
1070.65
1039.59
1127.96
1085.52
1109.22
-5053.99
-5179.77
-5162.32
-5252.82
-5252.83
-5115.63
-2800.46
-2827.04
-3467.1
-2310.78
-2586.09
-2572.18
-2479.71
-2556.95
-2278.95
962.974
977.916
958.983
1021.15
993.937
974.081
1027.98
1003.81
1028.4
1045.71
1056.97
1044.68
1065.39
1061.57
1057.36
1084.73
1081.82
1087.27
-3887.18
-3941.69
-3893.82
-4589.46
-4549.25
-4470.1
-2329.94
-2537.86
-2952.11
-2132.91
-2335.11
-2212.77
-2521.33
-2440.02
-2214.23
904.413
919.818
898.908
974.824
938.38
919.117
965.206
947.319
980.108
1005.93
1010.75
996.516
1030.49
1024.24
1023.81
1031.43
1029.57
1033.37
-2664.6
-2713.47
-2635.2
-3230.08
-3106.67
-3049.77
827.753
860.664
826.495
919.452
873.863
841.144
908.898
883.414
927.976
964.315
974.876
951.556
1007.61
995.09
989.043
1011.11
1008.48
1017.56
-1491.84
-1537.47
-1545.69
-1645.61
-1699.1
-1466.3
-1956.81
-1882.72
-1858.88
698.785
753.771
718.191
816.779
766.665
708.961
828.469
784.186
834.522
883.16
902.395
868.637
941.197
935.944
934.081
963.266
960.797
966.467
359.041
552.618
582.474
314.926
509.041
346.437
534.466
497.265
355.082
1356.52
1312.3
1407.81
1121.4
1148.54
1172.84
2009.55
2127.66
2206.95
1474.31
1565.26
1562.87
-5085.28
-5235.42
-5248.84
-4628.09
-4708.47
-4549.78
-3402.27
-3732.07
-3274.84
-4421.64
-4153.53
-4014.74
-4637.31
-4590.96
-4897.81
1094.09
1087.64
1078.87
1102.95
1090.74
1094.35
1086.73
1088.93
1099.66
1094.53
1091.92
1090.44
1106.58
1104.14
1096.29
1126.94