/*--------------------------------*- C++ -*----------------------------------*\
| =========                 |                                                 |
| \\      /  F ield         | OpenFOAM: The Open Source CFD Toolbox           |
|  \\    /   O peration     | Version:  v1912                                 |
|   \\  /    A nd           | Website:  www.openfoam.com                      |
|    \\/     M anipulation  |                                                 |
\*---------------------------------------------------------------------------*/
FoamFile
{
    version     2.0;
    format      ascii;
    class       surfaceScalarField;
    location    "200";
    object      phi;
}
// * * * * * * * * * * * * * * * * * * * * * * * * * * * * * * * * * * * * * //

dimensions      [0 3 -1 0 0 0 0];
oriented        oriented;


internalField   nonuniform List<scalar> 
25162
(
0.000426828
0.916223
0.000518802
0.916608
0.00059742
0.916571
0.000287317
0.916609
0.000350774
0.458339
0.000298229
0.458314
0.000359927
-0.000373839
-0.000455317
0.458294
0.000510988
-0.000565693
0.458244
0.000656583
-0.000754488
0.458225
0.000859646
-0.000980685
0.458205
0.00111033
-0.00123965
0.458207
0.00136753
-0.00149208
0.458234
0.00158926
-0.00166402
0.458291
0.00170658
-0.00171127
0.458364
0.00168191
-0.00162245
0.45842
0.00153286
-0.00143081
0.458448
0.001318
-0.00119074
0.458451
0.00107468
-0.000958445
0.45846
0.000813172
-0.000769935
0.458432
0.000687514
-0.00056745
0.458449
0.000467918
-0.00181415
0.918574
0.000301103
-0.00041078
-0.0011329
0.918669
-2.87003e-05
0.915746
0.913771
0.00117633
0.915047
0.00184673
0.915937
0.00206077
0.916357
0.000546486
0.917191
0.000932569
0.458108
0.000650606
-0.458212
-0.458204
-0.000791976
0.458026
0.000970662
-0.458077
-0.0011934
0.457805
0.000689558
0.00077602
-0.228992
-0.000833934
0.22891
0.000915338
-0.00121273
-0.228942
0.228835
0.0013197
-0.00169378
-0.228899
0.22876
0.00183262
-0.00225927
-0.228892
0.228741
0.00240978
-0.00281193
-0.228935
0.228804
0.00294324
-0.0032168
-0.229043
0.228975
0.00328568
-0.00333922
-0.229185
0.229195
0.00332922
-0.00314508
-0.2293
0.229379
0.00306606
-0.00272731
-0.229368
0.229486
0.0026092
-0.00221288
-0.229379
0.229505
0.00208674
-0.00171336
-0.229362
0.229469
0.00160581
-0.458781
-0.00236759
0.460097
0.00105157
0.000157338
0.460793
-0.00175911
-0.459192
-0.0020058
0.917856
0.000789938
0.00193405
-0.00121487
0.917878
0.000253141
0.914278
0.914024
0.00148912
0.913557
0.00399474
0.913432
0.00673648
0.913615
0.00271093
0.915069
0.00614732
-0.458099
0.457962
0.0028473
-0.457884
-0.00278549
0.458584
0.00208471
-0.457439
-0.002105
0.457285
0.00109721
0.00116186
-0.228565
-0.00136208
0.228415
0.00151187
-0.228359
-0.00205273
0.228148
0.00226463
-0.228173
-0.00298984
0.227908
0.00325459
-0.228101
-0.00412709
0.2278
0.00442854
-0.228263
-0.0053066
0.228006
0.00556349
-0.228713
-0.00617615
0.228586
0.0063034
-0.229308
-0.0064349
0.22936
0.00638301
-0.229813
-0.00601204
0.230003
0.00582188
-0.23007
-0.00511903
0.230336
0.00485334
-0.230102
-0.00405696
0.230369
0.00379067
-0.00276215
-0.230044
0.23065
0.00215594
-0.462567
0.00111652
0.4612
0.000250826
-0.459779
-0.000559234
0.45963
0.000708716
-0.000387667
0.91929
-0.000682998
-0.000363752
0.00130686
0.916183
0.000614387
0.91497
0.914639
0.000492346
0.913065
0.00106714
0.912857
0.00220814
0.912474
0.00303048
0.912247
0.00200015
-0.45725
0.456862
0.00341825
-0.46019
-0.00456748
0.457216
0.00754188
-0.458849
-0.00871186
0.460508
0.00184485
0.00520813
-0.227866
-0.00176411
0.227702
0.00192814
-0.227374
-0.00268416
0.22707
0.00298769
-0.226881
-0.0040752
0.22646
0.00449585
-0.226623
-0.00588573
0.226121
0.00638805
-0.226933
-0.00792538
0.226449
0.00840995
-0.228036
-0.00959654
0.227781
0.00985122
-0.229572
-0.0100778
0.22968
0.00996913
-0.230808
-0.0092067
0.231169
0.008846
-0.231372
-0.00758423
0.231838
0.00711746
-0.233693
-0.000983514
0.237551
-0.00287498
-0.00266795
-0.231287
0.231208
0.00274655
-0.460952
-0.00418391
0.461894
0.00324222
-0.46019
-0.00225515
0.460994
0.00145075
0.00236168
0.918885
-0.00108077
-0.000875867
0.00173783
0.916807
0.000809588
0.915899
0.915449
0.000122993
0.912942
0.000284904
0.912695
0.000573813
0.912185
0.00116244
0.911303
0.000354449
-0.456638
0.455894
0.00190661
-0.45587
-0.00226403
0.455324
0.00281006
-0.454533
-0.00356769
0.453888
0.00224541
0.00196757
-0.228469
-0.00400335
0.226655
0.00581751
-0.226798
-0.00889843
0.228615
0.00708179
-0.224999
-0.00479778
0.224516
0.0052809
-0.224201
-0.00729754
0.2234
0.00809854
-0.224421
-0.0107808
0.22349
0.0117126
-0.226689
-0.0141079
0.22617
0.0146275
-0.230207
-0.0149311
0.23066
0.0144788
-0.232704
-0.0115497
0.233577
0.0106762
-0.241048
-0.000772894
0.237751
0.00406974
-0.233001
-0.00624924
0.233498
0.00575161
-0.0042418
-0.232301
0.232734
0.0038098
-0.463265
-0.00495856
0.46455
0.00367287
-0.461729
-0.0027917
0.462482
0.00203843
0.00315754
0.920363
-0.00269459
-0.00194049
0.00175557
0.918209
0.000804171
0.91685
0.916253
-0.000123455
0.913065
-0.000162703
0.912734
1.28941e-05
0.912009
0.000185531
0.91094
0.000190239
-0.455057
0.454802
0.000440336
-0.454897
-0.00134305
0.454209
0.00203156
-0.453207
-0.00248215
0.452321
0.00165227
0.00171578
-0.225554
-0.00208033
0.225333
0.0023017
-0.22401
-0.00327035
0.223585
0.00369577
-0.224305
-0.00732667
0.222061
0.00957056
-0.222066
-0.0134121
0.222784
0.0126939
-0.219991
-0.015865
0.219764
0.0160916
-0.223809
-0.0210397
0.222751
0.0220978
-0.234219
-0.0194653
0.234572
0.0191112
-0.243069
-0.0095826
0.240792
0.01186
-0.236524
-0.0113152
0.237625
0.0102143
-0.235534
-0.0073282
0.236405
0.0064567
-0.00385091
-0.234457
0.234914
0.00339364
-0.465633
-0.00529161
0.46674
0.00418512
-0.462851
-0.00338984
0.463182
0.00305855
0.00269563
0.92222
-0.00223271
-0.00232013
0.00150446
0.919401
0.000624743
0.91773
0.916878
-0.000491658
0.913557
-0.000863918
0.913106
-0.00110498
0.91225
-5.26588e-05
0.910656
-0.000768182
-0.454699
0.454438
0.000207744
-0.45323
-0.000399942
0.452919
0.000710248
-0.452057
-0.00160472
0.451747
0.000904176
0.00101098
-0.224619
-0.00122574
0.22443
0.00141453
-0.222646
-0.00221621
0.222259
0.00260299
-0.219493
-0.00371902
0.219009
0.00420339
-0.216236
-0.00718366
0.214177
0.00924323
-0.214712
-0.0215245
0.109509
0.104065
0.00931481
0.013348
-0.0168419
-0.108721
0.108092
0.017471
-0.0141762
-0.243173
0.0273806
-0.0144204
0.121755
0.122634
-0.0209909
-0.24316
0.245867
0.0182836
-0.24201
-0.0113577
0.243449
0.00991809
-0.238919
-0.00718308
0.239764
0.00633823
-0.00426253
-0.236289
0.236841
0.00371073
-0.467858
-0.00470931
0.468473
0.00409505
-0.463972
-0.00309999
0.464768
0.00230492
0.00168716
0.923635
-0.00145641
-0.00164511
0.000818347
0.92027
0.000316484
0.918232
0.917194
-0.000867168
0.914424
-0.00168712
0.913926
-0.00232296
0.912886
-0.00119784
0.911247
-0.00171647
-0.454416
0.45444
-0.00122205
-0.4528
0.0012921
0.45273
-0.00122252
-0.450527
0.00110037
0.450294
-0.000392897
-0.000474559
-0.224009
-0.000144447
0.223927
0.00022637
-0.221578
-0.000338798
0.221692
0.000225263
-0.218035
-0.000411342
0.21784
0.000605687
-0.211835
-0.00128439
0.211683
0.00143583
-0.099829
-0.00105293
0.100115
0.000767242
-0.0226625
-0.13146
0.133831
0.0202921
-0.0208467
-0.255175
0.258377
0.0176444
-0.248034
-0.0110478
0.249564
0.00951759
-0.242619
-0.00617691
0.24347
0.00532596
-0.00333975
-0.238444
0.238897
0.00288703
-0.469493
-0.00312231
0.470343
0.00227208
-0.465422
-0.0016605
0.465996
0.0010864
-1.11641e-05
0.924367
-0.000129707
-0.000590533
-0.0002159
0.920475
-0.000152866
0.918169
0.917042
-0.0012283
0.915652
-0.0023859
0.915083
-0.00361381
0.914114
-0.00209964
0.912327
-0.00259399
-0.454626
0.454812
-0.00228556
-0.45282
0.00249512
0.453019
-0.00269463
-0.450217
0.00288041
0.450395
-0.00143429
-0.00162359
-0.224153
0.00171637
0.224198
-0.00176175
-0.221661
0.00194448
0.221735
-0.00201894
-0.217883
0.00232701
0.218039
-0.00248257
-0.212583
0.00326694
0.213044
-0.00372859
-0.103757
0.00315886
0.104134
-0.00353551
-0.0104765
-0.146497
0.147286
0.00968791
-0.00996609
-0.266039
0.267559
0.00844642
-0.253317
-0.0051096
0.254102
0.00432492
-0.245275
-0.00253362
0.245633
0.00217531
-0.00126991
-0.239938
0.240172
0.00103608
-0.47148
-0.000763049
0.472447
-0.00020446
-0.4663
0.00066959
0.466512
-0.000880965
-0.00209821
0.924002
0.00141821
0.0010457
-0.00150877
0.919886
-0.000791436
0.917452
0.91625
-0.00154963
0.917201
-0.0032063
0.91674
-0.00478692
0.915694
-0.00298488
0.914003
-0.00347855
-0.455168
0.455522
-0.00333969
-0.453282
0.00374154
0.45375
-0.00420985
-0.450721
0.00464839
0.451291
-0.00244251
-0.00277523
-0.224506
0.0029176
0.224651
-0.00306202
-0.222171
0.00358454
0.222377
-0.00379023
-0.218725
0.00450047
0.219009
-0.004784
-0.214365
0.00579028
0.214764
-0.00618953
-0.105506
0.00373566
0.105625
-0.00191894
-0.00193499
0.00528975
-0.146759
0.146049
-0.00458033
0.00483135
-0.268513
0.267755
-0.00407334
-0.254769
0.00272809
0.254513
-0.00247158
-0.246101
0.00194941
0.245978
-0.00182693
0.00151227
-0.240388
0.240322
-0.00144678
-0.472493
0.00285154
0.472126
-0.00248374
-0.466405
0.00246677
0.466845
-0.00290678
-0.00443196
0.922488
0.00322198
0.00272406
-0.00292124
0.918375
-0.00148617
0.916018
0.914764
-0.0019573
0.919158
-0.00389663
0.918679
-0.00595891
0.917756
-0.00383821
0.91619
-0.00430762
-0.45604
0.456556
-0.00435395
-0.454273
0.00498386
0.454841
-0.00555225
-0.452193
0.00621741
0.453318
-0.00358863
-0.00375435
-0.225226
0.00397897
0.225455
-0.0042079
-0.223127
0.00499017
0.223416
-0.00527956
-0.21996
0.00625237
0.220312
-0.00660458
-0.215894
0.00771288
0.21627
-0.00808955
-0.106341
0.00454239
0.106417
-0.00229783
-0.00232081
0.0144354
-0.139122
0.137975
-0.0132883
0.0162569
-0.263171
0.26104
-0.0141264
-0.252414
0.00957101
0.251364
-0.00852103
-0.244941
0.00623029
0.244323
-0.00561231
0.0042706
-0.239653
0.239356
-0.00397387
-0.471459
0.00634146
0.470528
-0.00541031
-0.467174
0.00458433
0.466431
-0.00384164
-0.00660019
0.92003
0.00467758
0.00438041
-0.00430174
0.916077
-0.00211722
0.913833
0.912647
-0.00232916
0.921487
-0.00466467
0.921014
-0.00711369
0.920205
-0.00460165
0.918661
-0.00498368
-0.457216
0.457875
-0.00526019
-0.455599
0.00599285
0.456386
-0.00677947
-0.454406
0.00763232
0.455644
-0.00436582
-0.0045044
-0.226239
0.00487164
0.226533
-0.00516485
-0.224398
0.00613849
0.224764
-0.00650455
-0.221491
0.00770364
0.22193
-0.00814257
-0.217538
0.00954899
0.218035
-0.0100458
-0.106955
0.00569165
0.107051
-0.00287534
-0.00291214
0.0178733
-0.130042
0.128886
-0.0167177
0.0219134
-0.254146
0.251814
-0.0195812
-0.247638
0.0140275
0.246264
-0.0126534
-0.241896
0.00935326
0.240889
-0.00834634
0.00641401
-0.237812
0.237213
-0.00581419
-0.469373
0.00929054
0.468
-0.00791747
-0.465631
0.00672581
0.464626
-0.00572077
-0.00857256
0.918304
0.00538721
0.00491237
-0.00551527
0.91302
-0.00267247
0.910991
0.909975
-0.00634014
0.927827
-0.01284
0.927514
-0.0194129
0.926778
-0.00547483
0.925628
-0.0209052
-0.4586
0.459434
-0.00630866
-0.457195
0.00717348
0.458175
-0.00815387
-0.456809
0.00910787
0.45764
-0.00492952
-0.0050091
-0.227474
0.00555466
0.227803
-0.00588321
-0.22594
0.00700289
0.226358
-0.00742094
-0.223386
0.00883869
0.223916
-0.00936866
-0.219864
0.0112032
0.220596
-0.00593259
-0.00600204
-0.0540858
0.00354828
0.0541289
-0.0035914
-0.0561657
0.00636744
0.0557238
-0.0124449
0.00651938
0.0165088
-0.12195
0.240785
-0.02964
0.0162444
-0.121948
-0.245288
0.022501
0.242934
-0.0201467
-0.241611
0.0154738
0.240178
-0.0140412
-0.238174
0.0107644
0.237277
-0.00986745
0.00763773
-0.23527
0.23465
-0.00701752
-0.466316
0.0112884
0.464634
-0.00960611
-0.46358
0.00837912
0.462441
-0.00723999
-0.0101307
0.915418
0.00676889
0.00624783
-0.00651214
0.909402
-0.00320516
0.907684
0.90677
-0.0027576
0.930585
-0.00559131
0.930347
-0.00857606
0.929762
-0.00583447
0.928874
-0.00598709
-0.462187
0.463045
-0.00669253
-0.460958
0.0076294
0.461965
-0.00863609
-0.459441
0.00973176
0.460648
-0.00543544
-0.00550343
-0.228905
0.00609022
0.229266
-0.00645162
-0.227751
0.00766426
0.228206
-0.00811962
-0.225795
0.00969826
0.226408
-0.0103115
-0.223642
0.0125659
0.224592
-0.00673578
-0.00678053
-0.0557592
0.00865506
0.111932
-0.0557196
-0.00452965
-0.00457843
-0.108864
0.00886413
0.108904
-0.0175432
0.00863856
0.029499
-0.234808
0.233061
-0.0277523
-0.237089
0.0186678
0.235864
-0.017442
-0.236926
0.0143237
0.236403
-0.0138006
-0.234848
0.0106935
0.234244
-0.0100899
0.00794343
-0.232876
0.232339
-0.00740698
-0.463211
0.0120068
0.461994
-0.0107901
-0.461289
0.00958617
0.459896
-0.00819307
-0.00946647
0.911767
0.00649219
0.00662508
-0.00714003
0.907075
-0.00349019
0.904034
0.90328
-0.00289093
0.933476
-0.00585942
0.933316
-0.00897752
0.93288
-0.00613112
0.932243
-0.00621603
-0.463956
0.464864
-0.00703834
-0.462995
0.0080144
0.464037
-0.00905632
-0.461873
0.0101834
0.463105
-0.00569399
-0.00572119
-0.23037
0.00637329
0.230738
-0.00674141
-0.229584
0.00796573
0.230037
-0.00841849
-0.228288
0.00999634
0.228903
-0.0106116
-0.227531
0.0128549
0.228445
-0.0137694
-0.115031
0.0171561
0.228625
-0.0163026
-0.114448
-0.221874
0.0216299
0.222593
-0.0223493
-0.229864
0.0220207
0.229264
-0.0214204
-0.232241
0.0189595
0.231332
-0.0180509
-0.232361
0.0153429
0.2315
-0.014482
-0.231524
0.0120948
0.230799
-0.0113701
0.00941178
-0.232033
0.229821
-0.00719945
-0.460968
0.0136887
0.458271
-0.010991
-0.458458
0.00988347
0.456776
-0.00820207
-0.00979604
0.908222
0.00673206
0.00660853
-0.00715731
0.904437
-0.00367615
0.900553
0.899603
-0.00295312
0.936428
-0.00597938
0.936342
-0.00914279
0.936044
-0.00625576
0.935636
-0.00627988
-0.465788
0.466706
-0.00717475
-0.465079
0.00815037
0.466112
-0.00918302
-0.464327
0.0102906
0.465524
-0.00574823
-0.00573963
-0.231823
0.00640818
0.232173
-0.00675891
-0.231348
0.00790564
0.231764
-0.00832166
-0.230635
0.00970513
0.231161
-0.0102308
-0.230782
0.0120358
0.231422
-0.0126759
-0.225847
0.014428
0.224964
-0.0135448
-0.224251
0.0164888
0.22466
-0.0168982
-0.228166
0.017015
0.227942
-0.0167911
-0.229278
0.0155936
0.228767
-0.0150829
-0.22935
0.0133851
0.228761
-0.0127958
-0.228882
0.0110521
0.228323
-0.0104936
0.00892535
-0.228221
0.227736
-0.00844006
-0.45793
0.0141387
0.455608
-0.0118167
-0.454242
0.00875819
0.452994
-0.00751013
-0.00899094
0.903195
0.0072661
0.00675179
-0.0047343
0.90018
-0.00372851
0.899547
0.895875
-0.00295006
0.939379
-0.00596492
0.939356
-0.00909768
0.939176
-0.00622644
0.938961
-0.00619659
-0.467612
0.468513
-0.0071281
-0.467125
0.00807119
0.468113
-0.00905873
-0.466685
0.0101059
0.467801
-0.00562756
-0.00559418
-0.233179
0.00623879
0.233497
-0.00655631
-0.23293
0.00757021
0.233288
-0.007929
-0.232569
0.00908132
0.232984
-0.00949631
-0.233025
0.0108056
0.233473
-0.0112527
-0.222675
0.0120202
0.222037
-0.011382
-0.225575
0.0133337
0.2258
-0.0135588
-0.227484
0.0136696
0.227377
-0.0135618
-0.227584
0.0129004
0.227278
-0.0125947
-0.227304
0.0115095
0.226905
-0.0111105
-0.226872
0.0098683
0.226456
-0.00945197
0.00823426
-0.226435
0.226041
-0.00784013
-0.45228
0.0133281
0.450893
-0.0119416
-0.451731
0.010615
0.450457
-0.00934054
-0.008227
0.897245
0.00799494
0.00618211
-0.00436451
0.896317
-0.00337528
0.898558
0.8925
-0.00289208
0.94227
-0.0058381
0.942302
-0.00887798
0.942216
-0.00606913
0.94215
-0.00599755
-0.469377
0.470239
-0.00693155
-0.469068
0.00781993
0.469987
-0.00873919
-0.468865
0.00970141
0.469874
-0.0053813
-0.00532936
-0.23439
0.00592863
0.234668
-0.00620643
-0.234273
0.00707211
0.234572
-0.00737069
-0.234079
0.00829881
0.234399
-0.00861888
-0.234608
0.00958235
0.23493
-0.00990357
-0.22047
0.0101362
0.220053
-0.00971931
-0.226311
0.0111089
0.226439
-0.0112369
-0.227125
0.0112911
0.227056
-0.0112229
-0.226543
0.0108051
0.226345
-0.0106071
-0.225907
0.00987812
0.225629
-0.00960031
-0.225375
0.00870332
0.225064
-0.00839212
0.00745068
-0.224996
0.22468
-0.00713475
-0.44961
0.0122906
0.448427
-0.0111077
-0.449271
0.00995058
0.448136
-0.00881579
-0.0111825
0.8932
0.00752721
0.00770066
-0.00734216
0.892477
-0.000794579
0.892011
0.891705
-0.00279013
0.945061
-0.00562223
0.945134
-0.00852321
0.945117
-0.00581487
0.945155
-0.00571348
-0.471046
0.471855
-0.00662372
-0.470866
0.00744459
0.471705
-0.00828377
-0.470827
0.00915065
0.471722
-0.0050553
-0.00499038
-0.235441
0.00553551
0.235679
-0.00577401
-0.235384
0.0065013
0.23563
-0.00674671
-0.235244
0.00748924
0.235492
-0.00773717
-0.235755
0.00846433
0.235991
-0.00870019
-0.219068
0.00865206
0.218817
-0.00840091
-0.226732
0.00942191
0.226805
-0.00949491
-0.226879
0.00950281
0.226826
-0.00945005
-0.22585
0.00915393
0.225712
-0.00901518
-0.224921
0.00849804
0.22472
-0.00829725
-0.224251
0.00763339
0.224015
-0.00739744
0.00666463
-0.223846
0.223593
-0.0064114
-0.447339
0.0111678
0.446339
-0.010168
-0.447092
0.00917059
0.446096
-0.00817435
-0.0104694
0.889522
0.00697318
0.00717397
-0.00690789
0.888916
-0.00342759
0.88853
0.888277
-0.00265584
0.947716
-0.00534199
0.94782
-0.00807324
0.947848
-0.00549412
0.94795
-0.00537376
-0.472597
0.473344
-0.00624166
-0.472502
0.00698984
0.473258
-0.00774586
-0.47256
0.0085171
0.473345
-0.00468558
-0.00461621
-0.236339
0.00510221
0.236542
-0.0053052
-0.236297
0.00591317
0.236498
-0.00611468
-0.236151
0.0067117
0.236346
-0.00690661
-0.236601
0.00746933
0.236775
-0.00764402
-0.218251
0.0074553
0.218116
-0.00732024
-0.226969
0.00808211
0.227009
-0.00812179
-0.22668
0.00809787
0.226635
-0.00805235
-0.225353
0.0078237
0.225249
-0.00771992
-0.2242
0.00733456
0.224049
-0.00718406
-0.223393
0.00667959
0.223211
-0.00649738
0.00591995
-0.222925
0.222721
-0.00571566
-0.445421
0.0100496
0.444578
-0.00920644
-0.445186
0.00835085
0.444317
-0.00748244
-0.00966898
0.886214
0.00638315
0.00659388
-0.00640859
0.885655
-0.00318873
0.88531
0.885089
-0.0025003
0.950217
-0.00502034
0.95034
-0.0075648
0.950393
-0.0051343
0.950523
-0.00500333
-0.474019
0.474703
-0.00581799
-0.473972
0.0064937
0.474648
-0.00716921
-0.474078
0.00785051
0.474762
-0.00430168
-0.00423299
-0.237103
0.00466148
0.237275
-0.00483389
-0.237047
0.00534272
0.237213
-0.00550895
-0.236868
0.00599377
0.237024
-0.00614969
-0.237226
0.00659448
0.237355
-0.00672334
-0.217838
0.00647256
0.217781
-0.00641586
-0.227093
0.00698874
0.227112
-0.00700724
-0.226505
0.00696254
0.226464
-0.00692123
-0.224974
0.00673396
0.224893
-0.00665232
-0.223653
0.00635336
0.223536
-0.00623691
-0.222726
0.00584404
0.222583
-0.00570067
0.00523919
-0.222181
0.222015
-0.00507279
-0.443803
0.00898869
0.44309
-0.0082758
-0.443527
0.0075421
0.442772
-0.00678707
-0.00883982
0.883258
0.0057928
0.00600209
-0.00588213
0.882697
-0.00293377
0.882362
0.882155
-0.0023327
0.952549
-0.00467615
0.952684
-0.0070267
0.952743
-0.00475553
0.952874
-0.00462222
-0.475312
0.475933
-0.00537612
-0.475284
0.00598267
0.475884
-0.00658326
-0.4754
0.0071829
0.475996
-0.00392181
-0.00385635
-0.237751
0.00423214
0.237898
-0.00437873
-0.237668
0.00480608
0.237806
-0.00494408
-0.237445
0.00534195
0.237572
-0.00546878
-0.237686
0.0058256
0.23778
-0.0059194
-0.217695
0.00565064
0.21769
-0.00564538
-0.227144
0.00607695
0.227149
-0.00608154
-0.226344
0.00602376
0.226306
-0.0059855
-0.224672
0.0058263
0.224605
-0.00575973
-0.223225
0.00552063
0.223133
-0.00542827
-0.222198
0.00511612
0.222084
-0.00500146
0.00462777
-0.221574
0.221437
-0.00449087
-0.442433
0.00800809
0.441828
-0.00740275
-0.442087
0.00677228
0.44143
-0.00611594
-0.00802148
0.880629
0.00522583
0.00542448
-0.00535559
0.880031
-0.00267675
0.879683
0.879478
-0.00216131
0.954711
-0.00432602
0.954848
-0.00648438
0.954902
-0.00437648
0.955011
-0.00424542
-0.476481
0.477042
-0.00493714
-0.476449
0.00547986
0.476982
-0.00601276
-0.476551
0.0065401
0.477069
-0.00355997
-0.00349834
-0.238303
0.00382791
0.238428
-0.00395288
-0.238184
0.00431336
0.238299
-0.00442864
-0.237917
0.00475848
0.238022
-0.00486321
-0.238018
0.0051521
0.238085
-0.00521895
-0.217728
0.00495631
0.217756
-0.00498383
-0.227148
0.00530808
0.227143
-0.00530334
-0.226195
0.00523779
0.22616
-0.00520214
-0.224423
0.00506377
0.224367
-0.00500814
-0.222884
0.00481271
0.222809
-0.00473811
-0.221774
0.00448624
0.221681
-0.00439333
0.00408723
-0.221073
0.22096
-0.00397352
-0.441269
0.00712186
0.440752
-0.00660488
-0.440835
0.00606106
0.440263
-0.00548939
-0.00724278
0.878295
0.00469647
0.00488066
-0.00484947
0.877638
-0.00242806
0.877262
0.87705
-0.00199211
0.956703
-0.00398196
0.956838
-0.00595518
0.956875
-0.00400881
0.956948
-0.00388363
-0.477533
0.478038
-0.00451385
-0.477483
0.00499876
0.477956
-0.00547143
-0.477553
0.00593554
0.478005
-0.00322292
-0.00316451
-0.238774
0.00345464
0.238881
-0.00356144
-0.238616
0.00386655
0.238713
-0.00396333
-0.238308
0.00423901
0.238396
-0.00432642
-0.238252
0.00456123
0.238298
-0.00460729
-0.217872
0.0043634
0.217919
-0.00441101
-0.227118
0.0046526
0.227107
-0.0046415
-0.226056
0.0045719
0.226023
-0.00453874
-0.224213
0.00441713
0.224166
-0.00437001
-0.222607
0.00420814
0.222546
-0.00414719
-0.221429
0.00394193
0.221353
-0.00386596
0.00361302
-0.220657
0.220562
-0.00351781
-0.440273
0.00633084
0.439829
-0.00588669
-0.439744
0.00541549
0.439245
-0.00491612
-0.00651979
0.876222
0.00421242
0.00437981
-0.00437569
0.875494
-0.00219415
0.87508
0.874856
-0.00182976
0.958532
-0.00365296
0.958662
-0.00545237
0.958674
-0.00366093
0.958701
-0.00354445
-0.478478
0.478932
-0.00411525
-0.4784
0.00454854
0.47882
-0.0049682
-0.478427
0.00537738
0.478822
-0.00291274
-0.00285957
-0.239177
0.00311331
0.239268
-0.0032047
-0.238979
0.00346327
0.23906
-0.00354469
-0.238636
0.00377623
0.238709
-0.00384954
-0.238411
0.00404022
0.238441
-0.00407021
-0.218082
0.00385106
0.218141
-0.00391023
-0.227067
0.00408736
0.227051
-0.00407189
-0.225927
0.00400095
0.225897
-0.00397031
-0.224036
0.00386317
0.223995
-0.00382306
-0.22238
0.00368834
0.22233
-0.00363835
-0.221146
0.00347042
0.221083
-0.00340804
0.00319794
-0.220308
0.220228
-0.00311776
-0.439416
0.005632
0.439032
-0.00524815
-0.438791
0.00483783
0.438353
-0.0044
-0.00586173
0.87438
0.00377731
0.00392663
-0.00394172
0.873574
-0.00197899
0.873117
0.872877
-0.00167717
0.960209
-0.00334473
0.960329
-0.00498348
0.960313
-0.00333829
0.960287
-0.00323119
-0.479327
0.479736
-0.00374697
-0.479215
0.0041346
0.479588
-0.00450792
-0.479191
0.00486956
0.479537
-0.00263107
-0.00258444
-0.239521
0.00280473
0.239599
-0.00288289
-0.239284
0.00310182
0.239353
-0.0031703
-0.23891
0.00336494
0.238972
-0.00342644
-0.23851
0.00358047
0.238528
-0.00359802
-0.218329
0.00340569
0.218394
-0.00347072
-0.227
0.00359711
0.226981
-0.00357866
-0.225809
0.00350835
0.225781
-0.00348031
-0.223884
0.00338635
0.22385
-0.00335231
-0.222194
0.00324054
0.222153
-0.00319967
-0.220914
0.00306259
0.220862
-0.00301139
0.00283653
-0.220014
0.219946
-0.00276873
-0.438674
0.00501986
0.438341
-0.00468614
-0.437955
0.00432692
0.437569
-0.00394136
-0.00527123
0.872738
0.00339021
0.00352236
-0.00355025
0.871853
-0.00178433
0.871351
0.871092
-0.0015368
0.961746
-0.00306183
0.961854
-0.00455503
0.961806
-0.00304413
0.961724
-0.00294762
-0.480091
0.480459
-0.00341217
-0.47994
0.00375975
0.480273
-0.00409279
-0.479861
0.00441334
0.480165
-0.00237929
-0.00233779
-0.239816
0.0025296
0.239882
-0.00259635
-0.239541
0.00278119
0.239598
-0.00283862
-0.23914
0.00300176
0.239192
-0.00305313
-0.238565
0.00317628
0.238573
-0.0031842
-0.218594
0.00301837
0.218661
-0.00308556
-0.226923
0.00317173
0.226902
-0.00315128
-0.2257
0.00308306
0.225675
-0.00305771
-0.223756
0.00297613
0.223728
-0.00294756
-0.222042
0.00285585
0.222009
-0.00282281
-0.220723
0.00271188
0.220681
-0.00267009
0.00252468
-0.219765
0.219707
-0.00246722
-0.438029
0.00448795
0.437737
-0.00419606
-0.437218
0.00387976
0.436876
-0.00353848
-0.00474947
0.87127
0.00305106
0.00316623
-0.00320298
0.870306
-0.00161117
0.869759
0.869481
-0.00140988
0.963156
-0.00280659
0.963251
-0.00416959
0.963169
-0.00278007
0.963029
-0.00269453
-0.480779
0.481111
-0.00311228
-0.480587
0.00342497
0.480885
-0.00372314
-0.48045
0.00400823
0.480717
-0.0021565
-0.00211896
-0.240067
0.00228645
0.240124
-0.00234326
-0.239756
0.00249844
0.239804
-0.00254626
-0.239332
0.00268193
0.239374
-0.00272446
-0.238585
0.00282118
0.238585
-0.00282161
-0.218863
0.00268065
0.21893
-0.00274763
-0.226839
0.00280166
0.226817
-0.00277991
-0.225603
0.00271485
0.22558
-0.00269231
-0.223649
0.00262264
0.223626
-0.00259914
-0.22192
0.00252549
0.221894
-0.00249937
-0.220568
0.00241116
0.220534
-0.00237746
0.00225712
-0.219554
0.219505
-0.00220838
-0.437463
0.00402954
0.437206
-0.00377262
-0.436564
0.00349231
0.43626
-0.00318843
-0.00429412
0.869951
0.00275707
0.00285615
-0.00289892
0.868911
-0.00145929
0.86832
0.868022
-0.00129714
0.964453
-0.00258015
0.964534
-0.00382869
0.964418
-0.00254667
0.964219
-0.00247216
-0.481401
0.481702
-0.00284759
-0.481167
0.00313012
0.481435
-0.00339826
-0.480968
0.00365279
0.481204
-0.00196055
-0.00192784
-0.24028
0.0020726
0.240328
-0.00212067
-0.239934
0.00224973
0.239973
-0.00228906
-0.23949
0.00240036
0.239524
-0.00243502
-0.238577
0.00250876
0.238571
-0.00250331
-0.219129
0.0023849
0.219194
-0.00245015
-0.22675
0.00247828
0.226728
-0.00245576
-0.225517
0.0023947
0.225497
-0.00237505
-0.223562
0.00231705
0.223544
-0.00229834
-0.221825
0.00224132
0.221805
-0.00222145
-0.220444
0.00215344
0.220417
-0.00212682
0.0020282
-0.219375
0.219333
-0.00198693
-0.436965
0.00363809
0.436737
-0.00341041
-0.435982
0.00316021
0.435709
-0.00288777
-0.00390202
0.868758
0.00250544
0.00258944
-0.00263646
0.867645
-0.00132798
0.867011
0.866694
-0.00119895
0.965652
-0.00238324
0.965718
-0.00353267
0.965567
-0.00234406
0.965311
-0.0022802
-0.481966
0.48224
-0.00261797
-0.48169
0.0028747
0.481932
-0.00311716
-0.481425
0.00334546
0.481633
-0.0017907
-0.00176298
-0.24046
0.001887
0.240501
-0.00192735
-0.240079
0.00203327
0.240111
-0.00206504
-0.239617
0.00215452
0.239645
-0.00218212
-0.238547
0.00223568
0.238537
-0.00222555
-0.219387
0.00212686
0.21945
-0.00218951
-0.226659
0.00219664
0.226636
-0.00217372
-0.225442
0.00211724
0.225425
-0.00210052
-0.223494
0.00205395
0.22348
-0.00203981
-0.221754
0.00199829
0.22174
-0.00198414
-0.220347
0.00193433
0.220326
-0.00191403
0.00183445
-0.219223
0.219189
-0.00179964
-0.436522
0.00330793
0.436319
-0.00310463
-0.435458
0.00287947
0.435212
-0.00263322
-0.00356966
0.867671
0.00229321
0.00236346
-0.00241356
0.866489
-0.00121633
0.865814
0.865477
-0.00111524
0.966768
-0.0022154
0.966818
-0.00328086
0.966633
-0.00217099
0.966319
-0.00211815
-0.482482
0.482733
-0.00242172
-0.482163
0.00265653
0.482383
-0.00287714
-0.481829
0.00308296
0.482014
-0.00164522
-0.0016222
-0.240611
0.0017276
0.240645
-0.00176112
-0.240196
0.00184639
0.240221
-0.00187137
-0.239718
0.00194122
0.239739
-0.00196246
-0.2385
0.00199818
0.238487
-0.00198429
-0.219633
0.00190228
0.219693
-0.00196181
-0.226567
0.0019518
0.226544
-0.00192876
-0.225379
0.00187721
0.225366
-0.00186344
-0.223444
0.00182801
0.223434
-0.00181824
-0.221705
0.00179126
0.221696
-0.0017824
-0.220274
0.00174918
0.220259
-0.00173457
0.00167191
-0.219096
0.219067
-0.00164274
-0.436126
0.00303237
0.435943
-0.00284938
-0.434983
0.00264496
0.434759
-0.00242042
-0.0032928
0.866672
0.0021177
0.0021746
-0.00222762
0.865424
-0.00112314
0.864709
0.864354
-0.00104593
0.967813
-0.00207665
0.967849
-0.0030726
0.967629
-0.00202734
0.967259
-0.00198493
-0.482957
0.483188
-0.00225879
-0.482594
0.00247532
0.482796
-0.00267758
-0.482188
0.00286431
0.482352
-0.00152362
-0.00150465
-0.240736
0.00159371
0.240763
-0.00162114
-0.240287
0.00168797
0.240306
-0.00170688
-0.239794
0.00175912
0.239809
-0.00177465
-0.23844
0.00179465
0.238423
-0.00177768
-0.219867
0.0017092
0.219923
-0.00176539
-0.226474
0.00174129
0.226451
-0.00171829
-0.225328
0.00167177
0.225317
-0.0016609
-0.22341
0.00163621
0.223405
-0.00163059
-0.221676
0.00161723
0.221672
-0.00161326
-0.220223
0.00159522
0.220213
-0.00158576
0.00153824
-0.21899
0.218966
-0.00151403
-0.435769
0.00280756
0.435602
-0.00264139
-0.434549
0.00245394
0.434342
-0.0022471
-0.00306803
0.865743
0.00197599
0.00202078
-0.00207659
0.864432
-0.00104734
0.86368
0.863307
-0.000991511
0.968805
-0.00196733
0.968825
-0.0029091
0.968571
-0.00191322
0.968145
-0.00188152
-0.483398
0.483613
-0.00212797
-0.48299
0.00232941
0.483178
-0.00251642
-0.482506
0.00268701
0.482653
-0.00142453
-0.00140875
-0.240837
0.00148374
0.240859
-0.00150576
-0.240354
0.0015561
0.240368
-0.00156957
-0.239848
0.00160614
0.239859
-0.00161663
-0.238368
0.00162294
0.238348
-0.00160343
-0.220087
0.00154541
0.22014
-0.00159816
-0.226382
0.00156237
0.226359
-0.00153948
-0.225288
0.00149786
0.22528
-0.00148977
-0.223393
0.00147527
0.223391
-0.00147356
-0.221667
0.00147287
0.221667
-0.00147341
-0.220192
0.00146923
0.220187
-0.00146444
0.00143053
-0.218902
0.218882
-0.00141073
-0.435444
0.00262863
0.435291
-0.00247638
-0.434148
0.00230273
0.433956
-0.00211019
-0.00289382
0.864869
0.0018674
0.00190039
-0.00195925
0.863498
-0.000988622
0.862709
0.862318
-0.000949707
0.969755
-0.00188451
0.96976
-0.00278371
0.96947
-0.00182494
0.968989
-0.00180276
-0.48381
0.484014
-0.00202847
-0.483358
0.00221766
0.483532
-0.00239206
-0.482791
0.00254901
0.482922
-0.00134604
-0.0013339
-0.240918
0.00139556
0.240935
-0.00141276
-0.240401
0.00144845
0.240409
-0.00145711
-0.239883
0.00147994
0.23989
-0.00148607
-0.238286
0.00148079
0.238264
-0.00145926
-0.220294
0.00140886
0.220343
-0.00145815
-0.22629
0.00141253
0.226268
-0.00138974
-0.225259
0.00135265
0.225254
-0.00134714
-0.223391
0.00134211
0.223393
-0.00134401
-0.221674
0.0013549
0.221679
-0.00135952
-0.220179
0.00136782
0.220178
-0.00136725
0.0013456
-0.21883
0.218814
-0.00132973
-0.435145
0.00249156
0.435004
-0.00235092
-0.433774
0.00218851
0.433592
-0.00200739
-0.00276208
0.864036
0.00178587
0.0018086
-0.0018713
0.862607
-0.000943975
0.861782
0.861374
-0.000927016
0.970682
-0.00183645
0.970669
-0.00271475
0.970348
-0.00177464
0.969816
-0.00176772
-0.484205
0.48439
-0.00195977
-0.483701
0.00213888
0.483865
-0.00230303
-0.483046
0.0024484
0.483163
-0.00128692
-0.00127879
-0.240981
0.00132773
0.240994
-0.00134065
-0.240429
0.00136362
0.240434
-0.00136816
-0.239902
0.00137947
0.239905
-0.00138201
-0.238197
0.00136749
0.238174