/*--------------------------------*- C++ -*----------------------------------*\
| =========                 |                                                 |
| \\      /  F ield         | OpenFOAM: The Open Source CFD Toolbox           |
|  \\    /   O peration     | Version:  v1912                                 |
|   \\  /    A nd           | Website:  www.openfoam.com                      |
|    \\/     M anipulation  |                                                 |
\*---------------------------------------------------------------------------*/
FoamFile
{
    version     2.0;
    format      ascii;
    class       volVectorField;
    location    "200";
    object      U;
}
// * * * * * * * * * * * * * * * * * * * * * * * * * * * * * * * * * * * * * //

dimensions      [0 1 -1 0 0 0 0];


internalField   nonuniform List<vector> 
12556
(
(99.9994 0.0015827 -1.43391e-19)
(99.9991 0.00559187 -7.29312e-25)
(99.9983 0.0125536 -1.52391e-19)
(99.9969 0.0237743 -1.49415e-19)
(100 0.0188825 6.16701e-20)
(99.9985 0.0329412 0)
(99.9976 0.0542213 0)
(99.9969 0.0846752 -1.07384e-19)
(99.9959 0.125762 1.26087e-20)
(99.9951 0.17744 -8.38408e-20)
(99.995 0.234975 9.91716e-21)
(99.996 0.287762 0)
(99.9983 0.321625 0)
(100.001 0.325978 1.23291e-20)
(100.003 0.300966 -2.16525e-20)
(100.005 0.256223 1.406e-20)
(100.005 0.204312 0)
(100.004 0.154729 2.40604e-20)
(100.004 0.111561 9.91014e-20)
(100.002 0.0801625 -2.81339e-20)
(100.008 0.0919701 -5.88422e-19)
(100.006 0.0583862 0)
(100.004 0.0315573 -7.54579e-20)
(100.004 0.0101226 -4.99934e-19)
(99.9942 0.00405285 6.03705e-19)
(99.9909 0.0145297 1.60886e-19)
(99.9833 0.0332843 1.12355e-18)
(99.9707 0.063942 -4.73931e-19)
(99.9723 0.0905604 6.76419e-20)
(99.9529 0.156899 -6.53399e-22)
(99.9276 0.259312 0)
(99.917 0.35632 -4.79016e-20)
(99.8876 0.534591 -4.46745e-20)
(99.8613 0.764627 -7.8874e-20)
(99.8501 1.02855 -3.29762e-20)
(99.8684 1.28073 -4.39858e-20)
(99.9212 1.45332 -9.39196e-21)
(99.993 1.48984 -5.59125e-22)
(100.057 1.38455 -3.26688e-21)
(100.094 1.18206 3.19356e-20)
(100.103 0.943136 -6.38861e-20)
(100.093 0.719117 0)
(100.108 0.548338 -4.58237e-19)
(100.078 0.381364 8.88836e-19)
(100.08 0.263351 6.00224e-19)
(100.058 0.166955 1.26271e-18)
(100.043 0.0899715 -1.26751e-18)
(100.038 0.028787 5.99483e-19)
(99.9846 0.00441599 -6.04153e-19)
(99.9753 0.0168236 -1.29327e-18)
(99.9551 0.041682 -2.8976e-18)
(99.9214 0.0845997 3.79407e-18)
(99.905 0.139657 -1.38194e-19)
(99.8467 0.249687 -1.31761e-19)
(99.767 0.421696 -2.23245e-19)
(99.7174 0.618145 0)
(99.6159 0.951938 1.77685e-19)
(99.5224 1.39734 3.86079e-20)
(99.4829 1.93406 -9.84202e-20)
(99.5596 2.47301 -9.80263e-22)
(99.7786 2.85217 1.37818e-20)
(100.07 2.93393 -7.23858e-22)
(100.316 2.7043 0)
(100.443 2.27138 2.43831e-20)
(100.457 1.77712 -6.59633e-20)
(100.404 1.3212 -1.58654e-19)
(100.361 0.941607 -2.76863e-18)
(100.268 0.644452 -6.16804e-19)
(100.223 0.402098 -6.18158e-19)
(100.163 0.253291 1.42828e-18)
(100.124 0.135792 -1.60808e-19)
(100.107 0.0432646 0)
(99.9757 0.00140614 -3.03602e-19)
(99.958 0.00864535 2.27316e-18)
(99.9206 0.0311135 -6.50382e-19)
(99.8582 0.0764739 0)
(99.8116 0.150852 0)
(99.6968 0.287777 -1.06859e-18)
(99.5357 0.510075 -2.08411e-18)
(99.4008 0.795323 1.98499e-19)
(99.1676 1.27017 9.49226e-20)
(98.9287 1.94261 4.52298e-20)
(98.7975 2.80428 -1.24715e-19)
(98.9333 3.75481 3.53439e-20)
(99.4555 4.4871 3.68527e-20)
(100.195 4.62895 0)
(100.782 4.16074 0)
(101.045 3.38133 -1.09919e-19)
(101.048 2.56478 0)
(100.905 1.84755 0)
(100.751 1.25412 1.00048e-18)
(100.556 0.839403 -7.81269e-19)
(100.424 0.490099 -1.58213e-18)
(100.309 0.304102 8.15528e-19)
(100.236 0.161183 -1.64035e-19)
(100.203 0.0510481 0)
(99.9754 -0.00571848 0)
(99.948 -0.0123142 0)
(99.8913 -0.00279701 3.27154e-19)
(99.7957 0.0324848 4.87673e-19)
(99.7085 0.114049 3.56081e-19)
(99.5242 0.254094 0)
(99.2602 0.491559 0)
(99.001 0.829895 0)
(98.5659 1.40791 1.67058e-18)
(98.0816 2.26885 2.1786e-19)
(97.6811 3.52867 0)
(97.7488 5.19561 2.05616e-19)
(98.8151 6.67066 2.60586e-20)
(100.501 6.88546 -1.66882e-20)
(101.679 5.87625 5.12339e-19)
(102.061 4.46756 1.539e-18)
(101.935 3.21169 3.01443e-19)
(101.612 2.23407 -4.04329e-21)
(101.266 1.43537 -1.66547e-18)
(100.922 0.932795 1.39721e-19)
(100.66 0.508279 0)
(100.475 0.307648 1.67399e-19)
(100.36 0.160065 -1.25907e-19)
(100.307 0.0501935 -3.91552e-20)
(99.9924 -0.0171975 0)
(99.9552 -0.0468036 0)
(99.8792 -0.0615999 -6.56963e-19)
(99.7502 -0.050457 1.31604e-18)
(99.6165 0.0226697 0)
(99.3592 0.13809 0)
(98.984 0.349782 4.32476e-19)
(98.5735 0.688647 1.67314e-19)
(97.8905 1.25555 2.34905e-19)
(97.0224 2.16878 -1.15831e-18)
(95.9782 3.80363 1.42916e-18)
(95.4026 6.67846 -1.38115e-18)
(97.4011 10.1232 2.4774e-20)
(101.439 10.2775 0)
(103.496 7.82813 2.0331e-18)
(103.7 5.39469 0)
(103.164 3.59232 -2.70151e-19)
(102.486 2.35885 4.68375e-19)
(101.865 1.42796 4.26635e-19)
(101.328 0.891371 -2.88854e-19)
(100.9 0.440788 0)
(100.637 0.255515 0)
(100.477 0.128353 -4.25052e-20)
(100.401 0.0394374 -1.19813e-19)
(100.035 -0.0327223 1.49603e-19)
(99.9891 -0.0938656 -1.61046e-19)
(99.8963 -0.143571 3.28703e-19)
(99.738 -0.169973 -1.18825e-18)
(99.5578 -0.12265 1.35229e-21)
(99.2348 -0.0598163 4.39234e-19)
(98.7599 0.0820833 -2.23332e-18)
(98.202 0.355115 -2.36569e-19)
(97.3002 0.777831 5.43607e-19)
(95.9691 1.49266 3.71361e-19)
(93.8774 2.8929 1.05603e-18)
(90.5788 6.65325 2.67741e-18)
(92.914 16.4012 3.31805e-19)
(105.076 15.665 3.1279e-18)
(107.019 9.51939 0)
(106.088 5.70694 8.19733e-19)
(104.701 3.46357 -4.46483e-19)
(103.461 2.11989 -7.28861e-20)
(102.467 1.17522 0)
(101.724 0.691735 1.59292e-19)
(101.108 0.281294 1.09733e-19)
(100.768 0.145191 -1.32269e-19)
(100.564 0.0651 -1.51213e-19)
(100.466 0.0185469 3.40405e-19)
(100.11 -0.0514633 -1.49522e-19)
(100.058 -0.150883 1.609e-19)
(99.9528 -0.243683 -2.0406e-19)
(99.7734 -0.318019 -1.34994e-19)
(99.5532 -0.311872 2.54463e-19)
(99.1819 -0.323555 1.4764e-19)
(98.6372 -0.286504 1.15647e-18)
(97.9741 -0.13885 2.14214e-19)
(96.9503 0.0322585 0)
(95.3602 0.282382 1.51424e-19)
(92.753 0.53454 -8.6537e-19)
(87.646 0.332651 9.26002e-19)
(116.414 20.2347 8.76745e-19)
(112.536 8.86458 -1.85784e-19)
(108.918 4.67907 1.37042e-19)
(106.267 2.58241 -2.18905e-19)
(104.368 1.43918 6.66528e-20)
(102.958 0.664708 -8.64397e-20)
(102.037 0.33323 3.60156e-19)
(101.244 0.0374319 -1.3452e-19)
(100.839 -0.0176578 1.12177e-19)
(100.599 -0.0263973 -2.20132e-20)
(100.482 -0.0113842 -3.21102e-19)
(100.224 -0.0721951 -7.19725e-20)
(100.168 -0.214037 -5.77369e-20)
(100.056 -0.354814 -1.97736e-20)
(99.8658 -0.483248 5.89331e-20)
(99.6163 -0.52865 -4.7696e-22)
(99.2205 -0.626244 0)
(98.6456 -0.709611 1.88822e-19)
(97.9395 -0.712956 -1.22681e-21)
(96.9172 -0.803199 3.71037e-21)
(95.3861 -0.979735 -1.90565e-19)
(93.3099 -1.48138 -8.41843e-20)
(91.4272 -3.02888 -2.96105e-20)
(129.267 9.27755 0)
(117.101 4.06525 6.3207e-19)
(111.088 1.98581 6.90972e-19)
(107.392 0.912204 3.23926e-20)
(104.976 0.347441 -1.99278e-19)
(103.23 -0.05923 -9.12893e-20)
(102.199 -0.155183 2.04269e-19)
(101.272 -0.268702 4.64346e-20)
(100.827 -0.218969 0)
(100.563 -0.138519 1.73286e-19)
(100.434 -0.0479129 1.60448e-19)
(100.379 -0.093487 1.41674e-19)
(100.321 -0.278942 2.27878e-21)
(100.21 -0.468868 0)
(100.019 -0.653096 7.70913e-21)
(99.7533 -0.755036 -3.47657e-20)
(99.3568 -0.939723 3.59956e-20)
(98.7888 -1.14117 0)
(98.0925 -1.28782 -3.78938e-21)
(97.1451 -1.58279 1.41995e-19)
(95.7655 -1.99592 1.66761e-19)
(94.0986 -2.60267 0)
(92.9621 -3.41601 -1.82592e-20)
(128.952 -4.92683 -9.15954e-19)
(117.709 -2.43397 0)
(111.546 -1.56024 1.78906e-19)
(107.643 -1.18887 -6.07962e-20)
(105.087 -0.975255 -3.85419e-19)
(103.206 -0.891414 7.83075e-19)
(102.159 -0.713797 0)
(101.171 -0.602862 -4.56278e-20)
(100.714 -0.437682 -1.92379e-19)
(100.445 -0.260175 2.15105e-20)
(100.311 -0.0875319 0)
(100.574 -0.113944 -6.96802e-20)
(100.519 -0.341296 7.4968e-20)
(100.412 -0.578027 7.30836e-20)
(100.232 -0.815596 -6.71587e-20)
(99.9624 -0.973618 -3.42026e-20)
(99.5857 -1.23859 0)
(99.0536 -1.54584 -7.00701e-20)
(98.4011 -1.81642 5.36431e-20)
(97.5476 -2.26523 -2.54007e-19)
(96.2812 -2.82126 -1.48534e-19)
(94.7505 -3.45721 -3.68457e-19)
(93.8364 -4.09014 5.7308e-20)
(122.145 -13.5184 1.03166e-18)
(114.987 -7.60964 0)
(110.269 -4.73461 -1.31845e-18)
(106.952 -3.17833 0)
(104.652 -2.26231 -3.75846e-19)
(102.872 -1.69764 0)
(101.907 -1.2644 -4.87737e-19)
(100.935 -0.927232 -5.72878e-19)
(100.5 -0.650463 4.36018e-20)
(100.241 -0.379084 -1.3963e-19)
(100.11 -0.126342 1.91729e-20)
(100.807 -0.132294 2.55686e-19)
(100.757 -0.397028 0)
(100.661 -0.675141 -7.28744e-20)
(100.499 -0.959424 0)
(100.236 -1.16973 0)
(99.8957 -1.50301 -9.89601e-20)
(99.421 -1.89843 -2.42824e-20)
(98.8343 -2.27332 8.53199e-22)
(98.0822 -2.84912 6.47711e-20)
(96.9078 -3.54459 1.46043e-19)
(95.427 -4.32582 -3.06099e-19)
(94.5678 -5.08065 2.67017e-22)
(114.194 -17.0582 -1.37717e-18)
(110.794 -10.4413 2.99498e-19)
(107.937 -6.81942 -1.05561e-18)
(105.58 -4.65165 -4.9619e-20)
(103.781 -3.29166 -4.33057e-20)
(102.279 -2.36621 4.09068e-20)
(101.472 -1.73969 -5.94527e-19)
(100.583 -1.20921 3.39016e-19)
(100.192 -0.836626 0)
(99.9576 -0.484294 1.61102e-19)
(99.8379 -0.160832 0)
(101.072 -0.148053 -2.54434e-19)
(101.029 -0.445027 4.26405e-18)
(100.946 -0.75794 -8.54596e-18)
(100.808 -1.08177 -2.12175e-20)
(100.565 -1.33205 -2.99194e-20)
(100.273 -1.71773 0)
(99.8722 -2.17883 2.49864e-19)
(99.3673 -2.63903 -1.56727e-21)
(98.7382 -3.32044 -3.45197e-21)
(97.6992 -4.17248 -6.7171e-20)
(96.377 -5.24447 1.6773e-19)
(95.6316 -6.34201 0)
(101.186 -25.7354 -3.71502e-19)
(106.608 -16.199 0)
(106.565 -11.0608 2.75537e-20)
(105.317 -7.68553 0)
(103.908 -5.45701 8.68504e-20)
(102.665 -3.95015 1.15501e-18)
(101.521 -2.83116 -1.22927e-18)
(100.906 -2.09528 0)
(100.141 -1.42563 0)
(99.8107 -0.981849 5.04621e-19)
(99.6088 -0.567894 9.34064e-20)
(99.5044 -0.188404 -2.84241e-19)
(101.364 -0.159792 0)
(101.328 -0.480745 0)
(101.261 -0.818727 0)
(101.149 -1.17159 0)
(100.928 -1.4604 0)
(100.687 -1.88404 0)
(100.367 -2.39284 0)
(99.9615 -2.91091 0)
(99.4799 -3.66248 0)
(98.6588 -4.6421 0)
(97.786 -6.04556 0)
(97.4868 -8.22701 0)
(94.9869 -16.32 0)
(102.03 -13.2969 0)
(103.241 -10.1432 1.03147e-18)
(102.984 -7.58318 0)
(102.271 -5.66127 0)
(101.496 -4.23844 -9.32564e-19)
(100.701 -3.08409 -1.67024e-18)
(100.271 -2.31493 -6.2308e-19)
(99.6443 -1.56811 -8.07638e-19)
(99.3784 -1.07981 8.12916e-19)
(99.2123 -0.625839 0)
(99.1255 -0.20769 7.64127e-19)
(101.674 -0.167399 0)
(101.647 -0.503905 0)
(101.596 -0.857087 0)
(101.513 -1.22663 0)
(101.321 -1.53722 0)
(101.137 -1.97775 0)
(100.903 -2.50193 0)
(100.604 -3.04343 0)
(100.282 -3.80165 0)
(99.7524 -4.77965 0)
(99.4897 -6.17422 0)
(99.9861 -8.24432 0)
(96.9895 -10.3166 -5.37193e-29)
(100.152 -10.1074 0)
(101.129 -8.59627 0)
(101.198 -6.9224 0)
(100.864 -5.44475 0)
(100.412 -4.23196 -1.85642e-19)
(99.9021 -3.15543 0)
(99.6204 -2.40829 0)
(99.125 -1.63844 -1.50692e-18)
(98.9193 -1.13076 7.58881e-19)
(98.7874 -0.657891 3.18852e-20)
(98.7181 -0.218483 -5.27866e-19)
(101.995 -0.170921 0)
(101.976 -0.514638 0)
(101.941 -0.873537 0)
(101.885 -1.24903 0)
(101.723 -1.56932 0)
(101.592 -2.00879 0)
(101.436 -2.52441 0)
(101.235 -3.056 0)
(101.044 -3.76642 0)
(100.759 -4.62517 0)
(100.85 -5.73757 0)
(98.3549 -6.68813 0)
(97.9515 -7.83601 4.38054e-33)
(99.507 -7.86543 0)
(99.9304 -7.12875 0)
(99.9453 -6.08033 0)
(99.7478 -5.00184 0)
(99.4798 -4.03112 0)
(99.1686 -3.0897 -5.39246e-19)
(98.9932 -2.39942 8.2772e-19)
(98.6089 -1.64621 4.70431e-19)
(98.4543 -1.14104 8.19059e-19)
(98.3519 -0.666985 -9.33634e-19)
(98.2981 -0.22152 0)
(102.318 -0.170723 0)
(102.307 -0.514087 0)
(102.287 -0.870336 0)
(102.254 -1.24231 0)
(102.119 -1.56205 0)
(102.035 -1.98599 0)
(101.942 -2.47385 0)
(101.82 -2.97088 0)
(101.723 -3.59903 0)
(101.579 -4.31351 0)
(101.784 -5.12174 0)
(97.0225 -5.45739 0)
(98.4855 -6.29816 9.18864e-38)
(99.2391 -6.33482 0)
(99.2393 -5.92645 0)
(99.0965 -5.25585 0)
(98.9032 -4.48756 0)
(98.7204 -3.73351 0)
(98.5189 -2.92925 0)
(98.4136 -2.31457 0)
(98.1147 -1.60509 1.62988e-18)
(97.9998 -1.11854 -1.55628e-18)
(97.9205 -0.656758 -1.05701e-19)
(97.8793 -0.218248 9.94061e-20)
(102.639 -0.167357 0)
(102.634 -0.503963 0)
(102.625 -0.850664 0)
(102.611 -1.21139 0)
(102.501 -1.52206 0)
(102.452 -1.92062 0)
(102.407 -2.36918 0)
(102.339 -2.8181 0)
(102.296 -3.35436 0)
(102.216 -3.92941 0)
(102.446 -4.52519 0)
(96.1095 -4.56226 0)
(98.7841 -5.22404 0)
(99.0919 -5.23561 0)
(98.8107 -4.97701 0)
(98.5149 -4.52633 0)
(98.2738 -3.97151 0)
(98.1099 -3.3884 0)
(97.9589 -2.71443 0)
(97.8918 -2.17796 0)
(97.6534 -1.5276 0)
(97.5663 -1.07 0)
(97.5045 -0.632051 0)
(97.4728 -0.210544 0)
(102.95 -0.161458 0)
(102.95 -0.486203 0)
(102.951 -0.818127 0)
(102.95 -1.16193 0)
(102.859 -1.45738 0)
(102.836 -1.82501 0)
(102.823 -2.22929 0)
(102.789 -2.62613 0)
(102.769 -3.07657 0)
(102.708 -3.53635 0)
(102.927 -3.98631 0)
(95.5352 -3.88607 0)
(98.9548 -4.41565 0)
(98.9884 -4.40533 0)
(98.5222 -4.22183 0)
(98.1027 -3.90199 0)
(97.8003 -3.49139 0)
(97.6223 -3.03746 0)
(97.484 -2.47667 0)
(97.4317 -2.01402 0)
(97.2312 -1.42784 0)
(97.1611 -1.00486 0)
(97.1108 -0.59674 0)
(97.0863 -0.198838 0)
(103.248 -0.153688 0)
(103.252 -0.462832 0)
(103.259 -0.776372 0)
(103.268 -1.09954 0)
(103.191 -1.37591 0)
(103.183 -1.71044 0)
(103.189 -2.0702 0)
(103.173 -2.41691 0)
(103.157 -2.79346 0)
(103.092 -3.16311 0)
(103.282 -3.51121 0)
(95.2053 -3.35399 0)
(99.0505 -3.77874 0)
(98.9035 -3.75323 0)
(98.3133 -3.61145 0)
(97.7994 -3.37301 0)
(97.4383 -3.06092 0)
(97.2314 -2.70311 0)
(97.0833 -2.23629 0)
(97.03 -1.83929 0)
(96.8501 -1.31662 0)
(96.7884 -0.930617 0)
(96.7445 -0.555283 0)
(96.7244 -0.184928 0)
(103.529 -0.144677 0)
(103.537 -0.435744 0)
(103.547 -0.72875 0)
(103.561 -1.02922 0)
(103.495 -1.28456 0)
(103.495 -1.58622 0)
(103.509 -1.90403 0)
(103.5 -2.20526 0)
(103.477 -2.52044 0)
(103.396 -2.82063 0)
(103.545 -3.09528 0)
(95.0431 -2.9215 0)
(99.0998 -3.26146 -4.55399e-34)
(98.828 -3.22612 0)
(98.153 -3.10998 0)
(97.5684 -2.92493 0)
(97.1561 -2.68182 0)
(96.9153 -2.39576 0)
(96.7451 -2.00546 0)
(96.6809 -1.66496 0)
(96.5089 -1.20193 0)
(96.4492 -0.852872 0)
(96.4077 -0.511014 0)
(96.39 -0.170063 0)
(103.793 -0.134979 0)
(103.802 -0.406611 0)
(103.814 -0.678118 0)
(103.829 -0.955163 0)
(103.77 -1.18891 0)
(103.773 -1.4594 0)
(103.787 -1.73918 0)
(103.777 -2.00042 0)
(103.741 -2.26521 0)
(103.641 -2.51165 0)
(103.737 -2.73139 0)
(94.9927 -2.56139 0)
(99.119 -2.8323 0)
(98.7586 -2.79094 0)
(98.0244 -2.6922 0)
(97.3874 -2.54412 0)
(96.9322 -2.35086 0)
(96.657 -2.11909 0)
(96.4587 -1.79081 0)
(96.3777 -1.49814 0)
(96.2051 -1.08934 0)
(96.1428 -0.775639 0)
(96.1009 -0.466403 0)
(96.084 -0.155105 0)
(104.039 -0.12505 0)
(104.048 -0.376788 0)
(104.06 -0.626769 0)
(104.074 -0.880641 0)
(104.018 -1.09323 0)
(104.02 -1.33502 0)
(104.029 -1.5811 0)
(104.013 -1.80765 0)
(103.961 -2.03105 0)
(103.842 -2.23537 0)
(103.876 -2.41268 0)
(95.0147 -2.25624 0)
(99.1182 -2.47077 -5.40844e-34)
(98.6941 -2.42606 0)
(97.9182 -2.34025 0)
(97.2424 -2.21919 0)
(96.7519 -2.06322 0)
(96.4438 -1.87331 0)
(96.2147 -1.59543 0)
(96.1141 -1.34295 0)
(95.9352 -0.982496 0)
(95.8673 -0.701643 0)
(95.823 -0.423186 0)
(95.8057 -0.140636 0)
(104.265 -0.115247 0)
(104.275 -0.347343 0)
(104.285 -0.576448 0)
(104.296 -0.808089 0)
(104.242 -1.00059 0)
(104.239 -1.21645 0)
(104.24 -1.43305 0)
(104.215 -1.62967 0)
(104.146 -1.81874 0)
(104.009 -1.98951 0)
(103.974 -2.13309 0)
(95.0821 -1.99432 0)
(99.104 -2.1627 0)
(98.6341 -2.11654 0)
(97.8288 -2.04117 0)
(97.1245 -1.94091 0)
(96.605 -1.81379 0)
(96.2662 -1.65686 0)
(96.0058 -1.42025 0)
(95.8844 -1.20147 0)
(95.6957 -0.883566 0)
(95.6204 -0.632591 0)
(95.5724 -0.382501 0)
(95.554 -0.12704 0)
(104.473 -0.105834 0)
(104.482 -0.319059 0)
(104.491 -0.528422 0)
(104.497 -0.73923 0)
(104.442 -0.913075 0)
(104.433 -1.10583 0)
(104.425 -1.29683 0)
(104.387 -1.46758 0)
(104.301 -1.62783 0)
(104.149 -1.77127 0)
(104.039 -1.88743 0)
(95.1765 -1.76744 0)
(99.0805 -1.89799 1.61083e-34)
(98.5783 -1.85176 0)
(97.7527 -1.78537 0)
(97.028 -1.70191 0)
(96.4847 -1.59789 0)
(96.1172 -1.46751 0)
(95.8257 -1.26495 0)
(95.6835 -1.07445 0)
(95.483 -0.793672 0)
(95.3994 -0.569456 0)
(95.3469 -0.345039 0)
(95.3268 -0.11454 0)
(104.664 -0.0970007 0)
(104.672 -0.292506 0)
(104.678 -0.483563 0)
(104.678 -0.675206 0)
(104.622 -0.831998 0)
(104.605 -1.00436 0)
(104.586 -1.17322 0)
(104.534 -1.3215 0)
(104.431 -1.45725 0)
(104.266 -1.57786 0)
(104.08 -1.67133 0)
(95.2858 -1.56963 0)
(99.0506 -1.6691 0)
(98.527 -1.62381 0)
(97.6881 -1.56557 0)
(96.9488 -1.49631 0)
(96.3858 -1.41134 0)
(95.9915 -1.30277 0)
(95.6696 -1.12858 0)
(95.5069 -0.961811 0)
(95.2937 -0.713233 0)
(95.2014 -0.512678 0)
(95.1441 -0.311158 0)
(95.1221 -0.103256 0)
(104.839 -0.0888728 0)
(104.846 -0.268051 0)
(104.849 -0.442436 0)
(104.843 -0.61673 0)
(104.784 -0.758147 0)
(104.759 -0.912654 0)
(104.727 -1.06238 0)
(104.66 -1.19104 0)
(104.54 -1.30569 0)
(104.364 -1.40678 0)
(104.102 -1.48118 0)
(95.4019 -1.39646 0)
(99.0165 -1.47035 0)
(98.4803 -1.42674 0)
(97.6334 -1.37619 0)
(96.8844 -1.31934 0)
(96.3047 -1.25056 0)
(95.8852 -1.16026 0)
(95.5335 -1.00987 0)
(95.3511 -0.86303 0)
(95.1248 -0.642212 0)
(95.0239 -0.462353 0)
(94.9615 -0.280989 0)
(94.9375 -0.0932237 0)
(105 -0.0815284 0)
(105.005 -0.245932 0)
(105.004 -0.405368 0)
(104.992 -0.564179 0)
(104.93 -0.691889 0)
(104.896 -0.830867 0)
(104.852 -0.964081 0)
(104.768 -1.07552 0)
(104.632 -1.17179 0)
(104.446 -1.25584 0)
(104.108 -1.31397 0)
(95.5195 -1.24451 0)
(98.9794 -1.29731 0)
(98.4384 -1.25595 0)
(97.5879 -1.2128 0)
(96.8327 -1.16715 0)
(96.2389 -1.11245 0)
(95.795 -1.03771 0)
(95.4141 -0.90742 0)
(95.2128 -0.777307 0)
(94.9734 -0.580289 0)
(94.864 -0.418344 0)
(94.7967 -0.254507 0)
(94.7705 -0.0844345 0)
(105.147 -0.0750096 0)
(105.151 -0.226273 0)
(105.146 -0.372527 0)
(105.127 -0.517723 0)
(105.063 -0.633335 0)
(105.02 -0.75891 0)
(104.961 -0.877902 0)
(104.859 -0.974176 0)
(104.708 -1.05428 0)
(104.513 -1.12323 0)
(104.104 -1.16728 0)
(95.6353 -1.11115 0)
(98.9406 -1.14654 0)
(98.4015 -1.10785 0)
(97.5509 -1.07193 0)
(96.7925 -1.03658 0)
(96.1863 -0.994377 0)
(95.7186 -0.933099 0)
(95.3086 -0.819867 0)
(95.0892 -0.703748 0)
(94.837 -0.527002 0)
(94.7194 -0.380391 0)
(94.6474 -0.231599 0)
(94.619 -0.0768452 0)
(105.283 -0.069335 0)
(105.285 -0.209134 0)
(105.276 -0.343964 0)
(105.252 -0.477368 0)
(105.183 -0.582428 0)
(105.131 -0.696537 0)
(105.058 -0.803311 0)
(104.936 -0.886187 0)
(104.77 -0.951968 0)
(104.567 -1.00739 0)
(104.09 -1.03911 0)
(95.7472 -0.994351 0)
(98.9008 -1.01532 0)
(98.3696 -0.979601 0)
(97.5221 -0.95075 0)
(96.7627 -0.925004 0)
(96.1453 -0.894066 0)
(95.6541 -0.844602 0)
(95.2148 -0.745902 0)
(94.9779 -0.641436 0)
(94.7131 -0.481814 0)
(94.5878 -0.348164 0)
(94.5112 -0.212098 0)
(94.4807 -0.0703978 0)
(105.409 -0.0645118 0)
(105.409 -0.194531 0)
(105.397 -0.319681 0)
(105.366 -0.443091 0)
(105.293 -0.539018 0)
(105.231 -0.643427 0)
(105.143 -0.739754 0)
(105 -0.810764 0)
(104.819 -0.863777 0)
(104.61 -0.907052 0)
(104.068 -0.927895 0)
(95.8541 -0.892518 0)
(98.8605 -0.901539 -1.12603e-35)
(98.3428 -0.868948 0)
(97.501 -0.846992 0)
(96.7425 -0.830249 0)
(96.1148 -0.809578 0)
(95.5997 -0.7706 0)
(95.1307 -0.684328 0)
(94.8769 -0.589499 0)
(94.5999 -0.444226 0)
(94.4672 -0.321334 0)
(94.3863 -0.195831 0)
(94.3537 -0.0650326 0)
(105.526 -0.0605215 0)
(105.525 -0.182431 0)
(105.509 -0.299598 0)
(105.472 -0.414663 0)
(105.394 -0.502918 0)
(105.323 -0.599232 0)
(105.219 -0.686681 0)
(105.053 -0.747162 0)
(104.857 -0.788756 0)
(104.642 -0.821123 0)
(104.041 -0.83239 0)
(95.9554 -0.804463 0)
(98.8202 -0.803555 0)
(98.321 -0.774133 0)
(97.4874 -0.758825 0)
(96.7311 -0.750521 0)
(96.0936 -0.73925 0)
(95.5544 -0.709663 0)
(95.0547 -0.634057 0)
(94.7842 -0.547131 0)
(94.4949 -0.413634 0)
(94.3552 -0.29954 0)
(94.27 -0.182588 0)
(94.2355 -0.0606734 0)
(105.636 -0.0574013 0)
(105.633 -0.172899 0)
(105.613 -0.283792 0)
(105.57 -0.39245 0)
(105.489 -0.47395 0)
(105.408 -0.563603 0)
(105.287 -0.643554 0)
(105.096 -0.694669 0)
(104.886 -0.72605 0)
(104.664 -0.748699 0)
(104.009 -0.751642 0)
(96.0507 -0.729327 0)
(98.7799 -0.720127 0)
(98.3043 -0.693784 0)
(97.4808 -0.684787 0)
(96.7279 -0.684334 0)
(96.0811 -0.681648 0)
(95.517 -0.660513 0)
(94.9853 -0.594113 0)
(94.6983 -0.513639 0)
(94.3979 -0.390025 0)
(94.2517 -0.282615 0)
(94.1625 -0.172297 0)
(94.1261 -0.0573098 0)
(105.746 -0.0549998 0)
(105.741 -0.165629 0)
(105.717 -0.271821 0)
(105.667 -0.37493 0)
(105.577 -0.451999 0)
(105.487 -0.536222 0)
(105.347 -0.609846 0)
(105.13 -0.652607 0)
(104.905 -0.674921 0)
(104.679 -0.689065 0)
(103.973 -0.684954 0)
(96.14 -0.666598 0)
(98.7399 -0.650427 0)
(98.2921 -0.626901 0)
(97.4807 -0.62376 0)
(96.7322 -0.630482 0)
(96.0762 -0.635531 0)
(95.4866 -0.622002 0)
(94.9216 -0.563632 0)
(94.618 -0.488377 0)
(94.302 -0.371728 0)
(94.1488 -0.269939 0)
(94.0555 -0.164528 0)
(94.0169 -0.0547471 0)
(105.831 -0.0537383 0)
(105.826 -0.161491 0)
(105.799 -0.26494 0)
(105.745 -0.367016 0)
(105.661 -0.436987 0)
(105.56 -0.51679 0)
(105.401 -0.585051 0)
(105.157 -0.620258 0)
(104.916 -0.634698 0)
(104.686 -0.641706 0)
(103.934 -0.631982 0)
(96.2232 -0.616135 0)
(98.7 -0.593978 0)
(98.2842 -0.572828 0)
(97.4865 -0.574934 0)
(96.7432 -0.587984 0)
(96.0783 -0.599774 0)
(95.4627 -0.593047 0)
(94.8625 -0.541866 0)
(94.5419 -0.47103 0)
(94.2255 -0.363162 0)
(94.0678 -0.262586 0)
(93.9714 -0.160081 0)
(93.9314 -0.0533946 0)
(105.979 -0.0523963 0)
(105.971 -0.15772 0)
(105.938 -0.258943 0)
(105.874 -0.355558 0)
(105.737 -0.428028 0)
(105.627 -0.505306 0)
(105.447 -0.569257 0)
(105.176 -0.596645 0)
(104.921 -0.604658 0)
(104.688 -0.606342 0)
(103.893 -0.592919 0)
(96.3004 -0.57838 0)
(98.6598 -0.550668 0)
(98.28 -0.531235 0)
(97.4976 -0.537799 0)
(96.7597 -0.556058 0)
(96.0862 -0.573273 0)
(95.4445 -0.572498 0)
(94.8098 -0.528582 0)
(94.4733 -0.460564 0)
(94.0986 -0.35123 0)
(93.9303 -0.256089 0)
(93.8286 -0.155935 0)
(93.7858 -0.0519031 0)
(91.055 -2.95698 -8.92875e-22)
(130.704 12.272 2.21432e-20)
(116.876 22.67 -2.68547e-18)
(92.8397 -3.34339 -1.37413e-20)
(131.303 -3.92948 -1.82149e-19)
(131.561 10.0901 -6.18594e-19)
(93.7421 -3.99702 -5.67468e-20)
(124.061 -13.8421 -5.73006e-19)
(130.63 -5.57861 1.09906e-18)
(94.4653 -4.93322 1.18879e-19)
(115.573 -17.9156 3.42056e-18)
(123.007 -14.617 -5.30991e-19)
(95.5532 -6.24631 -6.01728e-20)
(100.826 -26.4143 1.76125e-19)
(101.815 -26.0464 0)
(107.624 -17.8606 -1.67297e-18)
(114.524 -18.1219 -7.2027e-19)
(97.2375 -7.9694 0)
(93.3548 -17.2834 0)
(100.5 -26.3164 0)
(95.0717 -17.584 1.73413e-19)
(102.103 -15.1791 -6.1838e-19)
(106.737 -17.6865 -2.00867e-19)
(87.5137 1.34917 -2.68339e-18)
(91.7438 15.0788 -3.07593e-19)
(114.305 22.7172 2.53003e-20)
(103.358 16.7125 -7.1412e-19)
(134.603 29.74 1.86526e-19)
(115.703 38.1629 4.72245e-18)
(128.438 11.1818 0)
(118.242 6.63004 2.66749e-19)
(113.618 10.523 -2.10959e-19)
(93.9163 -2.36506 0)
(92.9371 -3.21307 1.79443e-20)
(91.5813 -2.69155 -5.67578e-20)
(141.338 1.71446 5.25666e-20)
(141.974 13.761 0)
(129.503 -3.40367 3.66683e-19)
(120.108 -1.0463 -1.05302e-18)
(119.223 4.80843 -2.23838e-19)
(94.5941 -3.24875 -2.25771e-20)
(93.8062 -3.8966 -8.84441e-20)
(93.0582 -3.2896 -1.7689e-20)
(93.3181 -3.65692 7.40711e-20)
(93.142 -4.11531 2.4589e-20)
(92.6231 -3.81513 -2.90682e-20)
(131.2 -14.9357 6.68745e-19)
(136.786 -8.79255 0)
(123.116 -12.7638 -1.63612e-18)
(117.501 -7.51964 -2.27431e-18)
(119.783 -2.88979 0)
(95.2426 -4.10241 3.10309e-19)
(94.542 -4.82792 -1.47171e-19)
(93.8995 -3.99337 0)
(94.1005 -4.40655 3.89546e-20)
(93.7865 -4.69297 0)
(93.6053 -4.37188 5.32103e-20)
(120.737 -21.2742 -8.44567e-21)
(125.222 -19.1954 0)
(96.1006 -5.01456 -2.00973e-20)
(95.5523 -6.07939 -1.04893e-19)
(94.6459 -4.96978 0)
(94.9714 -5.56131 4.39353e-20)
(93.9776 -5.97948 5.56534e-20)
(93.9288 -5.3444 -5.25088e-20)
(105.543 -27.2585 0)
(110.638 -22.7032 0)
(115.001 -22.634 3.44031e-19)
(97.3918 -5.8949 0)
(97.2288 -7.68032 0)
(95.7118 -6.25521 0)
(96.2476 -7.02114 0)
(92.9683 -7.44387 -1.06202e-18)
(93.8188 -6.72395 4.83599e-19)
(100.502 -8.3112 0)
(95.3254 -10.6217 1.0183e-27)
(93.3845 -16.5845 -1.67347e-22)
(88.1881 -6.11548 -5.06698e-20)
(91.5018 -4.82387 3.1077e-20)
(80.4844 -1.25237 4.3062e-18)
(87.3605 -6.1388 2.46147e-19)
(141.854 14.6673 2.52659e-18)
(135.412 28.8919 -1.48592e-19)
(126.366 18.3001 -1.47322e-18)
(134.422 27.2192 8.79313e-19)
(140.993 14.5027 -8.39244e-19)
(92.5671 -3.76342 0)
(92.2891 -3.67967 -3.30152e-20)
(92.4211 -3.19207 0)
(92.298 -3.72199 0)
(92.5601 -3.81866 0)
(91.6914 -4.62036 -4.34427e-20)
(92.2628 -3.76508 0)
(137.123 -8.26185 2.58507e-20)
(141.171 0.99303 5.27998e-20)
(132.025 2.10102 1.7871e-19)
(140.615 1.20966 -2.52566e-20)
(136.832 -7.92039 0)
(141.14 13.6167 -1.04517e-19)
(140.77 1.9076 1.98663e-19)
(132.048 3.08785 1.16603e-20)
(93.5668 -4.3358 0)
(93.2119 -4.14244 -3.71073e-20)
(93.4314 -3.7396 -1.87175e-20)
(93.1934 -4.19248 7.20528e-20)
(93.5398 -4.3725 0)
(92.5874 -3.84924 5.07128e-21)
(93.1588 -4.1787 1.37771e-19)
(125.86 -18.811 0)
(130.819 -15.2748 -1.62676e-19)
(127.117 -10.9596 -4.34346e-21)
(130.66 -14.8163 5.96015e-19)
(125.984 -18.1455 0)
(136.511 -8.44988 0)
(131.37 -14.201 -3.61551e-19)
(128.082 -9.79486 0)
(93.915 -5.30244 -3.4405e-23)
(93.792 -4.72541 -1.18358e-19)
(94.1871 -4.52752 -1.35921e-19)
(93.676 -4.72716 1.05519e-19)
(93.686 -5.31451 0)
(93.5562 -4.39175 2.47641e-20)
(93.6778 -4.69566 2.03051e-19)
(115.633 -22.5501 3.52359e-19)
(120.094 -21.4907 -9.24312e-19)
(93.8307 -6.67476 2.37888e-19)
(93.9771 -6.03174 -2.83847e-20)
(95.0388 -5.64659 5.864e-20)
(103.769 -27.3151 0)
(93.5048 -6.02248 -2.14816e-19)
(92.8541 -6.63848 -3.23467e-19)
(93.695 -5.35568 -5.77109e-20)
(93.5244 -5.97462 0)
(103.587 -27.233 1.75618e-19)
(106.067 -22.0894 7.56405e-19)
(110.021 -22.7089 0)
(105.451 -27.2596 1.62296e-19)
(80.655 -7.52808 2.45523e-19)
(92.9334 -7.50977 -4.23796e-21)
(96.3511 -7.13477 3.72137e-22)
(95.4154 -22.386 1.29456e-20)
(91.1758 -7.35683 0)
(50.258 -7.27057 1.18577e-19)
(92.8194 -6.68045 6.68923e-20)
(91.2139 -7.29541 1.30867e-18)
(95.9176 -23.0314 0)
(93.1045 -1.0903 -6.78429e-20)
(91.2596 -2.56793 6.19979e-20)
(88.6732 0.550162 7.88605e-19)
(89.0232 -1.93642 -3.68106e-19)
(87.4846 -5.3024 -2.85913e-19)
(81.9423 -0.756074 1.91944e-18)
(133.154 50.2535 3.35061e-17)
(109.608 56.0573 3.79754e-19)
(92.2374 -3.15863 -8.56586e-20)
(92.241 -3.71716 1.6307e-20)
(91.5294 -4.41882 -2.84468e-21)
(119.291 -22.5747 -4.90256e-18)
(115.173 -16.832 -1.49945e-18)
(112.834 -11.2004 0)
(116.44 -8.71025 4.88108e-19)
(103.733 -26.4513 3.04441e-18)
(111.724 -25.4241 -7.54889e-19)
(113.857 -25.0864 1.9833e-19)
(97.0356 -22.5377 2.07497e-19)
(102.072 -19.793 -9.06634e-20)
(104.98 -21.6335 -1.78873e-18)
(91.3045 -4.56498 -1.23382e-20)
(88.2027 -5.35954 4.74267e-20)
(89.5876 -2.36143 6.08742e-21)
(91.2869 -6.9222 8.09339e-20)
(70.0586 -3.63934 8.84227e-18)
(80.7111 -12.1984 -1.44266e-18)
(115.996 35.1438 -8.67844e-19)
(132.833 28.9069 -2.01723e-19)
(124.311 19.9262 1.26093e-18)
(114.163 -24.9951 0)
(116.221 -24.5679 0)
(118.761 -16.9081 0)
(120.148 -20.8168 4.40307e-19)
(115.721 -21.8888 -6.96785e-19)
(125.333 -18.5225 0)
(120.791 -20.5964 -2.36066e-19)
(119.827 -16.4418 -9.57846e-19)
(102.791 -27.2186 1.20979e-19)
(87.2487 -25.7109 0)
(98.2104 -25.1953 0)
(83.9402 21.2566 4.56189e-20)
(83.4261 9.09563 -1.03889e-18)
(80.0876 0.334454 7.03494e-18)
(112.597 37.5219 -7.25927e-21)
(99.9097 27.8411 9.3212e-19)
(85.4281 23.8393 -4.30568e-20)
(135.329 47.889 -1.50483e-16)
(128.019 35.8346 -4.96515e-19)
(134.015 47.6049 2.16267e-17)
(110.718 52.5253 -4.45556e-19)
(131.574 49.1153 -3.29427e-18)
(125.204 37.0315 -9.57793e-19)
(141.961 7.01792 -2.29908e-19)
(142.022 7.81468 0)
(133.878 -12.4641 -1.82849e-19)
(134.257 -12.04 7.44746e-19)
(118.61 -23.7971 2.85667e-19)
(119.592 -22.6674 -4.92131e-19)
(122.665 -20.5093 0)
(121.049 -22.5263 2.31385e-18)
(119.222 -23.4779 1.36754e-19)
(122.493 -21.2093 6.26079e-18)
(121.179 -22.4097 1.17539e-18)
(123.304 -20.2125 -4.05928e-19)
(93.9969 -5.65108 1.69296e-19)
(94.5802 -5.5541 1.29626e-19)
(94.733 -5.81661 0)
(109.221 -25.3787 6.26123e-19)
(111.108 -25.4468 9.01475e-19)
(104.44 -26.5892 -1.0075e-17)
(93.7371 -7.0954 -1.33445e-19)
(95.5121 -7.0512 9.43815e-20)
(95.7134 -7.40183 -8.22835e-20)
(95.2646 -6.64247 4.67113e-20)
(95.4494 -6.94362 -9.397e-20)
(93.7623 -7.03016 -3.9838e-19)
(89.3572 -9.98294 -3.65703e-18)
(91.0966 -7.26265 4.9882e-18)
(90.0744 -5.66497 1.83379e-20)
(91.1999 -7.19785 -2.10413e-18)
(89.2061 -9.48877 6.29138e-18)
(91.7137 -5.18456 -1.09078e-18)
(91.3727 -6.89458 -1.14154e-18)
(90.5324 -5.45485 0)
(83.2092 -4.75051 0)
(80.9228 -10.7373 1.3758e-20)
(72.1172 -3.0793 -4.11813e-18)
(88.6635 -9.78691 -1.15223e-19)
(82.1944 -10.9581 1.27123e-18)
(84.3308 -5.41812 2.49469e-19)
(82.1744 -12.3487 -2.47557e-19)
(88.9088 -10.3537 3.13837e-19)
(139.903 21.1249 1.78254e-18)
(139.499 22.1091 -6.1179e-19)
(92.404 -3.66849 1.89142e-20)
(91.4557 -3.69681 -5.1788e-22)
(92.4213 -3.67645 0)
(92.0424 -4.12052 -3.5084e-20)
(91.724 -4.13475 2.5643e-18)
(91.6956 -5.02967 -1.13079e-18)
(91.4968 -3.70424 -2.14878e-20)
(91.6942 -4.02904 -5.06892e-21)
(92.1154 -4.00065 2.36138e-20)
(139.207 -4.1936 -6.97814e-19)
(139.465 -3.57189 1.15909e-18)
(139.072 -3.32576 0)
(136.017 -1.73947 2.04711e-19)
(136.703 1.68739 -4.25737e-21)
(134.501 -5.82229 6.80131e-19)
(135.698 -2.81875 0)
(138.826 -3.94954 0)
(141.411 7.85248 -1.08757e-19)
(136.781 7.99534 1.06991e-19)
(136.004 12.046 -2.11753e-19)
(136.831 2.8963 -9.14379e-20)
(136.886 6.68606 -7.91076e-20)
(141.37 7.06094 4.22983e-19)
(93.392 -4.26289 1.39761e-19)
(93.4154 -4.27574 8.50267e-20)
(92.8403 -4.04241 1.06548e-20)
(92.8815 -4.06762 1.0723e-20)
(128.014 -17.302 7.24047e-20)
(122.779 -20.9439 0)
(128.35 -17.0342 7.42274e-20)
(93.7011 -4.99257 -1.11625e-19)
(93.7039 -5.02743 -2.77334e-20)
(93.6436 -4.51763 2.41531e-20)
(93.6518 -4.53905 -4.87801e-20)
(118.911 -23.5783 -2.63534e-19)
(116.84 -24.1767 0)
(118.177 -22.0417 -8.30403e-19)