/*--------------------------------*- C++ -*----------------------------------*\
| =========                 |                                                 |
| \\      /  F ield         | OpenFOAM: The Open Source CFD Toolbox           |
|  \\    /   O peration     | Version:  v1912                                 |
|   \\  /    A nd           | Website:  www.openfoam.com                      |
|    \\/     M anipulation  |                                                 |
\*---------------------------------------------------------------------------*/
FoamFile
{
    version     2.0;
    format      ascii;
    class       volScalarField;
    location    "3";
    object      k;
}
// * * * * * * * * * * * * * * * * * * * * * * * * * * * * * * * * * * * * * //

dimensions      [0 2 -2 0 0 0 0];


internalField   nonuniform List<scalar> 
12556
(
36.90869305
36.90873588
36.9087907
36.90883389
36.95437605
36.95462128
36.95506296
36.95622164
36.95865184
36.96328783
36.97091081
36.98093541
36.98990953
36.99361153
36.99130056
36.98345776
36.97399695
36.96583593
36.9605973
36.95719819
36.910926
36.90947242
36.90879833
36.90842437
36.72743538
36.7276222
36.72778099
36.7280219
36.7734514
36.77475624
36.77764681
36.8046687
36.81613956
36.83787958
36.87359952
36.92116686
36.96697456
36.99007953
36.98036263
36.94313869
36.89760342
36.85783316
36.80908664
36.78999816
36.73548927
36.73097567
36.72870425
36.72764094
36.54733339
36.54777342
36.54820648
36.54873181
36.59464199
36.59814395
36.60535499
36.63990793
36.66868302
36.72180994
36.81148102
36.91940808
36.99329198
37.02577479
37.00955511
36.94808624
36.85506433
36.76559761
36.67739939
36.6352343
36.56786562
36.55758452
36.55265456
36.55065579
36.36862496
36.36902278
36.36961552
36.37093554
36.41755345
36.42520942
36.44089208
36.49103166
36.55225506
36.67805949
36.85197316
37.01746721
37.11816247
37.14437381
37.10460631
37.01419504
36.88330145
36.73799145
36.5848293
36.50303705
36.41030891
36.3911637
36.3816323
36.37786086
36.1919149
36.19237086
36.19341092
36.19612794
36.24455297
36.25825902
36.28778492
36.36239343
36.49435431
36.73010459
37.00920343
37.26316258
37.42634543
37.42708016
37.32365002
37.16757743
36.98228398
36.77502006
36.55494168
36.40275743
36.268154
36.23178069
36.21468046
36.20798431
36.01694951
36.01748838
36.01919954
36.02400099
36.07626388
36.09997576
36.1531186
36.26767887
36.50986992
36.87203043
37.33296544
37.8164247
38.12254809
38.05640664
37.75861931
37.45992011
37.17363417
36.88131396
36.57375918
36.34143192
36.14190478
36.0784776
36.05027364
36.03907611
35.84449424
35.84543744
35.84852751
35.85656805
35.91330234
35.95080531
36.03683048
36.21376585
36.5726375
37.11381474
37.88793311
39.05353555
39.83197965
39.63293718
38.56850406
37.9459813
37.47818307
37.05890816
36.63274934
36.32306163
36.03101545
35.93118666
35.8871324
35.8696724
35.67504768
35.67656679
35.68145578
35.69357964
35.75772565
35.8130623
35.94124264
36.19065768
36.66412367
37.41332004
38.63778293
41.16899511
42.29321186
39.91468005
38.64534901
37.90186681
37.30796493
36.73101568
36.33171463
35.93678751
35.79045725
35.72547991
35.69999782
35.51018162
35.51279336
35.52056119
35.5385751
35.61167584
35.68838607
35.86553333
36.18855071
36.77390545
37.71949123
39.30919283
43.01152902
46.6513862
41.60407027
39.50222832
38.40683156
37.60693271
36.85639297
36.35475281
35.85710091
35.65831272
35.56806988
35.53303218
35.35061739
35.3544293
35.36534399
35.39060909
35.475284
35.57664731
35.80625715
36.19683094
36.88651911
37.99061217
39.79432658
43.83224358
49.78136691
43.16263438
40.38478672
38.95338768
37.92919303
36.99465748
36.38620413
35.79272992
35.53806432
35.41983494
35.37388271
35.19799736
35.20361019
35.21892092
35.25448714
35.34743432
35.47713065
35.75976342
36.21367535
37.00315559
38.238271
40.19985442
43.8514225
51.35537777
44.35166774
41.20302624
39.4824086
38.24368977
37.12901322
36.42225702
35.74025305
35.43270585
35.2857562
35.22813637
35.05215773
35.05940489
35.0788816
35.12441263
35.22789589
35.38802902
35.72212389
36.23817884
37.12162257
38.47738615
40.59625179
43.46519447
52.02971543
45.18601685
41.88414842
39.94342034
38.51553965
37.24650781
36.45750477
35.69996654
35.34256959
35.168757
35.09934922
34.91403226
34.92351183
34.94908458
35.00619025
35.11670376
35.3067955
35.69045517
36.26753165
37.24169781
38.71798514
41.03057532
42.91486896
47.71562666
51.82833271
45.74928778
42.39590035
40.32041878
38.72777675
37.33774847
36.48497976
35.66539456
35.26650307
35.06815238
34.98802603
34.78229635
34.79396886
34.8253112
34.89223833
35.01852823
35.24693464
35.68153549
36.31395899
37.38894333
39.01057327
41.53058842
41.59033995
56.03798404
51.78874724
46.07617761
42.79619755
40.57870566
38.86236665
37.40131499
36.50102022
35.62891424
35.19992956
34.98045899
34.89102938
34.65660506
34.67042764
34.7072706
34.78372538
34.92183642
35.17921897
35.6495445
36.31400208
37.43484916
39.1562768
41.84995425
37.53665634
55.55533336
51.33403675
46.22465818
43.00946746
40.72802288
38.92590157
37.4312031
36.5018857
35.58824308
35.1369767
34.90043134
34.80369753
34.53461971
34.55055456
34.59251023
34.67836155
34.82865048
35.1112359
35.61371382
36.29187045
37.4246695
39.16439038
41.78983032
33.39902894
53.5206667
50.73958794
46.2758051
43.12571147
40.75235045
38.92518475
37.425187
36.47958759
35.53539554
35.06994692
34.82223767
34.71985561
34.41613366
34.43403241
34.48037715
34.57469701
34.73639503
35.04044498
35.57117395
36.2624926
37.37059668
39.06330588
41.39025961
33.9606011
50.9283304
50.21683019
46.14531802
43.03635777
40.66414603
38.87708792
37.38429215
36.42791166
35.47046068
34.99799902
34.7416076
34.63498775
34.29812232
34.31784386
34.36809252
34.47041575
34.64316576
34.96511855
35.51860245
36.2325997
37.32229511
38.92073044
40.93107016
35.48675494
47.59584447
49.57205989
45.80824381
42.74844263
40.46355968
38.75967241
37.29348495
36.34416681
35.38664318
34.91282854
34.65403596
34.54460943
34.1816045
34.2029239
34.25632105
34.36530668
34.54754495
34.88431672
35.45558861
36.18670331
37.29496843
38.84453674
40.5319583
35.18333339
44.86003419
48.62410384
45.23431679
42.35702786
40.21833486
38.59407249
37.16977078
36.23631799
35.28782314
34.81714675
34.55818686
34.4477201
34.06306793
34.08582659
34.14208363
34.2574452
34.44881082
34.79786693
35.38286347
36.12611028
37.2472666
38.77887073
40.13557127
32.08065167
43.81724925
47.56780955
44.62855931
41.97221717
39.95572814
38.40182751
37.02305433
36.10951473
35.17485162
34.70989365
34.45242385
34.34171286
33.94550868
33.96946822
34.02793265
34.14818359
34.3466808
34.70609009
35.30166072
36.05358878
37.18222543
38.67496408
39.67047437
28.91841351
42.92299523
46.60746414
44.06929245
41.60382907
39.6894396
38.1963529
36.8607751
35.9684294
35.05127079
34.59424059
34.33943937
34.22906505
33.82424429
33.849304
33.91001861
34.03545073
34.24138235
34.60963519
35.21341928
35.97170292
37.10362096
38.53885392
39.13729181
26.20999562
42.0324672
45.72869641
43.5474377
41.25450544
39.42640996
37.98543301
36.68864202
35.81704923
34.91776424
34.46898071
34.21721173
34.10749989
33.70499069
33.73094042
33.79335158
33.9223604
34.13328933
34.50934745
35.11961275
35.88269915
37.01412596
38.37448031
38.55623799
23.90568519
41.16657753
44.91844603
43.056674
40.92298893
39.17005221
37.77360246
36.51083999
35.65862909
34.77881881
34.33928481
34.09089956
33.98204383
33.58052334
33.60736213
33.67185404
33.80559235
34.02306175
34.40611728
35.02165409
35.78850483
36.91551543
38.18268757
37.94459023
21.97202827
40.33008148
44.16599047
42.59259815
40.60651835
38.92160111
37.56352866
36.33034256
35.49579175
34.63322133
34.20179526
33.95647578
33.84850354
33.4604921
33.48803828
33.55402937
33.69051293
33.91117653
34.30079285
34.92086169
35.69076587
36.80878185
37.9648672
37.31393957
20.4456745
39.53410759
43.46294479
42.15180928
40.30274811
38.68104848
37.35672622
36.14920636
35.33045946
34.48665437
34.06420879
33.82207364
33.71499817
33.33301753
33.36137729
33.42955995
33.57098931
33.79834436
34.19410353
34.81834573
35.59071736
36.69402507
37.72220979
36.67211209
19.35152549
38.78437564
42.80404501
41.73140911
40.00998023
38.44782712
37.15389706
35.96876502
35.16410856
34.33460055
33.91894657
33.67938065
33.57310164
33.21398788
33.24298152
33.31262345
33.45616356
33.68484213
34.08665182
34.71495712
35.48911873
36.57090125
37.45961908
36.02370376
18.59170378
38.07972673
42.18403444
41.32895437
39.72696125
38.22128112
36.95527874
35.78986994
34.99767609
34.18580279
33.77851191
33.54171034
33.43618736
33.08354753
33.11338268
33.18546887
33.33463765
33.57136231
33.9789172
34.6112727
35.38622871
36.43914405
37.18343985
35.37200454
18.06725896
37.41944728
41.59901552
40.94235187
39.452636
38.00075867
36.76082002
35.61299721
34.83195807
34.03012086
33.62788038
33.39308875
33.28819049
32.96784371
32.99830996
33.0718872
33.222494
33.4578596
33.8712925
34.50768609
35.28201107
36.29885823
36.89719463
34.72009324
17.63633871
36.79873927
41.04598263
40.56995823
39.18614255
37.78569782
36.57036556
35.43841746
34.66725781
33.88313727
33.48885594
33.25642647
33.15210604
32.83369618
32.86510379
32.9414313
33.09866278
33.34515036
33.76412242
34.40447398
35.1763082
36.15055289
36.60160384
34.07219668
17.32980775
36.21058149
40.52042565
40.21047226
38.92672991
37.57558348
36.38369018
35.26625998
34.5041155
33.7241746
33.33306528
33.10220301
32.99834958
32.7243393
32.75640953
32.83431295
32.99225718
33.23278469
33.6576908
34.30183009
35.0689494
35.99486592
36.29803188
33.43175824
17.15054404
35.65314175
40.01969337
39.86288062
38.67376788
37.36996739
36.20056311
35.09659084
34.34242344
33.583177
33.19990816
32.97101928
32.86758068
32.58446416
32.61762964
32.69857918
32.86417524
33.12196691
33.55228349
34.19990588
34.9597866
35.83256878
35.98808251
32.80041078
17.08147375
35.12442253
39.54115407
39.52636587
38.42675555
37.16848281
36.02077687
34.92944645
34.18281488
33.41844608
33.03668255
32.80913857
32.70605475
32.48565762
32.51951714
32.60218723
32.76812548
33.01165365
33.44815916
34.09876684
34.84870609
35.66418756
35.67235127
32.17510758
17.07789205
34.62071187
39.0833849
39.20026149
38.18528811
36.9708061
35.84408055
34.76490719
34.02481465
33.28974627
32.91537712
32.68932103
32.58652266
32.33623991
32.3713874
32.45736567
32.63103495
32.90407776
33.3457907
33.99858715
34.73560325
35.49026022
35.35105276
31.55210499
17.1213794
34.14154393
38.64554548
38.88418063
37.94911835
36.77672819
35.67036278
34.60337186
33.86984317
33.11204703
32.739125
32.51449156
32.41198302
32.25345778
32.28934226
32.37717335
32.55287129
32.79772741
33.24602468
33.90011003
34.62037051
35.31112242
35.02498495
30.93108212
17.21926825
33.69038767
38.22743903
38.57789438
37.71807023
36.58609381
35.49948636
34.44621916
33.71792101
33.00740287
32.63840673
32.4146256
32.31228349
32.06420794
32.10193309
32.19428403
32.37887571
32.69829138
33.1510404
33.80626085
34.5033116
35.12768762
34.6980187
30.31861421
17.37204224
33.27254083
37.83235697
38.28308567
37.49279408
36.39918002
35.33152162
34.29784972
33.57499401
32.77847901
32.41213169
32.19000189
32.08796334
42.86363043
47.12997949
42.64831048
43.77643702
50.61555775
47.57126409
43.88209726
52.29332305
50.91182646
43.52781353
52.9695176
52.40700967
42.95334269
43.35288628
46.75731981
53.25794883
53.00881975
42.04380976
53.26862375
43.75697957
55.7071316
53.72863981
53.28120804
40.84516842
39.76823752
42.20687197
39.5715188
50.26827104
44.08689777
46.15668884
41.98370209
40.42088454
39.68482761
42.91185226
42.16543054
55.0605643
56.02673248
49.48955657
43.92474837
42.50910602
40.1022654
43.31391779
42.9949028
43.92395569
45.52462236
46.41753809
54.36223849
53.82817861
51.22749448
45.34356985
44.34012213
40.50781091
43.26364164
43.32237902
43.73262395
42.21225765
44.02721384
55.55764977
54.89633745
40.92929143
43.03934869
43.24652131
43.24457409
37.76708288
40.04543925
39.61706723
56.2258629
56.01219674
41.43499693
42.5536002
42.99751748
42.60455007
32.26384828
34.67889369
40.54966192
54.50907378
53.60258997
46.82820794
48.46734401
43.20283181
46.4642678
55.89225563
50.58126408
45.15974572
49.71052703
54.58096269
46.52746195
47.20115133
43.49359159
47.79463382
46.60636129
48.53273325
47.93229115
53.88911753
54.90382931
49.27505577
55.68505114
55.0971438
54.8010103
55.74354008
49.03824839
44.20131718
45.37413303
43.92659119
45.07364064
43.40041793
46.52960226
45.17698921
54.77295404
54.43914093
51.82925119
55.58899824
55.79242729
55.06878849
55.53966949
51.64248416
40.17160057
42.09825053
43.68639508
41.21641578
38.86183627
43.28752128
41.34608732
55.97763188
55.62536024
34.8252132
37.60211061
43.21185853
40.18477141
35.80473545
32.92021512
38.72595899
36.00139537
40.78325723
56.49480932
56.25340121
39.5956826
39.78590807
32.20218991
42.55929365
50.2063434
31.90153548
73.09896191
32.83802197
31.90664887
49.54018885
39.16239854
42.03019695
40.55589339
42.05260699
45.56129168
42.82543115
59.68260771
46.37039464
43.39226546
47.28013583
47.38693837
45.33692
51.99020241
46.25730001
45.62593611
51.12561031
50.08698231
48.73529737
52.69013578
56.7762788
56.57526573
47.23755311
45.8441467
42.29407392
53.49412416
45.02168611
51.55136625
43.71651212
48.82521458
44.5639226
48.34785424
44.77567154
52.76887213
55.93281336
56.04852725
55.80765905
55.91899922
52.69990101
40.02669164
45.67213115
46.07119905
41.3158386
40.9093417
42.79234726
43.63218636
41.38742037
41.3780311
63.64823334
47.47915538
59.35962702
45.61790009
56.32612042
46.68981606
56.12818391
56.20479991
54.03423607
54.00007468
41.13621971
43.61462806
55.31808884
41.47803997
43.38992341
44.91741187
41.52920283
55.23896063
39.00549533
42.81989714
42.48788985
52.62704137
50.82607239
46.86979278
33.74388521
40.72148562
40.23708241
41.33395471
40.89402432
33.89989089
57.27036938
53.90317752
47.65394018
54.15777768
55.06858843
50.27448159
53.86063693
47.87890534
44.69924502
49.44204886
44.46386001
54.39284701
50.1312679
45.20908824
52.16920591
57.09449436
53.84459147
53.46222723
47.23392589
43.65568426
47.15819028
48.39138366
46.79507321
49.77849286
44.02125517
46.39999823
48.29422342
54.47990735
54.57270533
55.39074545
53.04048376
52.43195299
53.65735815
53.21204845
55.34557071
55.79874396
51.09666629
50.08985565
52.2004552
51.39637276
55.85244205
44.31392006
44.2058426
45.94310323
45.85771166
54.90356459
45.43268521
54.84820644
40.28641037
40.12567276
42.37994395
42.24817792
43.89762224
47.65465424
55.79916184
44.10028682
41.1888089
36.52897158
41.88444549
41.47770295
42.37230173
42.01150626
36.66938728
39.68698863
34.956018
34.83323804
37.77268603
37.63634634
52.28453368
41.29697597
54.33622862
53.12492411
40.05110367
39.59903227
31.87786218
33.1678164
41.51815802
41.20682847
32.42887093
64.78535417
41.43218803
57.23961877
32.34928537
47.03349854
43.59347873
40.54043956
58.18800687
39.90456877
40.18906326
41.79036606
42.11643565
42.46774509
41.09355569
33.33424273
40.9776794
56.05330958
53.14847167
53.65759481
52.1727572
40.43174474
42.74609376
55.42032576
54.6566449
42.09425605
56.87509001
56.82172784
53.17001926
42.90996832
42.3840136
44.64642821
45.62681105
42.66850302
42.93393817
55.59192519
58.02475616
57.12051809
56.26499101
54.15825358
45.76454798
46.23274342
48.39285887
47.64823828
53.75052538
43.02696957
44.26771107
44.02932146
44.56483264
44.34422689
43.15884821
43.22869887
42.92434402
39.13808217
32.61388872
37.43907513
37.0250717
65.62158947
49.49838244
53.97493446
55.19130463
58.95047566
58.25130397
52.06953553
48.06594804
46.68355982
49.7173459
48.5024113
52.42078166
54.10958474
49.56628211
48.71801817
54.66001925
44.72770532
44.8252719
44.63397906
40.01635969
40.49959265
43.75236807
46.48958671
46.83290163
54.61405151
55.7020027
54.51411528
54.40343429
55.12269528
54.08293092
53.7775719
54.35794759
54.16113034
55.13885772
41.14924377
43.60262303
43.32523292
43.94703009
43.69132811
41.27851207
40.82763732
35.77107377
36.07541516
33.52379449
33.73060563
39.32438585
42.90977016
39.24628893
39.88052701
36.19643869
36.53553132
41.73330008
55.84342611
48.17978884
51.57774632
55.8795858
39.55583414
35.40163599
33.68733925
38.32074889
33.2266035
33.45432354
32.72928497
36.91135901
47.51660265
38.94102941
38.34233684
37.57101044
36.89080674
36.49638959
32.08241019
40.60974107
42.06655408
51.99892539
31.90965597
82.76370904
43.12600055
41.68536533
46.593866
32.66362893
31.97720407
53.87653294
52.76139646
52.87941167
45.5839778
45.62762145
40.60698842
39.95029085
51.3512547
51.68530528
51.59062283
47.46811836
55.9520119
47.53972765
56.37846806
48.26480667
42.46335685
40.54043392
46.47632935
44.86607329
48.21477422
45.58744463
40.60941136
41.1295063
46.99194817
56.15980916
40.62021091
44.84802901
61.93826976
39.61619036
40.10796944
39.83694011
39.6225842
55.08411706
64.26452686
53.78778685
50.44182178
57.38677694
54.53348038
49.79899144
47.00482422
51.66940454
55.43759277
54.87437704
55.79642886
56.28111423
56.82471574
55.81165094
46.53125358
45.90567671
54.09996577
46.59068086
47.04243265
45.26443505
46.3261329
47.21150014
53.79617139
47.52603337
46.75405427
41.24475579
41.48750498
41.76479411
51.36057237
50.59000058
42.80913649
48.98827638
47.69755383
50.28393647
49.39322711
42.35282703
41.18072174
42.65037717
41.15057305
38.02143266
37.56359832
32.91489852
34.22555787
38.53169971
38.15115732
56.05341758
55.55586266
55.13444766
50.38200561
50.91790985
49.41268565
50.16457549
55.41420031
52.4619969
51.07468443
50.8954301
51.02591463
51.09399327
52.71542265
52.86172624
48.26772765
49.1593426
55.58563453
55.99899357
58.5908691
58.25281079
54.86323856
59.64723623
60.3145338
60.5386195
59.26176545
58.23122227
60.50196628
59.15817318
52.23557818
57.41320695
58.62601101
42.36427481
47.34122867
46.53501799
48.10030697
47.55941579
42.89501556
45.40986966
44.84912852
46.25362025
45.60255166
47.99408413
50.16995501
49.67261548
50.77288268
50.32943204
48.42202409
44.9758401
48.81302335
48.28226219
49.50313746
48.98756009
45.32246035
50.68902035
49.76421937
54.19792492
54.67274236
52.03128136
51.02889812
39.58939835
39.11696983
40.40914698
39.7552059
38.36387155
37.90265667
38.96775186
38.50113617
43.94671576
43.41199264
44.66757282
44.1298998
42.34320742
40.82902124
43.21630636
42.67875265
45.4514609
44.66409855
47.31693704
45.94336111
45.99313375
44.25204925
44.97918249
44.41416669
44.07504873
35.3449249
35.65227283
40.69691327
33.94938946
33.72998336
34.2502543
34.0369567
33.62729868
39.52147406
33.81268726
35.09387946
37.29298285
38.98146641
42.78189699
36.95578051
35.19274843
37.8083969
37.125324
34.62450441
34.34892628
35.056424
34.73303647
41.86166049
36.65606735
37.06035778
48.21437457
42.52717127
47.50481958
44.40875436
47.29618665
42.05688647
57.87522741
39.49061436
55.94394818
50.05955633
35.28720343
34.22230053
32.95394608
33.15823726
38.18544201
37.14441373
32.76040185
32.89803584
52.0479394
32.02544616
36.31040123
35.62154506
65.21376687
72.07464936
31.83838591
76.1784615
56.67048272
41.05891071
32.59591908
64.61576461
43.56876429
74.23153194
45.13073237
32.08816121
41.8935573
39.9393399
38.77223829
50.33547218
49.99444368
52.4427741
46.82043844
46.44385692
50.25254996
41.66103967
40.11666166
39.52765925
56.05570219
55.95316179
53.14038277
44.60991481
44.10133177
46.51638689
51.0971415
44.55786416
44.66583125
40.87385592
41.20734486
43.39302956
48.9783442
52.16383081
54.73276672
45.93748424
45.19286865
45.08213664
45.29172376
45.22259118
46.06401622
45.0332676
43.28017162
40.35342806
52.15260863
53.50069618
56.13462526
39.01585896
38.6520413
34.34295257
55.4678724
57.14152569
51.85770328
45.0374588
44.88288115
44.89507519
44.749693
41.95861607
42.56017954
42.85070668
43.74107892
45.48598543
35.62202299
39.51400098
39.13544198
44.91413911
43.1376383
39.83372012
32.27386806
32.30194447
33.0435346
42.00446921
53.13504374
48.36834383
39.84336433
47.59975234
45.56494901
31.89467523
32.77778575
32.23968152
32.25940578
31.91731166
60.09872736
45.28972287
41.01432787
42.01376739
50.57199898
40.39578693
41.26631077
50.292594
52.81914672
46.20536333
44.73055213
46.50343606
46.99016848
40.37578842
40.25974215
59.18952096
61.25360557
62.76654098
53.50890965
60.04696885
42.41565103
42.66247938
45.08973021
61.19896622
57.14600512
54.90099033
64.15697729
61.76253717
41.09486365
42.31589789
41.70490114
46.40297295
45.77256145
42.39555929
52.31002144
51.6289306
42.0279592
45.01345966
42.25344267
42.42237024
43.81980996
39.96003641
40.29656566
57.00390201
57.71741272
54.49557366
54.50433092
53.50450834
53.34951785
50.79467625
51.69662554
51.35022697
53.1877965
52.9886031
53.46847292
46.91655941
47.97980261
52.3714683
53.54970408
58.39756292
55.09932832
58.67668172
59.00445906
56.54666365
40.8664738
42.86233666
42.36669972
46.25743537
46.03881021
43.43344185
40.40497341
40.18159785
41.96048661
41.63707376
47.18985158
49.18721716
48.88431304
51.02727304
50.7170588
49.3098196
44.29722738
46.82630189
46.56864441
48.57874939
48.28112806
46.03407346
41.30058848
41.79011891
44.6446557
43.86349603
40.65477581
41.14069505
44.62349891
45.09588239
46.20393671
38.85334455
38.71495437
39.982528
39.80402868
36.75287216
38.50261292
38.38680548
45.57895565
43.96147456
44.45925303
45.65902835
45.60947938
42.71923133
43.02377243
45.37964628
45.72385957
46.07549894
54.66962844
47.00752571
48.31155625
39.98703231
39.63547982
35.93809167
37.06064611
40.40917233
40.09244483
33.19008847
33.25691957
35.06813354
34.69295205
33.02841568
33.12029729
52.43354462
31.99167642
32.71458301
32.1367241
107.2717549
32.35451957
41.13233333
52.35338308
47.55155343
32.03454706
32.06463602
32.46958058
63.66573057
68.68179626
66.58762106
51.18720586
32.32179505
31.99734438
32.01868164
40.96145522
41.10922295
40.05410144
50.24483532
49.74653216
43.02523927
42.04063898
40.03498416
53.43673639
52.42481948
57.21664708
40.89838692
48.79691891
45.45861697
49.03464432
48.30383056
41.63457401
43.76402457
44.35957644
47.90159537
53.70112878
54.01621695
53.21560285
53.46618561
57.7622537
57.04080618
57.25599308
56.59116249
56.81619086
57.41900367
48.11987958
48.5687888
48.7826745
48.24082363
48.3669542
47.98389686
58.67595835
57.70803522
57.68723501
57.45703752
57.62341883
58.46679369
49.16896461
49.49168301
49.73159929
49.01416626
49.24583164
48.93090109
52.57959057
52.75487664
51.9605136
52.13729718
35.85464979
37.9890072
37.86639109
33.60565703
34.88929805
34.79485391
35.18469735
35.00174198
33.66963954
53.57079513
54.68412734
49.08772149
54.28977473
32.66650301
32.63089574
32.75486829
32.71532899
32.48169351
33.26889158
32.34328209
32.46146888
33.30692086
34.55390639
34.46684617
34.71512121
34.63336195
33.37740549
32.87015367
32.80668317
33.42797538
33.0209189
32.88033369
54.0892673
52.4971526
43.87214295
54.57186866
33.96361554
33.23978298
39.47839459
32.10962481
33.49075272
33.34879205
31.87181636
80.64096244
81.98701509
61.70022696
71.76688056
61.65986357
32.17712806
32.21193997
32.72297777
31.94334826
57.37323076
62.3926444
57.72772883
59.05447268
55.68126576
48.80482962
61.25926216
56.33426418
45.8025354
46.03986394
51.42019324
43.39122209
46.22922259
52.49432892
49.97886284
53.10057604
48.87993629
51.66703686
57.74941842
59.22051193
52.5081806
56.63410223
60.11414803
47.96688743
48.99841531
47.52236152
51.18446843
58.76993486
58.8923395
57.01242073
41.52831186
52.25437055
47.14715656
57.65956481
58.53910973
43.07717236
45.26921324
48.25003262
60.86603712
50.3100012
41.93619575
43.14985521
60.68745193
57.58485787
60.92470733
56.29301164
58.71584342
61.01924482
62.14251139
61.49293271
54.98267515
55.12329982
55.35509535
54.57805832
54.71663444
54.73332767
56.47038846
56.12164875
56.35567678
55.62946382
55.86482838
56.14050982
46.31515768
49.04450624
49.03883948
46.71603073
46.96993814
45.62475979
46.62551699
46.4059988
46.18773106
47.57801209
47.9173431
47.11342956
48.42672632
48.22689628
48.97431635
48.76359404
46.92465813
45.72072043
43.71147991
41.09241685
46.87893633
46.69773414
46.53144112
41.90682928
45.90145401
45.53685944
42.33301409
42.23380277
43.67030976
56.57607344
54.97919079
52.40305468
52.05844996
51.29345459
53.18898663
52.81825686
52.57543194
59.55783487
59.21867868
54.74997649
59.66152072
61.69160543
56.38927379
59.40959721
59.54720578
58.49297078
57.31502355
57.19099037
57.51459197
57.48920851
58.38930604
59.976231
60.10331447
59.01574188
61.65045662
61.61107173
61.44917588
61.6061674
58.82211932
60.60822717
61.20862748
62.74350557
60.60734004
44.97380494
44.8257795
42.29586951
43.04465495
45.68455061
45.52897589
40.86542014
40.62733977
41.36380489
41.1072072
49.79575355
49.48936407
47.57705254
48.86219186
50.41049641
50.10317169
47.40241723
47.12788399
44.66826515
45.65390229
47.98072658
47.69499636
50.44035212
50.4896164
50.74540454
49.98158574
50.23527681
50.06773652
51.65944126
51.42349911
51.59235677
50.99946557
51.23148354
51.39811803
39.4263301
36.83412323
36.97650323
36.57542949
36.70971836
39.2730065
40.13921801
37.44367505
37.65570115
37.11544543
37.27374681
39.93569412
38.19798595
35.82170117
35.95811043
35.60098664
35.7355127
38.07775563
38.81044781
36.31728409
36.45435213
36.06012444
36.20105935
38.66413188
39.21965527
39.06073432
43.77032077
41.84009625
42.01870318
41.46903642
41.63184034
43.58333117
39.59809772
39.42366936
37.78284266
37.63286219
42.08835705
40.19956962
40.2644949
37.96758452
38.41697392
41.43271107
43.05548773
41.11004339
41.24497281
40.74454027
40.84294121
42.83219151
38.16225555
38.06702849
45.08855108
45.26680429
45.5668081
43.44250214
44.05346808
44.46701463
45.99448992
45.99490803
46.22502063
46.248002
44.73087608
44.17625504
44.69570962
44.20744316
45.69988791
45.49058862
44.04261755
35.42855732
37.44700456
37.31785371
37.72605501
37.60992701
35.57824985
33.89054351
33.79308768
34.18131285
34.09151127
33.59924472
33.61341312
33.98597483
36.17139551
35.53369318
37.058705
36.80349526
34.80029745
35.63047567
34.87172027
35.0890081
35.36560035
37.59578284
35.38465086
35.5272788
35.16523239
35.31749032
37.5159928
34.53435646
34.42977187
34.94549414
34.83098634
46.88404364
41.1059365
41.6725201
40.57300636
40.78052988
47.18782017
46.45554438
46.24703663
42.36766816
44.07627515
47.63949079
54.93074644
43.50581225
45.41194064
40.78821264
42.02709202
55.69102909
32.51736455
32.47045446
32.59354144
32.56084112
32.68260127
32.92931203
34.50376244
32.30592525
32.24883359
32.41920588
32.35579906
33.02060979
34.2111791
34.12087354
34.38401806
34.29386246
33.08321013
32.80233052
33.84360765
33.71694233
34.03686015
33.9456329
32.84971428
51.53000521
33.27470783
32.99248445
31.97396823
63.21801485
89.46863666
94.96411969
88.41526534
89.69929603
68.20877124
32.06984011
66.97974534
49.40082862
52.68775042
32.53599179
32.08679392
32.13644722
64.7980449
71.55192637
69.89176748
56.53205887
62.9174874
76.31795205
71.85304853
47.87946584
67.86555181
59.76116615
32.31789025
31.91227374
32.11956801
36.6799023
36.69604342
36.81232357
36.70317386
36.73385578
36.83091881
36.74642948
36.7976986
36.86281638
36.81711576
36.88947598
36.90807384
36.91088042
36.9682786
36.95594476
36.98040607
37.00693701
36.98583077
37.01062229
37.00492753
36.98726407
36.99769597
36.95835277
36.95435406
36.94190184
36.878813
36.90936877
36.85822879
36.79944254
36.86724192
36.52649153
36.56128738
36.65976965
36.57733802
36.64623355
36.70601709
36.67829194
36.79221214
36.78515495
36.83233133
36.9493802
36.8946222
36.9824812
37.05771281
36.97995811
37.07542436
37.10381757
37.02249265
37.10304646
37.08477924
37.01774827
37.07191417
37.01506312
36.96691283
36.99087897
36.90330192
36.87971046
36.87047749
36.76952966
36.78433825
36.39270255
36.46576313
36.5327007
36.50209152
36.65121726
36.63841914
36.70867206
36.89353933
36.80717615
36.95656896
37.13110356
36.98048842
37.17923369
37.30597748
37.09989364
37.32847114
37.34124613
37.14604377
37.32695694
37.27827923
37.11986766
37.25235045
37.15685497
37.04071497
37.11936883
36.99453164
36.91954493
36.94965622
36.80836047
36.77295605
36.28743738
36.43265715
36.45020097
36.49977473
36.73634844
36.66586692
36.82684403
37.12848225
36.93805229
37.23305655
37.54601094
37.20579129
37.63527925
37.85872343
37.39504673
37.89721411
37.89657405
37.4288624
37.82074425
37.68017467
37.35561068
37.62120597
37.4344917
37.21108518
37.37060941
37.17978813
37.03108465
37.11491085
36.91864455
36.82833611
36.22344771
36.45743745
36.43480982
36.5541386
36.90648568
36.77114937
37.04511416
37.53618629
37.21091943
37.72509891
38.3892737
37.69401051
38.62954842
39.48789497
38.07030725
39.50988083
39.28752165
38.06560358
38.96445508
38.478287
37.8344662
38.32007675
37.91915456
37.532581
37.80209127
37.48975476
37.24430718
37.39043897
37.10434154
36.95659036
36.19557587
36.51255463
36.46896093
36.6427594
37.13572891
36.95775899
37.33955419
38.11243639
37.66732835
38.4453028
40.28339691
38.68662229
39.65524411
40.28662589
39.33220671
40.89499814
40.96610059
39.84044835
40.39847718
39.73980566
39.30254543
39.52857891
38.66875613
38.07854345
38.45610972
37.92975247
37.58808825
37.77895734
37.37017206
37.1618025
36.18795843
36.58084159
36.52555982
36.74614888
37.37914195
37.19258863
37.6460331
38.69355891
38.26573305
38.82572723
39.32270762
39.08913301
41.48334513
42.13701067
41.74120285
43.93413369
42.66184332
41.44857601
41.17660972
39.64389828
38.8880453
39.30140783
38.49857601
38.06654945
38.27989991
37.70365137
37.44645158
36.19399248
36.65995272
36.60016113
36.85786728
37.61024979
37.43900237
37.92553922
39.14709802
38.81895423
39.44388461
40.07432522
39.9158921
43.14770405
44.18001769
44.03070434
48.03510756
45.53800203
44.49037533
42.80056549
40.67340226
39.88486674
40.20470547
39.11445885
38.63990391
38.82348463
38.07175815
37.79180475
36.20868078
36.74586975
36.68093224
36.9733338
37.82552787
37.66537289
38.17747025
39.51606473
39.2441902
39.89971641
40.5948456
40.47429459
43.87576721
44.84723112
44.87562984
50.52470566
47.6036737
46.94834951
44.08036263
41.59675017
40.89426319
41.03271448
39.71935247
39.2560081
39.35999323
38.43867971
38.16287575
36.23063289
36.83619618
36.76860783
37.09089808
38.03274844
37.87828646
38.41700123
39.86623008
39.602436
40.30282005
41.06115982
40.94222857
43.81580032
44.26526601
44.42182383
51.69586082
48.76811034
48.44585239