/*--------------------------------*- C++ -*----------------------------------*\
| =========                 |                                                 |
| \\      /  F ield         | OpenFOAM: The Open Source CFD Toolbox           |
|  \\    /   O peration     | Version:  v1912                                 |
|   \\  /    A nd           | Website:  www.openfoam.com                      |
|    \\/     M anipulation  |                                                 |
\*---------------------------------------------------------------------------*/
FoamFile
{
    version     2.0;
    format      ascii;
    class       surfaceScalarField;
    location    "3";
    object      meshPhi;
}
// * * * * * * * * * * * * * * * * * * * * * * * * * * * * * * * * * * * * * //

dimensions      [0 3 -1 0 0 0 0];
oriented        oriented;


internalField   nonuniform List<scalar> 
25162
(
0
0
0
0
0
0
0
0
0
0
0
0
0
0
0
0
0
0
0
0
0
0
0
0
0
0
0
0
0
0
0
0
0
0
0
0
0
0
0
0
0
0
0
0
0
0
0
0
0
0
0
0
0
0
0
0
0
0
0
0
0
0
0
0
0
0
0
0
0
0
0
0
0
0
0
0
0
0
0
0
0
0
0
0
0
0
0
0
0
0
0
0
0
0
0
0
0
0
0
0
0
0
0
0
4.328620803e-09
4.852290167e-08
-5.433526569e-07
0
-7.91367278e-09
4.619322871e-07
0
0
0
0
0
0
0
0
0
0
0
0
0
0
0
0
0
0
0
0
0
0
0
0
0
0
0
0
0
0
0
0
0
0
0
0
0
0
0
0
0
0
0
0
0
0
0
0
0
0
0
0
0
0
0
0
0
0
0
0
0
0
0
0
0
0
-2.017725199e-08
-8.605777294e-07
1.865882135e-06
5.419359713e-06
-7.299750506e-06
-4.722143037e-05
1.705912289e-05
6.667015035e-05
-9.255029139e-06
-0.0001238266247
1.58395001e-05
0.000138996476
1.583047279e-06
-0.0001622898964
-3.25374336e-06
0.0001611211182
9.170185025e-06
-0.00013052713
-1.659470409e-05
0.0001127679573
4.321031369e-06
-5.055512783e-05
-1.152670846e-05
3.152205978e-05
0
-9.299150574e-07
-2.789539115e-07
0
0
0
0
0
0
0
0
0
0
0
0
0
0
0
0
0
0
0
0
0
0
0
0
0
0
0
0
0
0
0
0
0
0
0
0
0
0
0
0
0
0
0
0
0
0
0
0
0
0
0
-9.851921516e-07
-1.965674534e-06
5.123648733e-06
1.38928445e-05
-3.743063746e-05
-0.0001186594839
5.899712423e-05
0.000168970187
-6.709762618e-05
-0.0003369273988
8.841379175e-05
0.0003925019854
-3.986634169e-05
-0.0005363352188
4.751392636e-05
0.0005724004277
1.48109472e-05
-0.0006317427927
-2.117261533e-05
0.0006331594073
5.035443569e-05
-0.0005783591541
-6.48450839e-05
0.0005408359446
4.828139222e-05
-0.0003816024545
-6.394581538e-05
0.0003184157065
1.957454426e-05
-0.0001330751447
-3.150219007e-05
8.251973886e-05
0
-2.025966902e-06
-7.797365957e-07
0
0
0
0
0
0
0
0
0
0
0
0
0
0
0
0
0
0
0
0
0
0
0
0
0
0
0
0
0
0
0
0
0
0
0
0
0
0
0
0
0
0
0
0
0
3.251610887e-07
7.965580983e-07
-4.395178231e-05
-9.46272107e-05
6.510192204e-05
0.0001604900032
-0.0001430994236
-0.0004183755073
0.0001741677294
0.0005151535308
-0.000153405304
-0.0007993660239
0.0001723826428
0.0008842223807
-6.388994453e-05
-0.001085259015
6.659488462e-05
0.001131379575
4.523185057e-05
-0.00120459585
-5.337521849e-05
0.001207762666
0.0001139110518
-0.001150753241
-0.0001307584707
0.001107484562
0.0001160070289
-0.0008988423883
-0.0001342638853
0.0008048611259
8.633086002e-05
-0.0005019964253
-0.0001028777453
0.0003944764964
1.993394622e-05
-0.0001175211648
-3.00070519e-05
5.813402564e-05
0
0
0
0
0
0
0
0
0
0
0
0
0
0
0
0
0
0
0
0
0
0
0
0
0
0
0
0
0
0
0
0
0
0
0
0
0
0
0
0
0
0
-1.040197028e-05
-1.184031747e-05
1.720616449e-05
5.071388206e-05
-0.000142589206
-0.0003020263824
0.0001689350259
0.0004180941561
-0.0002738277271
-0.0008213445906
0.0002926313747
0.000960408612
-0.0002142779586
-0.001297579513
0.0002361531006
0.001369003543
-6.777646882e-05
-0.00152657378
6.893543558e-05
0.001548430216
7.03158246e-05
-0.001570959752
-7.193644787e-05
0.001571455039
0.0001817505345
-0.001559131618
-0.0001941384
0.001536770515
0.0002296162217
-0.001411649472
-0.0002453007232
0.001314360989
0.0001350395549
-0.0009215012364
-0.0001485447695
0.0007776699732
6.178636854e-05
-0.0003539409503
-7.169950614e-05
0.0002354287114
-1.588574797e-05
2.244231009e-06
-3.870122492e-06
2.423833276e-07
0
0
0
0
0
0
0
0
0
0
0
0
0
0
0
0
0
0
0
0
0
0
0
0
0
0
0
0
0
0
0
0
0
0
0
2.857890412e-07
9.294251944e-09
3.567035335e-07
-4.052545469e-05
-6.213445005e-05
4.939731188e-05
0.0001392821629
-0.0002410948372
-0.0005094665104
0.0002531760175
0.0006758705584
-0.0003401434526
-0.001157317084
0.0003520615752
0.001301244195
-0.0002395456382
-0.001629476413
0.0002221450852
0.0017003605
-9.276501661e-05
-0.001764339284
8.362576343e-05
5.048600931e-05
0.0008468928097
0.0008760997185
-0.0008416228286
3.164537304e-05
-3.175900281e-05
0.0008417364584
-0.0008679293777
0.0002502707903
0.001750247157
-0.0008895504785
-0.000116402256
-0.000126635835
-0.001662789652
0.0002596808465
-0.0002740838402
0.001601460801
0.0001884802508
-0.001260884461
-0.0002017102698
0.001107594122
9.679071038e-05
-0.0005946213534
-0.0001036090924
0.000436510353
-8.679377807e-05
1.604253097e-05
-2.037467623e-05
2.746795628e-05
0
0
0
0
0
0
0
0
0
0
0
0
0
0
0
0
0
0
0
0
0
0
0
0
0
0
0
0
0
0
0
0
0
-1.198227206e-06
0
2.565995837e-06
3.365451459e-06
5.194202935e-06
-6.806019962e-05
-0.0001094959248
7.034442305e-05
0.0002140510935
-0.000292417156
-0.0006772229874
0.0002972557563
0.0008599429946
-0.0003689355826
-0.001391048327
0.0003698071436
0.001539588434
-0.000203692537
-0.001816854804
0.0001992387774
0.001839083432
-3.880521742e-05
-0.000928654319
4.035362341e-05
0.000927105913
-0.0009197137485
0.0001033273076
-0.0001019398558
0.0009183262967
-0.001824445674
0.0003025842556
-0.0003083181354
0.001789136841
0.0002213288648
-0.001476403658
-0.0002255204604
0.001317591461
0.0001185605102
-0.0007674799619
-0.0001216991764
0.0005863149581
-0.0001597841751
2.991490828e-05
-3.398550513e-05
6.990697799e-05
0
0
0
0
0
0
0
0
0
0
0
0
0
0
0
0
0
0
0
0
0
0
0
0
0
0
0
0
0
0
0
0
0
-3.330158809e-06
0
4.208078456e-06
9.592280109e-06
1.091595863e-05
-8.194205791e-05
-0.0001428034009
8.441829248e-05
0.0002629568392
-0.000313621393
-0.0007738158117
0.0003169040023
0.0009706719434
-0.0003731151663
-0.001528797047
0.0003737753062
0.001678100013
-0.0001936081852
-0.001929466627
0.0001928881735
0.001938263472
-3.51241431e-05
-0.0009663196087
3.51178411e-05
0.0009663259106
-0.0009719715864
9.910789993e-05
-9.86054785e-05
0.0009714691649
-0.00194610328
0.0003151771336
-0.0003161508097
0.001923131845
0.0002404923015
-0.001630525741
-0.0002435270646
0.001470763621
0.0001301806368
-0.0008952094165
-0.0001322433665
0.0006982479416
-0.0002076311882
3.883808293e-05
-4.041366642e-05
0.0001008805403
0
0
0
0
0
0
0
0
0
0
0
0
0
0
0
0
0
0
0
0
0
0
0
0
0
0
0
0
0
0
0
0
0
-5.066877245e-06
0
6.249094728e-06
1.512245498e-05
1.699278948e-05
-9.058435572e-05
-0.0001684971825
9.307922471e-05
0.0003007693806
-0.000325043196
-0.0008501601849
0.0003282333266
0.00105873662
-0.0003755197301
-0.001641821827
0.0003761379919
0.001794819872
-0.0001914204066
-0.002041165338
0.000191027042
0.002046315128
-3.495101271e-05
-0.001019139647
3.527111023e-05
0.0005083139813
0.0005105055682
-0.001025366785
9.708778098e-05
-9.671486024e-05
0.001024993865
-0.002051846047
0.0003133278796
-0.000311406656
0.002023423212
0.0002411444818
-0.001704116065
-0.0002397609919
0.00153400794
0.0001307108751
-0.0009284421328
-0.0001300691416
0.0007234230988
-0.000214360233
3.929474689e-05
-3.880582099e-05
0.0001037203332
0
0
0
0
0
0
0
0
0
0
0
0
0
0
0
0
0
0
0
0
0
0
0
0
0
0
0
0
0
0
0
0
0
-7.539596561e-06
0
9.02565521e-06
2.340971074e-05
2.588105187e-05
-0.0001008856002
-0.0002002894238
0.0001036349903
0.0003461470655
-0.0003378843922
-0.0009369771532
0.0003411888701
0.001157675833
-0.0003778481718
-0.001765083524
0.0003783779752
0.001920946946
-0.0001897493339
-0.002158516812
0.0001894205306
0.002160717726
-3.502915804e-05
-0.001076693491
3.511087127e-05
0.0005373719654
0.000539239812
-0.001080721221
9.553090141e-05
-9.515142415e-05
0.001080341744
-0.002154858726
0.0003001856368
-0.0002947511912
0.00210240436
0.0002257385076
-0.001705802585
-0.0002258087647
0.001528045165
0.0001205229531
-0.0008883906049
-0.0001180516684
0.0006789673269
-0.0001779577469
3.159070417e-05
-2.991933223e-05
7.652949904e-05
0
0
0
0
0
0
0
0
0
0
0
0
0
0
0
0
0
0
0
0
0
0
0
0
0
0
0
0
0
0
0
0
0
-1.083248129e-05
0
1.150631232e-05
3.502740469e-05
3.65381794e-05
-0.0001126156185
-0.0002379757611
0.0001161261871
0.0003982613088
-0.0003516026151
-0.001030986995
0.0003555363931
0.001263294697
-0.0003798540901
-0.001891927824
0.0003803126891
0.002049281407
-0.0001886768825
-0.002273278712
0.0001887217344
0.002273419104
-3.52303487e-05
-0.001133172044
3.520881509e-05
0.0005655022607
0.0005676913173
-0.001133613618
9.373967429e-05
-9.36229981e-05
0.001133496942
-0.002225720388
0.0002781428386
-0.0002710488658
0.00213782987
0.0002069463613
-0.001667312296
-0.0001928889434
0.00145561315
0.0001049207806
-0.0007825136664
-9.781252844e-05
0.0005752137718
-0.0001207538447
2.080172315e-05
-1.799874198e-05
3.943069189e-05
0
0
0
0
0
0
0
0
0
0
0
0
0
0
0
0
0
0
0
0
0
0
0
0
0
0
0
0
0
0
0
0
0
-1.623369205e-05
0
2.159863177e-05
5.577092946e-05
6.415839173e-05
-0.0001264402737
-0.0002894116552
0.0001356534634
0.0004632780644
-0.0003685956614
-0.001142206127
0.000372534431
0.001385426516
-0.0003813825276
-0.002030798998
0.0003856871934
0.002185939454
-0.0001885494035
-0.002386620556
0.0001892996875
0.001189443309
0.001196426962
-1.858018222e-05
-0.0005932271862
1.87434845e-05
0.0005930638839
9.080437653e-06
-0.0002957199425
-8.556930281e-06
0.0005914583068
-0.0002962618716
-0.00118453072
9.302119787e-05
-0.0001944576062
0.00237653817
-0.001191185252
0.0001006142095
0.0002527965965
-0.002245186979
-0.0002383914216
0.00211000805
0.0001694395157
-0.001551597168
-0.0001630216346
0.001324563617
8.221766446e-05
-0.0006425678562
-7.818529961e-05
0.0004450665935
-5.079364223e-05
7.696238956e-06
-6.102397728e-06
5.014876977e-06
0
0
0
0
0
0
0
0
0
0
0
0
0
0
0
0
0
0
0
0
0
0
0
0
0
0
0
0
0
0
0
0
0
-2.423912706e-05
0
1.985183454e-05
7.739413214e-05
7.144425468e-05
-0.0001495864694
-0.0003489893523
0.000144817374
0.0005456276416
-0.0003870838836
-0.001276223358
0.0003809838134
0.001531882558
-0.0003777851952
-0.00218551519
0.0003771685107
0.00233494959
-0.0001849124662
-0.002500740785
0.0001849124662
0.001247121578
0.001253619207
-1.714204691e-05
-0.001247121578
3.227835749e-05
-1.513631056e-05
0.0006223859388
0.0006247356392
3.190809366e-05
-0.0006223859621
-3.190805866e-05
0.001247121578
-0.0006247356509
-0.002500740785
0.0001996893193
-0.0001976826391
0.002493149132
0.000214224997
-0.002195132861
-0.000207648728
0.002027089038
0.0001440794425
-0.001365462988
-0.0001312722019
0.001125368129
6.022301263e-05
-0.000457047666
-5.586911864e-05
0.0002929928744
-7.138156254e-06
1.24043461e-06
-5.664126731e-07
0
0
0
0
0
0
0
0
0
0
0
0
0
0
0
0
0
0
0
0
0
0
0
0
0
0
0
0
0
0
0
0
0
0
-1.225150394e-05
0
4.446114878e-06
3.658191022e-05
2.30482136e-05
-0.0001116016262
-0.0002578468001
9.59524966e-05
0.0004349531547
-0.0003344945072
-0.001139323885
0.0003101203868
0.001398233869
-0.0003654139935
-0.002099427574
0.0003554215218
0.002278442953
-0.0001956364022
-0.002584234737
0.0002033787436
0.002611093859
-3.227835748e-05
-0.002614620769
5.653465289e-05
0.002614620769
-2.425629545e-05
7.183935107e-05
-0.002614620769
-7.18393511e-05
0.002614620769
0.000183319941
-0.002564329464
-0.0001750735463
0.002489654453
0.0001761720917
-0.00204606381
-0.0001654737994
0.001836275936
0.0001044957445
-0.0011155884
-9.781951328e-05
0.0008737020553
3.628757554e-05
-0.0002682931963
-2.928933148e-05
0.0001402219908
0
0
0
0
0
0
0
0
0
0
0
0
0
0
0
0
0
0
0
0
0
0
0
0
0
0
0
0
0
0
0
0
0
0
0
0
0
-1.078147738e-07
0
0
2.057880866e-07
0
-4.583771374e-05
-8.97152514e-05
3.0981244e-05
0.0002022015661
-0.0002170846517
-0.0007501805594
0.000182365906
0.0009769408841
-0.0002987272099
-0.001663394754
0.0002709380084
0.001866928147
-0.0002060147505
-0.002327723561
0.0001984303586
0.002426403377
-6.068399012e-05
-0.002582286228
6.152005965e-05
0.002598228531
6.631291372e-05
-0.002562453651
-6.061495742e-05
0.002519222695
0.0001405724705
-0.002260170863
-0.0001264361945
0.002124981902
0.0001269199603
-0.001586265302
-0.0001128133819
0.001374961784
7.214031502e-05
-0.0007278084289
-6.209176871e-05
0.0005310823182
1.306722506e-05
-9.776821139e-05
-8.008405072e-06
2.684489165e-05
0
0
0
0
0
0
0
0
0
0
0
0
0
0
0
0
0
0
0
0
0
0
0
0
0
0
0
0
0
0
0
0
0
0
0
0
0
0
0
0
0
0
-3.042264202e-06
-2.068303826e-07
4.905021168e-07
1.561351719e-05
-8.358735342e-05
-0.0002719818163
5.654677363e-05
0.0004149323947
-0.0001711321158
-0.000926362951
0.0001365865567
0.001101234994
-0.0001522227229
-0.001557452619
0.0001312106531
0.001673812495
-5.726396785e-05
-0.001890132998
5.314379958e-05
0.00191676041
3.681327524e-05
-0.001862765966
-2.857886042e-05
0.00180126715
8.123645623e-05
-0.001496190659
-6.66854632e-05
0.001359570204
6.996035898e-05
-0.0008853567789
-5.619913711e-05
0.0007198252231
3.031786732e-05
-0.0002730441069
-2.040855684e-05
0.0001596200092
1.23257968e-07
-6.863563332e-07
0
0
0
0
0
0
0
0
0
0
0
0
0
0
0
0
0
0
0
0
0
0
0
0
0
0
0
0
0
0
0
0
0
0
0
0
0
0
0
0
0
0
0
0
0
0
0
0
-6.08587076e-06
-7.114814056e-06
9.232857135e-07
3.31044094e-05
-4.819219957e-05
-0.0002308909604
2.75358425e-05
0.0003214389948
-6.494260818e-05
-0.0005997792276
4.530239048e-05
0.0006807699163
-3.364244594e-05
-0.0008458942412
2.586289321e-05
0.0008692130171
9.564499317e-06
-0.0008364767999
-5.761150432e-06
0.0007930617189
2.950428274e-05
-0.0005859372402
-2.000498203e-05
0.0004992389907
2.013839229e-05
-0.0002314308627
-1.11405024e-05
0.0001527032196
1.121112193e-06
-8.79295198e-06
-3.192173386e-09
9.480463621e-08
0
0
0
0
0
0
0
0
0
0
0
0
0
0
0
0
0
0
0
0
0
0
0
0
0
0
0
0
0
0
0
0
0
0
0
0
0
0
0
0
0
0
0
0
0
0
0
0
0
0
0
0
0
0
-1.410019791e-07
0
0
1.199620919e-06
-5.866875828e-06
-3.287926632e-05
9.140228792e-07
5.095066017e-05
-5.814821892e-06
-9.921593179e-05
1.956758698e-06
0.0001076831117
5.952793786e-07
-9.988865544e-05
-1.510472438e-07
8.707310042e-05
2.12842918e-06
-3.455955379e-05
-1.803843935e-07
1.904234364e-05
0
0
0
0
0
0
0
0
0
0
0
0
0
0
0
0
0
0
0
0
0
0
0
0
0
0
0
0
0
0
0
0
0
0
0
0
0
0
0
0
0
0
0
0
0
0
0
0
0
0
0
0
0
0
0
0
0
0
0
0
0
0
0
0
0
0
0
0
0
0
0
0
0
0
0
0
0
0
0
0
0
0
0
0
0
0
0
0
0
0
0
0
0
0
0
0
0
0
0
0
0
0
0
0
0
0
0
0
0
0
0
0
0
0
0
0
0
0
0
0
0
0
0
0
0
0
0
0
0
0
0
0
0
0
0
0
0
0
0
0
0
0
0
0
0
0
0
0
0
0
0
0
0
0
0
0
0
0
0
0
0
0
0
0
0
0
0
0
0
0
0
0
0
0
0
0
0
0
0
0
0
0
0
0
0
0
0
0
0
0
0
0
0
0
0
0
0
0
0
0
0
0
0
0
0
0
0
0
0
0
0
0
0
0
0
0
0
0
0
0
0
0
0
0
0
0
0
0
0
0
0
0
0
0
0
0
0
0
0
0
0
0
0
0
0
0
0
0
0
0
0
0
0
0
0
0
0
0
0
0
0
0
0
0
0
0
0
0
0
0
0
0
0
0
0
0
0
0
0
0
0
0
0
0
0
0
0
0
0
0
0
0
0
0
0
0
0
0
0
0
0
0
0
0
0
0
0
0
0
0
0
0
0
0
0
0
0
0
0
0
0
0
0
0
0
0
0
0
0
0
0
0
0
0
0
0
0
0
0
0
0
0
0
0
0
0
0
0
0
0
0
0
0
0
0
0
0
0
0
0
0
0
0
0
0
0
0
0
0
0
0
0
0
0
0
0
0
0
0
0
0
0
0
0
0
0
0
0
0
0
0
0
0
0
0
0
0
0
0
0
0
0
0
0
0
0
0
0
0
0
0
0
0
0
0
0
0
0
0
0
0
0
0
0
0
0
0
0
0
0
0
0
0
0
0
0
0
0
0
0
0
0
0
0
0
0
0
0
0
0
0
0
0
0
0
0
0
0
0
0
0
0
0
0
0
0
0
0
0
0
0
0
0
0
0
0
0
0
0
0
0
0
0
0
0
0
0
0
0
0
0
0
0
0
0
0
0
0
0
0
0
0
0
0
0
0
0
0
0
0
0
0
0
0
0
0
0
0
0
0
0
0
0
0
0
0
0
0
0
0
0
0
0
0
0
0
0
0
0
0
0
0
0
0
0
0
0
0
0
0
0
0
0
0
0
0
0
0
0
0
0
0
0
0
0
0
0
0
0
0
0
0
0
0
0
0
0
0
0
0
0
0
0
0
0
0
0
0
0
0
0
0
0
0
0
0
0
0
0
0
0
0
0
0
0
0
0
0
0
0
0
0
0
0
0
0
0
0
0
0
0
0
0
0
0
0
0
0
0
0
0
0
0
0
0
0
0
0
0
0
0
0
0
0
0
0
0
0
0
0
0
0
0
0
0
0
0
0
0
0
0
0
0
0
0
0
0
0
0
0
0
0
0
0
0
0
0
0
0
0
0
0
0
0
0
0
0
0
0
0
0
0
0
0
0
0
0
0
0
0
0
0
0
0
0
0
0
0
0
0
0
0
0
0
0
0
0
0
0
0
0
0
0
0
0
0
0
0
0
0
0
0
0
0
0
0
0
0
0
0
0
0
0
0
0
0
0
0
0
0
0
0
0
0
0
0
0
0
0
0
0
0
0
0
0
0
0
0
0
0
0
0
0
0
0
0
0
0
0
0
0
0
0
0
0
0
0
0
0
0
0
0
0
0
0
0
0
0
0
0
0
0
0
0
0
0
0
0
0
0
0
0
0
0
0
0
0
0
0
0
0
0
0
0
0
0
0
0
0
0
0
0
0
0
0
0
0
0
0
0
0
0
0
0
0
0
0
0
0
0
0
0
0
0
0
0
0
0
0
0
0
0
0
0
0
0
0
0
0
0
0
0
0
0
0
0
0
0
0
0
0
0
0
0
0
0
0
0
0
0
0
0
0
0
0
0
0
0
0
0
0
0
0
0
0
0
0
0
0
0
0
0
0
0
0
0
0
0
0
0
0
0
0
0
0
0
0
0
0
0
0
0
0
0
0
0
0
0
0
0
0
0
0
0
0
0
0
0
0
0
0
0
0
0
0
0
0
0
0
0
0
0
0
0
0
0
0
0
0
0
0
0
0
0
0
0
0
0
0
0
0
0
0
0
0
0
0
0
0
0
0
0
0
0
0
0
0
0
0
0
0
0
0
0
0
0
0
0
0
0
0
0
0
0
0
0
0
0
0
0
0
0
0
0
0
0
0
0
0
0
0
0
0
0
0
0
0
0
0
0
0
0
0
0
0
0
0
0
0
0
0
0
0
0
0
0
0
0
0
0
0
0
0
0
0
0
0
0
0
0
0
0
0
0
0
0
0
0
0
0
0
0
0
0
0
0
0
0
0
0
0
0
0
0
0
0
0
0
0
0
0
0
0
0
0
0
0
0
0
0
0
0
0
0
0
0
0
0
0
0
0
0
0
0
0
0
0
0
0
0
0
0
0
0
0
0
0
0
0
0
0
0
0
0
0
0
0
0
0
0
0
0
0
0
0
0
0
0
0
0
0
0
0
0
0
0
0
0
0
0
0
0
0
0
0
0
0
0
0
0
0
0
0
0
0
0
0
0
0
0
0
0
0
0
0
0
0
0
0
0
0
0
0
0
0
0
0
0
0
0
0
0
0
0
0
0
0
0
0
0
0
0
0
0
0
0
0
0
0
0
0
0
0
0
0
0
0
0
0
0
0
0
0
0
0
0
0
0
0
0
0
0
0
0
0
0
0
0
0
0
0
0
0
0
0
0
0
0
0
0
0
0
0
0
0
0
0
0
0
0
0
0
0
0
0
0
0
0
0
0
0
0
0
0
0
0
0
0
0
0
0
0
0
0
0
0
0
0
0
0
0
0
0
0
0
0
0
0
0
0
0
0
0
0
0
0
0
0
0
0
0
0
0
0
0
0
0
0
0
0
0
0
0
0
0
0
0
0
0
0
0
0
0
0
0
0
0
0
0
0
0
0
0
0
0
0
0
0
0
0
0
0
0
0
0
0
0
0
0
0
0
0
0
0
0
0
0
0
0
0
0
0
0
0
0
0
0
0
0
0
0
0
0
0
0
0
0
0
0
0
0
0
0
0
0
0
0
0
0
-0.0009606689384
0.0009607177672
-3.517297189e-05
-9.242908698e-05
0.000963279189
9.295882322e-05
-0.0004836364112
-0.0004801725141
0.0001009165746
-0.0009236003722
-9.702995098e-05
-0.001012121821
-3.472932186e-05
0.0005053497032
0.0005065504273
-8.867260386e-05
0.001019453301
8.918526699e-05
-0.0005108033797
-0.0005091625843
-9.079667119e-05
-0.0004877688424
-0.0004858351597
-0.001069519924
-3.489719364e-05
0.0005339338989
0.0005354540611
-8.75711864e-05
0.001072703119
8.688666538e-05
-0.0005366893413
-0.0005353292571
-8.830225547e-05
-0.0005131010151
-0.0005126361187
-0.001125785839
-3.504254848e-05
0.0005619682658
0.0005636297725
-8.481383962e-05
0.001126060255
8.558768228e-05
-0.001126834097
-0.001081240645
-8.70517621e-05
-0.0005920105338
0.0005920132611
-1.858290947e-05
0.0002958166389
-3.963004913e-06
4.044664294e-06
-0.0002958982983
-0.0002953706039
0.0005905101747
9.757505732e-06
-8.412322427e-05
0.00117891894
8.411012972e-05
-0.001178905845
-0.001133878798
-8.454866015e-05
-0.0006211930896
0.0006211930896
-1.714204691e-05
0.0006211931544
-1.29453548e-05
1.294549839e-05
-0.000621193298
-0.0002960411047
-3.641842782e-06
0.001240039768
-0.0005681104639
-1.510221818e-05
-3.725837895e-06
-0.0001456089239
0.002443087949
-0.001236638151
-0.001222508471
7.756361927e-05
8.410397819e-05
-0.001184500913
-8.415303122e-05
-0.0009212634605
0.0009208191234
-3.836088032e-05
2.30998887e-05
-0.0008419292418
-2.279347547e-05
0.0009169716836
9.936297075e-05
-0.0009154180797
0.000106314044
-0.0008609441498
-0.0001132992719
-1.552061172e-05
0.0002371640387
1.563636928e-05
-0.0002372797962
0.0004657579841
3.707417768e-05
-0.00046701712
-3.581504181e-05
0.0009629002861
9.94868029e-05
-0.0003008586291
0.001914292958
0.0003032933818
-0.001917247334
0.0003046103136
-0.001834780653
-0.0003013492094
-0.002012301339
0.002018222273
-0.000191811672
4.291308935e-05
-4.287941797e-05
-0.001012155493
-4.304553815e-05
-0.000966223411
4.294934053e-05
-1.717396138e-05
0.0002486825169
1.699839693e-05
-0.0002485069524
1.506610603e-05
0.0002426858493
-0.0002425317613
-1.522019398e-05
0.001019184695
9.73563872e-05
-0.0002976580789
0.002027843451
0.0002985814124
-0.002028876268
-0.001947256175
-0.0002998875661
-0.00212971042
0.002132560801
-0.0001901130312
4.288473612e-05
-4.28515644e-05
-0.001069553096
-0.001019171934
4.294537593e-05
3.513806386e-05
-0.001041650322
-3.51047462e-05
0.0005198258376
0.0005217911672
4.848283673e-06
0.0002611399091
-4.839122824e-06
-0.000521792272
0.000260643202
-4.746064333e-06
0.0002535637707
-0.0005081352181
4.933456234e-06
0.0002543840556
-1.47772843e-05
0.000262641617
1.486118009e-05
-0.0002627255128
1.618299614e-05
0.0002558905003
-0.000255404662
-1.666883447e-05
0.001072768837
9.546518387e-05
-0.000291120923
0.002128781585
0.0002938544778
-0.002135637541
-0.002053250129
-0.0002966138936
-0.002244190054
0.002244794004
-0.0001887393181
4.292978224e-05
-4.28992133e-05
-0.001125816407
-0.0010766744
4.286564536e-05
3.474835997e-05
-0.001097969789
-3.49727927e-05
0.000548289155
0.0005499050667
2.105175881e-06
0.0002751675656
-2.058286865e-06
-0.0002752144546
-5.022832384e-06
0.0002684257203
-0.0005373862145
4.970783006e-06
0.0002690125436
-2.764727296e-05
0.000550662314
2.785078618e-05
-0.0005508658272
2.868361719e-05
0.0005397015639
-2.751878381e-05
-0.0002709244635
-0.0002699419337
-0.002358462058
-0.0001888002055
0.001175824363
0.001182888497
4.312659699e-05
0.0005907324754
-4.295556808e-05
-0.001182914038
-0.001133204618
4.296235591e-05
1.855890915e-05
-0.0005783994777
0.0005784590287
-1.861846022e-05
1.082135573e-06
0.0002898667804
-1.34288637e-06
-0.0002896060296
-1.615371968e-06
0.0002821177594
-0.000282213023
1.710635584e-06
-0.000291501657
-6.262942694e-06
0.0002906780629
7.086536806e-06
-2.639874155e-05
0.0005781265706
2.623826828e-05
-0.0005779660973
2.719306936e-05
0.0005661659938
-0.0005661768021
-2.718226101e-05
-0.002425876449
-0.0001837257709
0.001184649986
0.001240039768
4.030323661e-05
0.0006188466784
-4.030323661e-05
-0.001240039768
0.0005961629238
-0.001189383302
4.311978913e-05
1.856997395e-05
-0.0006062446359
0.0006061893143
-1.851465228e-05
1.976425081e-06
0.000301532248
-1.259564531e-06
-0.0003022491085
-6.502741684e-07
0.0002950096072
-0.0002953226482
9.63315086e-07
-0.001296687669
0.001296687669
-3.227835747e-05
0.001296687669
-2.388461805e-05
2.388461806e-05
-0.001296687669
-0.000622386043
-1.294527388e-05
-2.816514877e-06
-0.0004701614886
3.198097e-06
0.0002343834806
0.0002353964259
2.511549491e-06
-0.0004808496426
-2.554205913e-06
0.0002405550885
0.0002403372104
-0.0004663513837
-1.152865242e-05
1.253062332e-05
0.0004653494128
-0.0004696954819
0.0004700533117
-3.174344698e-06
0.000242401309
1.492428785e-05
-0.0002422594908
0.0002369350544
-0.0002371395753
-1.531609078e-05
9.457445858e-05
0.0009458872156
-9.357092273e-05
-0.0004752155501
-0.0004716752013
3.464116918e-05
-0.0002367335354
-3.380225091e-05
0.0004728296716
-1.578675406e-05
0.0002424731257
1.571493736e-05
0.0002530314516
-4.512296758e-06
-0.0005063729791
0.0002531077599
0.0004948404604
-4.696388814e-06
-0.0004948857431
4.74167154e-06
-3.495156756e-05
-0.0009921125356
3.498774404e-05
0.0009920763591
-2.640027204e-06
2.961174855e-06
0.0002471090126
0.0002474103001
1.571052525e-06
0.0002530316271
-1.571228012e-06
-0.0004820087208
2.734776897e-06
0.0002406012515
0.000241184242
-0.000493577127
-2.732347397e-06
0.0002467741749
0.0002468952723
0.0002550068732
1.564781237e-05
-0.0002544716895
0.0002498480061
-0.0002494986676
-1.752329984e-05
4.604646974e-05
0.0004993906253
-0.00049949316
-4.594393507e-05
1.746057435e-05
-1.756084363e-05
0.0002499482753
-1.628483486e-05
0.0002553231121
1.5968596e-05
-1.584830108e-05
0.0002427473963
0.0002488420563
1.730103488e-05
0.0004969158778
4.605234985e-05
-0.0004969217579
0.000267833412
-4.828146823e-06
-0.0005353221251
0.0002672940275
0.000261822328
-0.0005240061254
4.656839493e-06
0.0002623752416
-0.00104912211
3.488114744e-05
0.0005239005545
0.0005254784716
-1.435114968e-06
1.385697828e-06
0.0002618717451
1.801846554e-06
0.0002677862367
-1.754671176e-06
1.616612343e-06
0.0002535182108
0.0002612292666
-1.524472534e-06
0.0005372350355
2.856803811e-05
-0.0002687808745
-0.000268338582
0.000262997265
-0.0002629267117
-1.484783762e-05
8.697118293e-05
0.00105180299
-8.70992591e-05
-0.0005263093838
-0.00052536553
3.112119669e-05
-0.0002626855772
-3.070809983e-05
0.0005252697453
-3.055979644e-05
0.0005371638083
3.063102363e-05
-1.659658871e-05
0.0002562022541
-0.0002618228177
0.0005239983688
1.53920551e-05
1.619520746e-05
0.00104521695
8.789773006e-05
-0.0005238543564
-0.0005222891403
0.0002816736659
-1.571281297e-06
-0.0002817177565
0.0002755586525
-0.0002755536777
2.100201098e-06
-0.001104219179
3.508682725e-05
0.0005513154782
0.0005525652333
-1.469243326e-06
1.617643772e-06
0.000275410252
7.024588803e-07
0.0002815244041
-5.531970918e-07
1.801298907e-06
0.0002684262679
0.0002751217498
-1.423427561e-06
0.0005647872054
2.72399993e-05
-0.0005648341354
0.0005527940969
-0.0005528011377
-2.764023213e-05
0.0002957492892
-4.458455564e-07
-0.0002959537178
0.000289863741
-0.0002899652848
1.183679456e-06
-0.0005800086907
1.855451172e-05
0.0005800130881
4.087728772e-06
0.0002899583026
-0.0002890244849
-5.021546507e-06
-1.299283826e-07
2.811692555e-07
0.0002897125001
3.985742816e-07
0.0002953256186
2.509628169e-08
9.042274672e-07
0.0002819159908
0.0002900305361
-2.936841736e-07
5.654391664e-06
-0.0002930683199
-5.093255046e-05
0.001178477824
5.074503682e-05
-0.0005896543165
-0.0005886359942
0.0005793763592
-0.0005791953681
-2.65797327e-05
-6.256635867e-06
0.0002899519958
0.0006263628227
4.829325365e-06
-0.0006235001893
-4.674733768e-06
-3.01722497e-06
0.0003019766679
-0.0003023661451
2.365902307e-06
-0.000607793089
1.868442065e-05
0.0006076786423
2.78658701e-06
0.0006005144557
-0.0006009147654
-2.386277331e-06
-2.32839786e-06
2.574803186e-06
0.0003017302626
1.098980663e-06
0.0006263658178
-2.522057518e-06
1.42008171e-06
8.344753048e-07
0.0002945737062
-1.812011241e-06
0.0003010158613
0.000599223565
3.541499114e-06
-0.0005999784771
-0.001901562765
0.001912332766
-0.0001949410963
-4.314072202e-05
-0.0009605737545
-4.642604655e-05
-0.0009273903696
4.516209714e-05
3.627534164e-05
-0.0009383014956
0.0009382154413
-3.618928737e-05
4.972029712e-06
-5.031616585e-06
-0.000469635895
-7.434933395e-06
-0.0004677322824
8.815832046e-06
-3.789232236e-05
0.0002306480561
-2.117435027e-06
-0.0001906382988
0.0002391842037
1.707282109e-05
-0.0002425295232
-1.372750162e-05
-0.0009855787989
0.0009856810457
-3.505381433e-05
-4.698258736e-06
-0.0004935752571
-4.750871259e-06
-0.0004820093711
4.751521507e-06
-8.084913743e-05
0.0002747396213
3.247282464e-05
-0.0002263633085
0.001125701708
9.409822122e-05
-0.0002780228895
0.002213068668
0.0002827096108
-0.002245212762
-0.002164030778
-0.0002895623778
-7.933120971e-05
0.0002870045682
2.863643248e-05
-0.000236309791
-1.850183532e-05
0.0005713501854
1.884652774e-05
-0.000286028596
-0.0002856662818
9.801248491e-06
0.0002829375699
-0.0002828902551
-9.848563312e-06
-6.875090048e-06
0.0005988481619
7.250493205e-06
-5.627593223e-05
0.001202210599
5.38625289e-05
-0.001199797196
0.001184311074
-5.121785691e-05
-0.0005926349178
-0.0005913908494
-4.748078456e-06
-0.0004808524354
-0.0004701862005
4.996741589e-06
-0.0009396260626
3.565929479e-05
0.0009402421095
1.344527132e-06
-0.0002379055131
-1.819378394e-06
0.0002383803644
-0.0002406083477
-7.005117475e-06
3.735857162e-06
0.000243877608
-0.0002350879698
7.025715573e-07
0.0002354571539
-1.07175567e-06
4.18635308e-05
-3.805245885e-05
0.0004619469122
-0.0002359118234
0.000472078698
3.563833326e-05
0.0009382215851
9.280476848e-05
-0.0004693698174
-0.0004670820776
0.0002829872501
1.002501471e-05
-0.0002832110164
1.282288143e-05
0.0002801186631
-0.0002808999466
-1.204159794e-05
8.646209799e-05
0.001105594636
-0.001105988922
-8.606781201e-05
3.000311793e-05
-2.980610441e-05
0.0005525970833
-2.937804973e-05
0.0005646442443
2.952101087e-05
-3.019761002e-05
0.0005393393774
0.0005506604382
3.000499376e-05
0.00110015776
8.65963739e-05
-0.001100292036
6.959751008e-06
0.0002937844578
-0.0002947799052
-5.964303608e-06
-0.0002969902256
-5.10436943e-06
0.0002969474804
5.147114627e-06
-4.668536978e-06
0.0005951803441
4.875726714e-06
-0.0002975804489
-0.0002978070849
0.0004342563373
9.699783437e-06
-0.0004342424179
-9.713702769e-06
-0.0009368424112
-2.518900933e-05
2.600923291e-05
1.530039524e-05
0.0004557963231
0.0004649254692
-0.0004604274955
0.0004699568639
-2.105802079e-05
0.0004629365149
3.77068324e-05
-0.0004635691696
0.0009146003426
8.891388465e-05
-0.0004590218731
-0.0004399193733
-4.532580807e-05
-5.924717279e-05
2.019873444e-05
-2.075298214e-05
0.000434810585
0.0002950300046
-0.000332922327
3.343022994e-05
0.0004697870095
-3.246470602e-05
-0.0002354129796
-0.0002353395538
1.698328403e-05
4.053258928e-05
0.0002375141313
1.502163385e-05
-1.333053454e-05
0.0002374931044
0.0002364353127
1.119602746e-05
0.0004663991476
3.20179283e-05
-0.0002330489348
-0.0002319379111
1.535152822e-05
0.000245911534
-0.0002459486925
-1.531436974e-05
0.0002457972972
1.539714175e-05
-0.0002458429107
1.451672422e-05
0.0002601448711
-0.0002600673863
-1.459420903e-05
0.0002604512291
1.486909255e-05
-0.0002608035975
0.0002751888748
-1.279021409e-05
1.09511331e-05
-0.0002733497938
0.0002791438502
-0.0003534107363
-6.582251301e-06
2.817449535e-05
0.0005452406973
-0.0005452404315
-2.81747612e-05
1.556650034e-05
-1.193315492e-05
0.0002755105048
-1.318463182e-05
0.0002756960675
1.267743913e-05
1.400669796e-05
-3.21778284e-05
0.0002670442903
-0.0002488731599
0.0002732959021
1.70102196e-05
0.0005439183351
2.823890575e-05
-0.0002721206594
-0.0002718620861
0.0002861241753
-2.542249061e-06
-0.0002862224925
2.640566247e-06
-1.087472274e-05
-0.0005725309038
1.092207271e-05
0.0005724835538
1.091092595e-05
-0.0005783671939
0.0005784253254
-1.096905748e-05
-1.753557676e-05
0.0005778744118
1.770520478e-05
-0.0005780440398
0.00057289679
-1.811605111e-05
-0.0002869465951
-0.0002863359791
-0.0003687611913
-2.610773013e-06
0.0002920407546
-3.729267975e-06
0.0002995032545
-0.0002998692409
4.095254371e-06
-1.116711428e-05
-0.0006006485798
1.122547496e-05
0.0006005902191
1.122721849e-05
-0.0006061355339
-1.094887737e-05
0.0003026747918
0.0003031824011
-1.103948805e-05
-0.0005929684376
1.119545933e-05
0.0005928124663
-0.0005988274343
0.0005987790405
-1.111872055e-05
0.0002982563954
-3.248490543e-06
-0.0002987371728
-0.0002407183545
-7.532190179e-07
-6.064332216e-05
0.0003021148957
-0.0002364782885
1.531362779e-06
0.0002362914528
3.033125118e-06
-0.0004750281409
-2.855638097e-06
0.0002368504207
0.0002380002333
-1.458004083e-06
1.876412877e-06
-0.0002368966973
1.567085798e-06
-0.0002384988603
-3.78658e-06
-4.617957129e-06
1.873499797e-05
-0.0002408663341
0.0002267492932
-0.0002381887456
-1.1747716e-06
-0.0004772163756
2.506019838e-06
0.0002389333743
0.0002388101065
4.264421928e-06
-0.000471582584
0.0004718871598
-4.568997727e-06
-5.569663385e-07
8.26667173e-07
-0.0002353576706
-1.258283098e-05
-0.0002332278827
5.202366005e-06
0.0002378645229
7.325850317e-07
-0.0002370300221
0.0002351139328
-0.0002351904527
-4.804465102e-07
-0.0004695538672
3.963967786e-06
0.0004698543213
-7.778179935e-07
0.0002365943224
0.0002375564504
-4.451465467e-07
1.590539189e-05
0.0002400955832
-0.000239532552
-1.646842311e-05