/*--------------------------------*- C++ -*----------------------------------*\
| =========                 |                                                 |
| \\      /  F ield         | OpenFOAM: The Open Source CFD Toolbox           |
|  \\    /   O peration     | Version:  v1912                                 |
|   \\  /    A nd           | Website:  www.openfoam.com                      |
|    \\/     M anipulation  |                                                 |
\*---------------------------------------------------------------------------*/
FoamFile
{
    version     2.0;
    format      ascii;
    class       volScalarField;
    location    "3";
    object      nut;
}
// * * * * * * * * * * * * * * * * * * * * * * * * * * * * * * * * * * * * * //

dimensions      [0 2 -1 0 0 0 0];


internalField   nonuniform List<scalar> 
12556
(
1.155905546
1.155876961
1.155846048
1.155816867
1.156030746
1.156021025
1.156023382
1.156038218
1.156071271
1.156135532
1.1562414
1.156377717
1.156508238
1.156549763
1.156520164
1.156415875
1.156284619
1.156186514
1.156100526
1.156062677
1.155821173
1.155822635
1.155842028
1.155867753
1.155188404
1.155106144
1.155015309
1.154934716
1.155123689
1.155104647
1.155133708
1.155310987
1.155470466
1.155773933
1.156271175
1.156933582
1.157584256
1.157915367
1.157779281
1.157257144
1.156622019
1.156060463
1.155576739
1.155325938
1.154971572
1.154963721
1.155011017
1.155088132
1.154449387
1.154303058
1.154148402
1.154024348
1.154212626
1.154213367
1.154300929
1.154592728
1.155003072
1.155759408
1.157036616
1.060024112
0.9585369392
0.906751391
0.9437212204
1.052149784
1.157639826
1.156375317
1.155333147
1.154756605
1.154208799
1.154136148
1.154188894
1.154306487
1.153681183
1.153482734
1.153276491
1.153127828
1.153309231
1.153366804
1.153570162
1.154091105
1.154971116
1.156789393
0.9324073441
0.7327153794
0.6266737055
0.621921252
0.6707010863
0.7671775258
0.930547168
1.157640937
1.155648463
1.154493683
1.153569105
1.1533861
1.153402002
1.153544571
1.152905305
1.152639873
1.152383496
1.152226972
1.152442684
1.152595177
1.153021447
1.15389461
1.155770561
0.9191480465
0.6111220483
0.4402618652
0.3701498741
0.3829324027
0.4458601534
0.5395720311
0.6780583901
0.909992573
1.156885143
1.154676402
1.153156462
1.152704451
1.152636848
1.152776022
1.152118009
1.151804646
1.15151676
1.151370285
1.151627722
1.151930807
1.152730418
1.154174837
1.106409344
0.6712286357
0.3982514798
0.2432104096
0.1854462601
0.2125705322
0.2871817578
0.3826146568
0.5064630689
0.6997371082
1.018820393
1.155408131
1.152947375
1.152106385
1.151890401
1.15199692
1.151327533
1.150966018
1.150651572
1.150534922
1.150880559
1.151395421
1.152677695
1.155031973
0.9263235715
0.5283436057
0.28072262
0.1226312269
0.06656789111
0.1042890797
0.188684544
0.2844723749
0.3978412471
0.5619787917
0.8615239465
1.156745349
1.152947955
1.151568849
1.151132196
1.151174092
1.150556947
1.150160567
1.149842631
1.149776721
1.150229218
1.151019771
1.152933198
1.156318687
0.8365921885
0.4875897488
0.2664157833
0.1058340791
0.05759327628
0.1407272664
0.2324104233
0.3365321211
0.4792474374
0.7506916795
1.121718394
1.153198819
1.151135469
1.150390662
1.150332405
1.14982564
1.149394272
1.149074748
1.149078518
1.149707143
1.150823417
1.153473361
1.157852876
0.8182113012
0.5245716357
0.3622689358
0.2711806123
0.06721450441
0.1352640199
0.2161030295
0.3111217805
0.4415942353
0.6923953814
1.038890228
1.153649624
1.150805994
1.149691327
1.149508345
1.149156644
1.148704124
1.148404654
1.148521107
1.149305759
1.150809482
1.154246286
1.159453554
0.8354831438
0.5919982042
0.4949182073
0.5615640802
0.09242696537
0.1510877813
0.2236168058
0.3130840484
0.4353382698
0.6689396791
0.9884719936
1.154340251
1.150672347
1.149134821
1.148798802
1.148544205
1.148072148
1.147802368
1.148085878
1.148982457
1.150965759
1.155196018
1.161059721
0.8634323091
0.6506045751
0.5875143075
0.5896815202
0.1257220995
0.1803406152
0.2490199484
0.3331483371
0.4489647653
0.6753120428
0.9663373846
1.155182713
1.150733016
1.148769938
1.148274876
1.148032557
1.147551286
1.147322006
1.147753084
1.148764021
1.151260464
1.156262766
1.162645263
0.8923966334
0.6841764699
0.6023398821
0.5088329562
0.1634965419
0.2215524651
0.2909685075
0.3730990015
0.4887669863
0.7080611179
0.9749161169
1.156219288
1.151049257
1.14867709
1.14801572
1.147571448
1.147079881
1.146920795
1.147530521
1.14867939
1.151647464
1.157398724
1.164209126
0.927045908
0.7049207494
0.5675715535
0.4471063072
0.07754656616
0.2107009891
0.2826074654
0.3569684443
0.439170745
0.5604505478
0.7646568175
1.0116238
1.157312752
1.151545056
1.148815025
1.14801913
1.147223574
1.146728969
1.146634383
1.147383205
1.14878418
1.152332138
1.158692788
1.165758744
0.984596919
0.7485103255
0.5680743369
0.2835622489
0.1400187979
0.3120868009
0.3924367875
0.4635832869
0.5395483793
0.6574346379
0.8457874194
1.067040359
1.158420062
1.152224541
1.149178159
1.148258319
1.146907043
1.146405887
1.146372668
1.147276321
1.148907883
1.152899087
1.159734098
1.166802926
1.100141439
0.8627042857
0.6711247423
0.07340040472
0.2008759416
0.4848455117
0.6044535391
0.6396798607
0.6961952713
0.798503936
0.9685736073
1.164254431
1.159437116
1.152920935
1.149653764
1.14866772
1.146685746
1.146181362
1.146198384
1.147233461
1.149068144
1.153446986
1.160681019
1.167598577
1.164620387
1.079602072
0.8888679267
0.04943748927
0.2129482032
0.4849975449
0.7328500677
0.9258984541
0.9193389735
0.9863643136
1.138539906
1.168794945
1.160319802
1.153620575
1.150204329
1.149167089
1.146454722
1.145940651
1.145995152
1.147169224
1.149228587
1.153938212
1.161483059
1.16812011
1.165166425
1.126518225
0.8962021961
0.07381712096
0.1897305008
0.4650479978
0.7191120958
0.9244698859
1.062224926
1.133714981
1.165828601
1.169627115
1.160992188
1.154212548
1.150710807
1.149651696
1.146297354
1.145777448
1.145855061
1.147129122
1.149360376
1.154346566
1.162092489
1.168376024
1.164538638
1.126002864
0.9046342859
0.1166780492
0.1592259443
0.4417268004
0.7102774969
0.9281380713
1.066593113
1.135922853
1.166723013
1.170048342
1.161438235
1.154681257
1.151185094
1.150123128
1.146092485
1.145562308
1.14565116
1.147026768
1.149447048
1.154658075
1.162501532
1.168307081
1.162734942
1.11874148
0.8795968674
0.1354201292
0.1498801189
0.4358392825
0.7164617405
0.9350533625
1.069533875
1.137145646
1.167056368
1.170115927
1.161633172
1.154963036
1.151513959
1.150466835
1.145951929
1.145419926
1.145512509
1.146945319
1.149481389
1.154871258
1.162720814
1.167944222
1.160374799
1.106984423
0.8139031584
0.1041345128
0.1659787137
0.4468802566
0.7249803887
0.9403568308
1.07150006
1.137696999
1.166965568
1.169901695
1.161684774
1.155172339
1.151794317
1.150763139
1.145735692
1.145201926
1.145296118
1.146795851
1.14947127
1.154995131
1.162770063
1.167331256
1.157510486
1.092876534
0.7385493698
0.08382426286
0.1819923181
0.4568301358
0.7305825508
0.9442152642
1.072766012
1.137791213
1.166566699
1.169477664
1.161547829
1.155212237
1.151917556
1.150905729
1.145587499
1.145064294
1.145163905
1.146695197
1.149428485
1.155048085
1.162676386
1.166505717
1.154141901
1.076052481
0.6685220489
0.07220737757
0.1957173114
0.465538748
0.7345044166
0.9465488763
1.073454308
1.137560849
1.165953967
1.168907855
1.161357913
1.155235015
1.152022879
1.151021825
1.145342736
1.144831854
1.144943174
1.146532488
1.149371476
1.155052912
1.162470423
1.165499458
1.150217616
1.055156091
0.6115323741
0.0647769189
0.2077806693
0.4732437085
0.7375365297
0.9474851848
1.073573591
1.137071881
1.165192811
1.168243399
1.161038318
1.15511212
1.151977327
1.150985254
1.145179799
1.144693811
1.144826431
1.14644712
1.149309521
1.155028961
1.162177939
1.164322344
1.145570654
1.028656461
0.5655897791
0.05992711953
0.2184793744
0.4801130748
0.740008478
0.9474242145
1.07313549
1.136350744
1.164323431
1.167520007
1.160735322
1.155025495
1.151958497
1.150964941
1.144903664
1.144442587
1.144603343
1.146290806
1.149253103
1.15498788
1.161814734
1.162964192
1.139907028
0.9977008943
0.5275295431
0.05732771273
0.228070663
0.48629589
0.7420534495
0.9467553254
1.072220243
1.135419066
1.163372447
1.166761439
1.16032541
1.154799366
1.151791645
1.150795414
1.144728406
1.144303575
1.144503356
1.146232569
1.149200427
1.154934197
1.161386623
1.161397943
1.132846543
0.9653010318
0.4954039071
0.05651782075
0.2368287665
0.4919157115
0.743741249
0.9457326678
1.070945497
1.134309048
1.162361442
1.165983297
1.159978279
1.154654183
1.151696626
1.150689041
1.144427084
1.144035383
1.144276576
1.146082143
1.149156191
1.154867416
1.160890804
1.159576091
1.124106735
0.9336312926
0.4678395952
0.05698632086
0.2448723391
0.4970266357
0.745137031
0.9445075922
1.069423382
1.133059542
1.161309486
1.16519661
1.159521142
1.154360683
1.151447405
1.150429638
1.14424443
1.143896808
1.144192115
1.146051196
1.149113219
1.154784988
1.160317608
1.157425445
1.113675394
0.9036265983
0.4439384904
0.05837652236
0.2523216874
0.5017181267
0.7463143666
0.9431759261
1.067743072
1.131707747
1.160232283
1.164408895
1.159164199
1.154187142
1.151310802
1.150276109
1.143931166
1.14362087
1.143965603
1.145903523
1.149076728
1.154683605
1.159653016
1.154866984
1.10178746
0.8755364647
0.4231240946
0.05997348384
0.2593782931
0.5061144924
0.7473493919
0.9418029803
1.065969949
1.130285196
1.1591421
1.163625197
1.158682155
1.153851949
1.151010399
1.149962184
1.143741847
1.143481268
1.143892826
1.145897604
1.149037771
1.154560131
1.158879262
1.151823327
1.088767279
0.8492075651
0.4047681306
0.06200596016
0.2661205496
0.5102966798
0.7483056078
0.9404330824
1.064150471
1.128816973
1.158048057
1.162849588
1.158330705
1.153663844
1.150850859
1.149783415
1.143438504
1.143216366
1.143680852
1.145757081
1.149003986
1.154410648
1.157973998
1.148230624
1.074900722
0.8243331133
0.3881972297
0.06457966393
0.2725972151
0.514327472
0.7492264903
0.9390957428
1.062318106
1.127322991
1.156956774
1.16208313
1.157843897
1.153314396
1.150530872
1.149449525
1.143230975
1.143063521
1.143606154
1.145766864
1.148964812
1.154231298
1.156912771
1.144056377
1.060432445
0.8007155897
0.3730805527
0.06770567448
0.2788543507
0.5182389199
0.7501400902
0.937811185
1.060497552
1.125819217
1.155872915
1.161329414
1.157490883
1.153102982
1.150344327
1.149243431
1.142973783
1.142843211
1.143438861
1.145653761
1.148929184
1.154016722
1.155669786
1.139296353
1.045572365
0.7783007299
0.3592567465
0.07129472173
0.2849178959
0.5220731595
0.7510733987
0.9365967965
1.058708072
1.124318028
1.154799846
1.160584575
1.157039513
1.152783889
1.150050029
1.148937023
1.142716813
1.142646374
1.143330572
1.145647438
1.148886333
1.153762696
1.154223116
1.133969289
1.030492514
0.7570452816
0.3465090096
0.07533268649
0.2908280666
0.5258791705
0.7520597101
0.9354720908
1.056967413
1.122831905
1.153743008
1.159858356
1.156630329
1.152504693
1.149797455
1.148665302
1.142554266
1.14251697
1.143250859
1.145609943
1.148847219
1.153466714
1.152565519
1.128100279
1.015314019
0.7368844291
0.3346992983
0.0798729695
0.2966347694
0.5296919737
0.7531278662
0.9344560626
1.055291955
1.121371653
1.152719406
1.159150362
1.156319711
1.152293396
1.149603512
1.148462438
1.142244277
1.142285093
1.143135524
1.145613901
1.148825323
1.153142718
1.150745562
1.1217546
1.000205306
0.7179042332
0.3237967673
0.08493113545
0.3023553233
0.5335031246
0.7542765122
0.9335551167
1.053691303
1.119942281
1.151795478
1.158530026
1.155775511
1.151914916
1.149261055
1.148099593
0.2361514782
0.05959136642
0.05016786673
0.5418885659
0.0840473129
0.06240916227
0.5992109952
0.1182224269
0.08805893372
0.5177580508
0.1498952145
0.1233207327
0.4527352878
0.0576669749
0.07270909308
0.1849385371
0.1538648933
0.3354050742
0.09997114363
0.05936742791
0.126249357
0.251449467
0.1881882002
0.1018916763
0.06786004945
0.05200052043
0.09865953763
0.03034885984
0.02130770179
0.06484277385
0.1149441762
0.1205283143
0.4629027964
0.5134914615
0.2809817386
0.04413786997
0.05020955421
0.08905552391
0.1293005897
0.1168252302
0.5714237758
0.6893509554
0.5368457244
0.6217666663
0.2257150552
0.2624873767
0.07290214605
0.0538817816
0.1214638067
0.1571487545
0.1352284548
0.6039537291
0.6233928496
0.6897420839
0.5598902163
0.1366066115
0.1839653535
0.1264739312
0.09622140202
0.5759843527
0.5404136723
0.6143681723
0.4928818884
0.07564587562
0.1029151594
0.02389557471
0.1410363241
0.1355683792
0.5584723917
0.3877720923
0.5293228264
0.40628628
0.02801279117
0.04699006575
0.2595076285
0.1492185902
0.1140323529
0.08312715101
0.2283875056
0.03840020328
0.07425770457
0.04858778986
0.03161670399
0.05212295428
0.03347289063
0.04659331942
0.2677670403
0.3075503198
0.4375687115
0.2346169121
0.2102360626
0.2843821752
0.2393341103
0.05341351335
0.04392773604
0.07377430994
0.062644111
0.06965297615
0.04778421866
0.06297176034
0.07228545703
0.1875130961
0.2205005832
0.627355402
0.1679704448
0.1373250113
0.2077257856
0.1705515702
0.09214591397
0.07450906641
0.1053208084
0.097922128
0.1157982251
0.07025873096
0.09466740082
0.1007814253
0.1045064258
0.1346497906
0.5497929745
0.1060990298
0.07799953328
0.1356124199
0.1076595031
0.1346626339
0.1282855801
0.04796434446
0.07376342684
0.4901496386
0.01628955121
0.05066375143
0.02982435357
0.07684390676
0.05225998304
0.01419066918
0.1467569218
0.1425292994
0.02705327442
0.004674354688
0.02767548283
0.4001224856
0.08427645096
0.01742691247
0.009544144825
0.0294814544
0.0177632111
0.08255369604
0.330510077
0.2485007678
0.1240543381
0.1376894513
0.08295321873
0.04573421298
0.01658872893
0.009062676371
0.3965663613
0.3130830767
0.2519000233
0.009551386744
0.1562800695
0.1940037607
0.1656114973
0.009918148914
0.07948260444
0.06971318034
0.09636158703
0.1626571405
0.1503029951
0.2169367749
0.09297069577
0.1565877807
0.04288212332
0.01473719154
0.02570380644
0.02446839568
0.03176783649
0.0507921416
0.06765745793
0.04940219342
0.1383705304
0.1281274556
0.1365380937
0.1170571964
0.1268904488
0.1350213358
0.03886213223
0.01152470334
0.07068257258
0.0267750039
0.04643597489
0.03732810586
0.02169628315
0.03430622878
0.02548507062
0.01600817799
0.02445842235
0.02222006355
0.01089457309
0.01776497399
0.02316281934
0.05525362732
0.056092968
0.06364338571
0.06231211877
0.02426799895
0.0111456561
0.1131318312
0.02049540565
0.03854753662
0.01016371579
0.01732348927
0.1087128884
0.09087238141
0.2741026091
0.2584271615
0.09925493777
0.08456918336
0.01029264182
0.04196239546
0.1918279646
0.1771069948
0.2122929169
0.1978097168
0.04235106623
0.05415474104
0.04323577645
0.125558054
0.07136486472
0.06890258197
0.04045097475
0.07068551577
0.1430467351
0.04704115782
0.02696139895
0.01685651408
0.06057729037
0.02998415932
0.05229153861
0.02849832813
0.0731595938
0.03910383957
0.03872457505
0.2283029409
0.03014766135
0.227197598
0.2642566152
0.03442291198
0.03928080181
0.03062775714
0.03383890823
0.2578776421
0.05141756034
0.05105508623
0.06667943227
0.07032240606
0.06562429088
0.07690345329
0.07193151457
0.06702508343
0.05803714859
0.05808200324
0.05303528364
0.06395194547
0.05946859882
0.0596346267
0.152781927
0.1508064149
0.1903105632
0.1879907785
0.08739810003
0.009890212327
0.08578950828
0.09548181121
0.0934729845
0.1208993503
0.1190080742
0.04122499368
0.06050991392
0.1326049644
0.04602202524
0.02617034778
0.06426281131
0.2327564952
0.2175897409
0.2531761563
0.2378181956
0.06563108035
0.03524295395
0.04607792088
0.04506683722
0.06922090948
0.0683178467
0.006649710746
0.04717795875
0.1187827593
0.1043028685
0.1713674445
0.1601717236
0.02187480382
0.01125224314
0.0288209283
0.01871787181
0.028000834
0.01056981881
0.01725214449
0.01097337424
0.02802536066
0.07560773741
0.01225953987
0.02515348578
0.003581667345
0.02491609172
0.01849403281
0.6289504386
0.3717592451
0.3670001262
0.2457460601
0.007991025644
0.005306138185
0.194074004
0.4091425966
0.283837647
0.006333753722
0.01592363197
0.01157081177
0.1239224954
0.1230935091
0.05111459431
0.2029149245
0.1690014502
0.09983118403
0.01083298953
0.01877930952
0.01471843064
0.009410092775
0.01426480814
0.01007002694
0.04741005675
0.0211493765
0.01983409126
0.05498507461
0.06845326732
0.02110385436
0.0288313638
0.01337974595
0.0132480369
0.0561040589
0.1532798903
0.3576024426
0.3415958932
0.3792396138
0.3629828702
0.1570909353
0.2947056543
0.2790931178
0.09228728009
0.03086917849
0.09288819734
0.08722148201
0.01026698671
0.01635501514
0.1235058355
0.04479306789
0.02387571477
0.0213473982
0.03865330949
0.04527597105
0.04113948179
0.05147451119
0.04671207977
0.03977954918
0.05239149606
0.01401571245
0.01346227269
0.04575657203
0.2014186259
0.4010862468
0.3846378902
0.05878515118
0.06092754706
0.1430441924
0.03059670387
0.03337757509
0.07894353096
0.1075297078
0.1054139763
0.09738493518
0.0777513227
0.08476352591
0.07884248457
0.09446303751
0.08710550485
0.07907990973
0.1195493753
0.315438115
0.2998277644
0.3363266947
0.3206602711
0.1216024647
0.1016164307
0.03490021668
0.03562041794
0.02009367781
0.02087418182
0.08276425433
0.1295207849
0.05434055249
0.0583525038
0.03592921949
0.03660143591
0.1123632782
0.1338727315
0.06340466635
0.08386657168
0.006854835889
0.0238373443
0.04829543277
0.03644554034
0.07351666276
0.01947800018
0.01995393096
0.01905019079
0.06167649729
0.01071003493
0.004390284515
0.1202201776
0.1001445383
0.08526142107
0.08064830859
0.02725565117
0.02730598763
0.04055491859
0.08952170317
0.01720341345
0.01072116741
0.02581551625
0.03361117807
0.002890248265
0.02897505608
0.01875094831
0.01274481237
0.006544894456
0.0124459446
0.009701791506
0.009553972318
0.03694826042
0.02798890901
0.006606140816
0.03908267931
0.04107639261
0.01706027844
0.01151357164
0.008089960722
0.01192448046
0.01866538845
0.01172538519
0.01684124922
0.05783711874
0.01029462046
0.009414289762
0.01099256496
0.01473494361
0.0469327735
0.01086963041
0.0102196354
0.01494578908
0.01097806896
0.01059993276
0.02562703606
0.01706898529
0.03645385793
0.02874481741
0.01050268684
0.02255589157
0.02225700322
0.01930753552
0.03119256801
0.02366651863
0.0188983638
0.01702036011
0.01315122638
0.01823906054
0.01421390943
0.04996933345
0.0567620811
0.01949615298
0.01832768906
0.0196574118
0.02040259948
0.06689090209
0.01168931334
0.01207193416
0.01596442747
0.01193101133
0.01224524444
0.05756831279
0.0127212645
0.01921041418
0.01633030038
0.01444618604
0.0273101373
0.07092713116
0.06483143931
0.01324098339
0.05406365917
0.04665259921
0.06259886247
0.05659588659
0.01404458752
0.01297254224
0.04949078865
0.04056461324
0.1019804677
0.0949482878
0.0344020013
0.04452975034
0.1098633709
0.1039289343
0.0476802796
0.04655302957
0.07474709478
0.09627459547
0.1239536942
0.07152917927
0.08972257167
0.07602113542
0.06381573629
0.1620057726
0.145942421
0.1390678554
0.1666066279
0.0637330269
0.04356669626
0.05231081317
0.06557156812
0.03762161804
0.04250533578
0.03284912817
0.03123224744
0.04348535311
0.02283669559
0.02292643937
0.01825636452
0.03262256818
0.0328233182
0.02377815783
0.03290111341
0.0353909702
0.03786400066
0.03438759214
0.02818914575
0.1011275368
0.08702682533
0.1091943427
0.1041659425
0.02939028237
0.07698410737
0.07429159831
0.08303377404
0.07795926898
0.03619880347
0.1315737309
0.1252934317
0.1420238635
0.1338447156
0.03689935416
0.03190496151
0.1159728669
0.1109729376
0.1233182362
0.1177487859
0.03229622703
0.01493236429
0.01428632433
0.05211480459
0.04756453705
0.01486112854
0.01515420779
0.04184259671
0.04101415482
0.04414943897
0.0421274239
0.03951763941
0.03841205064
0.04074393437
0.03979899263
0.07026382327
0.06797302241
0.07346213555
0.07107390355
0.06180151197
0.04700519792
0.06700988947
0.06463573038
0.03423310175
0.02889284351
0.04449460409
0.03714068025
0.009504858881
0.01822175271
0.01700773251
0.02694339643
0.01895191799
0.03392904017
0.03454291816
0.1000907456
0.02003670018
0.01983656324
0.02068616944
0.02022392839
0.01920035123
0.08530599528
0.02144948747
0.03188641448
0.03875377622
0.05234797954
0.1274264549
0.03545694579
0.02280524248
0.03826825045
0.03525916169
0.02146390103
0.02092514021
0.02239333219
0.02169207826
0.1139696999
0.03683292496
0.03771462802
0.006752790175
0.03748807406
0.009433440015
0.01035079294
0.009428968016
0.03467607828
0.007012207464
0.0267824074
0.01005574319
0.01063102454
0.04762601298
0.04113291288
0.01888481359
0.01937100499
0.07250590116
0.06393579634
0.01801689286
0.01881546935
0.009745443634
0.02616343257
0.07783806243
0.06897520799
0.01159077743
0.01121145297
0.01639990449
0.01087780525
0.01148654062
0.02358782139
0.02885775602
0.007347305284
0.01315934476
0.01062602416
0.01192404972
0.0195415351
0.05959213296
0.1273879118
0.165702723
0.00963064172
0.009610576355
0.1924791245
0.2465862374
0.2053700232
0.006623884847
0.04955889584
0.01659333185
0.0245927823
0.1410101219
0.1468297916
0.164187297
0.005241953707
0.00841881415
0.006169625044
0.005080448146
0.006310926201
0.004976278803
0.06406232616
0.04051185425
0.02499392109
0.02733761471
0.02398340436
0.02754858417
0.2414717347
0.4453689596
0.4286962084
0.4676603104
0.4509296977
0.2466761394
0.06072619833
0.05257684312
0.01496001175
0.08876434807
0.1032627347
0.1380262965
0.1178136705
0.1117561934
0.04502718675
0.0291418131
0.03507791743
0.0340375093
0.4231500895
0.4065617453
0.2059661933
0.161094843
0.06725136752
0.07149034066
0.07490266887
0.08694499914
0.1784081269
0.05564952376
0.1269037619
0.1199172171
0.01093888777
0.0112943725
0.01848763812
0.01860259797
0.0188787911
0.03063261484
0.01240287144
0.009941113113
0.01023661695
0.03580044502
0.0726252893
0.06304260574
0.01739411944
0.02925968622
0.01818911142
0.01834668074
0.01777099321
0.01451640581
0.009900359156
0.01318107273
0.01186897666
0.009948057709
0.03070543968
0.03876198406
0.07885883889
0.04130050067
0.03985388851
0.03636340441
0.02682918675
0.06047789239
0.01975616784
0.02772501395
0.01045874266
0.007233748197
0.007312521194
0.01070031716
0.01031552354
0.02602801255
0.01643446233
0.01101754461
0.02191088482
0.02021711987
0.01865205239
0.02168674284
0.0263694054
0.02215881627
0.01216666201
0.01320826862
0.007701100719
0.009553639909
0.01260340806
0.07942578649
0.07296806341
0.02981529657
0.009833925222
0.0182396709
0.01635211881
0.01118599065
0.01808552746
0.01535802155
0.05158639695
0.03882143716
0.04441565952
0.07262332354
0.1063601883
0.104350097
0.04225123857
0.07148249898
0.0670652131
0.1029164444
0.1002003582
0.06865968928
0.03906118324
0.04736654428
0.03980116227
0.03026014702
0.03154958581
0.02560917128
0.0510849906
0.04928437412
0.05869351811
0.02240033304
0.03288018357
0.03116690921
0.05286325232
0.05242863599
0.02987205652
0.02731630577
0.02687818424
0.03009848509
0.02935486064
0.03505530518
0.06036665929
0.05959208555
0.065063291
0.06406861592
0.0383972065
0.03099902739
0.05434653347
0.05373258638
0.05879915909
0.05802544921
0.03330399577
0.06430558706
0.06645066058
0.1589583023
0.1448842097
0.06156830401
0.06362942269
0.09498962106
0.09881341885
0.1976753447
0.02522335221
0.02508574167
0.02662714532
0.02640388666
0.01910736183
0.02479975214
0.02470358397
0.1808058023
0.08949777416
0.09356864071
0.01024625536
0.01035932646
0.01569480585
0.01491073299
0.009945161071
0.01027830809
0.009925272136
0.08051369052
0.03470443707
0.04256647511
0.1360183374
0.129235776
0.05889557985
0.06873304905
0.1442360268
0.1380520855
0.02999838441
0.03006775778
0.04644729306
0.04472076839
0.02960934988
0.02957429519
0.009817884311
0.02080780987
0.03281706563
0.03267880259
0.008115907613
0.01335048215
0.02599029735
0.01195632837
0.01186100757
0.01732674779
0.01756817216
0.02844153979
0.0107772866
0.007639789877
0.01064969283
0.01073267894
0.0265513901
0.01685530977
0.01742899864
0.01677222011
0.0463627997
0.03905329861
0.009795077316
0.009863621547
0.01123993552
0.01190833903
0.02052874248
0.006933746712
0.004618062284
0.008516812525
0.01377443007
0.009514870074
0.01050740861
0.00946189175
0.009761173943
0.01217852504
0.01114918591
0.007386382259
0.005506507563
0.01809465569
0.01867506578
0.01742225251
0.01765337856
0.0205598751
0.0309625526
0.0313968764
0.0303802322
0.03078024772
0.02036591299
0.01314066241
0.02349275927
0.02343985886
0.02425920528
0.02364642975
0.01287725959
0.02274874692
0.03454807227
0.03817953175
0.03175157444
0.03273122025
0.02206521855
0.01394126278
0.0234519232
0.02342460127
0.02339606688
0.02343450441
0.0137044135
0.01673057533
0.01713589218
0.0161611245
0.01690555436
0.03505661246
0.05432649821
0.05383820857
0.02033898345
0.03363061744
0.03338849807
0.03490190038
0.03397389071
0.0205310531
0.01014650506
0.009922315921
0.01032794374
0.01012598627
0.01889515032
0.01871343244
0.01929331596
0.01908896705
0.01473336877
0.03258415222
0.01945309101
0.02033829118
0.01965444358
0.03292501372
0.03270953911
0.03324230438
0.03306428396
0.01978032112
0.02015400761
0.01958258165
0.02946535918
0.02108810693
0.01512322836
0.006799961471
0.009931949815
0.01127037425
0.006677109543
0.0391983016
0.02691445894
0.00306389923
0.02725207158
0.04176524211
0.04137200839
0.01716069559
0.01064041989
0.007776884239
0.004357769359
0.01129807907
0.01134856
0.01798189228
0.0181263648
0.0291767905
0.0181834752
0.009377097116
0.008564929056
0.01544682499
0.00410105343
0.009601318284
0.007400019913
0.00532205803
0.006545365263
0.009642351604
0.008455457462
0.009683026382
0.01123171517
0.0102674844
0.04105072428
0.03086118722
0.009040092616
0.01114387095
0.01256277592
0.01905849651
0.02151740593
0.01345529726
0.01663796092
0.01495828661
0.009652574118
0.006644281217
0.009729379447
0.01031060703
0.006963482016
0.01027141203
0.01026691012
0.01300317692
0.0107474229
0.01076874032
0.01043486642
0.01021303596
0.0118635651
0.01135124503
0.01083867324
0.01054190636
0.01088035098
0.01336379539
0.01233545468
0.02817630816
0.02217591466
0.02487191024
0.0277092986
0.03115010843
0.0273251136
0.0253651385
0.02719119227
0.01734680941
0.0274440853
0.02912307643
0.01998251218
0.02757203431
0.01841725671
0.01908226775
0.02978845176
0.03019467218
0.02912213705
0.02965149398
0.01884621809
0.01988017518
0.0348641986
0.03432654395
0.0118658386
0.01196575473
0.0137055743
0.0106861979
0.01105486864
0.0114856854
0.01215758531
0.0116857983
0.01536738261
0.02900185127
0.02593956635
0.03345040481
0.03178069124
0.01797753923
0.00946345661
0.01085292032
0.01940708795
0.007231647574
0.009451034523
0.009451281746
0.01378775237
0.009543961892
0.00979293873
0.02401105343
0.02131295181
0.01140755477
0.04933018177
0.0451550845
0.09066600049
0.07991072693
0.04444245551
0.06830795137
0.09893707203
0.09421799055
0.03770020802
0.03436943667
0.03387299101
0.02394627376
0.03035416483
0.04947994462
0.0493716043
0.04190846852
0.03275608267
0.04457758004
0.04271646789
0.04222831221
0.04361625108
0.03096338091
0.02173404706
0.02317819363
0.03471260616
0.02479185585
0.02367605784
0.02625792766
0.02504250173
0.03458932252
0.02433984187
0.02496416399
0.02009694646
0.02594793175
0.04777758471
0.04800381341
0.02973876177
0.02934162873
0.05124051565
0.05123166204
0.02805219755
0.0276301162
0.02887587873
0.02842267251
0.0618157247
0.0610581794
0.03551615228
0.03763989197
0.06330341355
0.06256279342
0.05581471427
0.05514736616
0.03150798036
0.03274282938
0.05723637039
0.05652292109
0.01463045133
0.02345607267
0.0234540968
0.02347457934
0.02348280931
0.01454100635
0.01534327422
0.02169621745
0.01890345042
0.0233105973
0.02287045924
0.0152432381
0.04155224428
0.02391925447
0.0241909775
0.02350747005
0.02370756717
0.0412897779
0.04298073102
0.02511908597
0.02558220959
0.02445113772
0.02476139161
0.04247058012
0.03911228801
0.02230391636
0.02254406008
0.02194234653
0.02217191657
0.03887358049
0.04044548224
0.02312353866
0.02330877512
0.02270362766
0.02293915865
0.04016081057
0.02567267672
0.02549225038
0.06950856835
0.04521725663
0.04556954186
0.04444277106
0.04474485406
0.06866320289
0.02613217235
0.02592607065
0.02358917937
0.02484625213
0.05954523002
0.04045488178
0.04012551851
0.02645720976
0.02784663461
0.05265522889
0.06647730108
0.04367101286
0.04388294212
0.0428861579
0.04282726728
0.06505688094
0.02436381797
0.02441939065
0.01018824322
0.0105705229
0.009798408382
0.01403113867
0.01199990368
0.01781183838
0.01095686584
0.01080844954
0.01104211283
0.0110217426
0.01750283138
0.02409427704
0.01266348339
0.01487625948
0.011083002
0.0106621954
0.02084930546
0.03387007232
0.05165012905
0.05133009489
0.05310685382
0.05273446963
0.03444342439
0.01999625555
0.01976336723
0.02056652997
0.02029185019
0.02033681284
0.01595998506
0.0225275512
0.04185203735
0.0371711601
0.04911864251
0.04730523085
0.03194951992
0.02466915865
0.01732081484
0.02216217116
0.02349543426
0.0375644293
0.02160291559
0.02188483232
0.02097451833
0.02166667336
0.03763009699
0.0213000638
0.02106952732
0.02213377885
0.02188437454
0.009698229529
0.01355368165
0.01280748634
0.01823752988
0.01512778643
0.009574242481
0.009415214761
0.009702616148
0.01187463322
0.01064034602
0.006904564924
0.0102509131
0.01123046734
0.01101018218
0.0137656037
0.01221133117
0.01003481531
0.01829556851
0.01825825914
0.0185247341
0.01846994796
0.02808156632
0.02799722054
0.04277315975
0.01753081654
0.01851861875
0.01803764885
0.018100952
0.01909645052
0.03215068851
0.03181074709
0.03256145223
0.03229075328
0.01917817518
0.01854626854
0.03112669918
0.02939627474
0.03167788889
0.03113701216
0.01853844875
0.01005252716
0.03976951586
0.03913859673
0.02602531369
0.01159955006
0.01008392353
0.01026062344
0.007466581305
0.01040868091
0.01121803969
0.01697219455
0.01110545436
0.01176225681
0.01146111611
0.02856828812
0.01767358846
0.01787274327
0.0104789465
0.01073673277
0.01067518071
0.01090786892
0.01110029926
0.007709250455
0.007658826777
0.01141285717
0.01068431774
0.01099827879
0.0143422712
0.01764987814
0.02663837471
1.154755502
1.154984181
1.15542109
1.155087496
1.155519676
1.155684197
1.155701541
1.156419124
1.156133439
1.156695223
1.157723075
1.156767204
1.153845141
1.048200579
1.15743361
1.047538332
0.9771663386
1.15784191
0.9753437164
0.99735258
1.157889337
1.009556007
1.092266733
1.15739584
1.121340985
1.15757005
1.156771615
1.15726469
1.15644819
1.156185912
1.154190945
1.154689621
1.154873813
1.154921653
1.155897301
1.155530601
1.156369284
1.101518091
1.156642422
1.028061193
0.8496483553