/*--------------------------------*- C++ -*----------------------------------*\
| =========                 |                                                 |
| \\      /  F ield         | OpenFOAM: The Open Source CFD Toolbox           |
|  \\    /   O peration     | Version:  v1912                                 |
|   \\  /    A nd           | Website:  www.openfoam.com                      |
|    \\/     M anipulation  |                                                 |
\*---------------------------------------------------------------------------*/
FoamFile
{
    version     2.0;
    format      ascii;
    class       volScalarField;
    location    "3";
    object      omega;
}
// * * * * * * * * * * * * * * * * * * * * * * * * * * * * * * * * * * * * * //

dimensions      [0 0 -1 0 0 0 0];


internalField   nonuniform List<scalar> 
12556
(
31.93054414
31.93137083
31.93227227
31.93311582
31.96660312
31.96708406
31.96740094
31.96799297
31.9691811
31.97141408
31.9750796
31.97997927
31.98412973
31.98618228
31.98500269
31.98110521
31.97655347
31.97220819
31.97005492
31.96816135
31.93480692
31.93350892
31.93238994
31.93135572
31.79345917
31.79588508
31.7985231
31.80095066
31.83507684
31.83673126
31.8384327
31.85693646
31.86246697
31.87291088
31.89009665
31.91295287
31.9345865
31.9454086
31.94077078
31.92301633
31.90117672
31.88227116
31.85343336
31.84382601
31.80640126
31.80270948
31.79944063
31.79639711
31.65780484
31.66219927
31.66681722
31.67067651
31.70528649
31.7083002
31.71214203
31.73405395
31.74769305
31.77288428
31.81531206
31.86996605
31.9128381
31.93421633
31.92289103
31.88330505
31.83638252
31.79382773
31.74616731
31.72550313
31.68219273
31.67527903
31.66956012
31.66460225
31.5239821
31.52975047
31.53590297
31.54111336
31.57657327
31.58163501
31.5896625
31.61884839
31.64776551
31.70677368
31.80259374
31.92134555
32.00240767
32.02970863
31.98410108
31.90738346
31.81814424
31.73522142
31.65740316
31.61822154
31.56317966
31.55158859
31.54288985
31.53572196
31.39192331
31.39954786
31.40743603
31.41406062
31.45020006
31.45793055
31.47190802
31.51275092
31.57577771
31.70351129
31.92750725
32.22500553
32.45934054
32.44965503
32.26718136
32.06694755
31.88586544
31.72782845
31.59772766
31.5263717
31.45119955
31.43197779
31.41898556
31.40938363
31.26151075
31.27048368
31.2797875
31.28793703
31.32632464
31.33866681
31.36302992
31.42303723
31.54115278
31.81070668
32.38949902
33.4316863
34.25979186
33.96997241
33.11821038
32.51570139
32.11426639
31.8005473
31.57266499
31.45332886
31.34740194
31.31523101
31.29661781
31.28400389
31.133186
31.14378434
31.15498069
31.16512794
31.20506473
31.22368272
31.26357926
31.3530419
31.55127603
32.09551998
33.54523275
38.19269824
44.28962798
41.22304559
35.44103396
33.51377573
32.59114948
31.99441941
31.58849975
31.40108726
31.25120723
31.20194392
31.17550924
31.15920749
31.00676397
31.0187706
31.03159931
31.0439227
31.08747812
31.11420254
31.17374249
31.29816899
31.60245322
32.51919108
35.417231
49.93457191
65.51844536
40.90907177
35.32466906
33.38783177
32.33563189
31.65474836
31.36635239
31.16269885
31.09143816
31.05508511
31.03450592
30.88310121
30.89696394
30.91231553
30.92789095
30.97456257
31.01117474
31.09350814
31.25487829
31.68055781
32.95740532
36.93021917
58.70140279
119.7467894
49.13134683
37.86788471
34.45324094
32.79154736
31.76549772
31.34672813
31.08144811
30.98551182
30.93706027
30.91150432
30.76222685
30.77766377
30.79519389
30.8140694
30.86670689
30.91445445
31.02133191
31.218871
31.76348649
33.31812148
37.86559962
65.83281542
149.6182022
56.44114167
40.55207149
35.65127649
33.30461653
31.89950142
31.3388844
31.00708815
30.88460796
30.82304555
30.79206093
30.64574896
30.66323858
30.68378485
30.70718647
30.76412013
30.8237933
30.95558057
31.19019177
31.85106813
33.63419326
38.70132069
74.36458664
150.4332633
60.8471263
42.89603905
36.78004499
33.79940285
32.02994607
31.33784091
30.9390477
30.79142195
30.7161208
30.67918414
30.53237255
30.55149285
30.57457401
30.60276041
30.66591157
30.73850804
30.89446874
31.1687322
31.94095403
33.94045851
39.71244906
85.42134299
139.7964449
62.76485818
44.58908713
37.67310125
34.1933271
32.13449813
31.33581813
30.87646687
30.70465437
30.616748
30.57392734
30.42427758
30.4455796
30.47209951
30.50567248
30.57137098
30.65764185
30.83678462
31.15207641
32.0329269
34.25759626
41.07538046
95.98359108
615.3157905
120.9753472
63.20452399
45.59828438
38.31456123
34.45477181
32.19849161
31.32505983
30.81742122
30.62537839
30.52549942
30.47686672
30.31867297
30.34192892
30.37176602
30.4102746
30.48312193
30.58747862
30.7946471
31.15049249
32.16133346
34.69875576
43.31582397
146.6709342
386.8023462
112.8637386
63.03455286
46.27196448
38.62149237
34.56057855
32.22166262
31.30154476
30.75647204
30.54953988
30.43954388
30.38604539
30.217449
30.24271598
30.27573108
30.31852461
30.39568004
30.51370181
30.73941221
31.12265256
32.1765924
34.87776572
45.7394204
511.395768
276.5653912
105.8771
62.64152008
46.44956762
38.70063896
34.54300061
32.20302739
31.26425015
30.69441422
30.47648423
30.35734099
30.29918655
30.1168998
30.14405547
30.18021201
30.22781564
30.31034378
30.44026844
30.68346362
31.08248945
32.13465085
34.83951988
47.01466784
675.58101
251.3318539
104.6182367
63.14498305
46.57715031
38.5552798
34.43625279
32.1476643
31.21128112
30.62551848
30.39989723
30.27482752
30.21306122
30.01961875
30.04870486
30.0877164
30.13914277
30.2258362
30.36596293
30.62565025
31.0434623
32.0731836
34.67614196
46.18406403
460.0640158
268.4245822
107.9820372
64.16985375
46.55247124
38.28204839
34.29176519
32.06671384
31.14489326
30.55185129
30.32197065
30.19143246
30.12650515
29.92078993
29.9515791
29.99340291
30.04929008
30.14125636
30.28996628
30.56435077
31.01107772
32.04899684
34.56539206
45.24598592
304.1425117
298.9201582
112.2233468
64.4934466
46.05827943
37.93720321
34.12174719
31.96430046
31.06210702
30.46795094
30.23590132
30.10292276
30.03557495
29.82447311
29.85688658
29.90117956
29.96033541
30.05579509
30.21181549
30.49939087
30.97362319
32.07521084
34.72163805
46.08015308
259.8087418
299.3061022
111.5642986
63.13570458
45.29904876
37.60361015
33.93942773
31.84916497
30.96814354
30.37776811
30.14568057
30.01108809
29.94238431
29.72469183
29.75836705
29.80507272
29.8684206
29.96900268
30.13138191
30.43109148
30.93136606
32.09934122
35.0310898
49.31246532
308.06935
263.9931848
106.4441958
61.55829869
44.63435134
37.28952487
33.75400264
31.72591836
30.86542645
30.27917075
30.04737257
29.91195853
29.84255553
29.62769591
29.66242673
29.71103465
29.77703797
29.88041693
30.04868952
30.35996699
30.88548225
32.12258193
35.38822812
53.71404538
344.9885811
235.850588
102.0236199
60.32075691
44.06180523
36.99729405
33.57061688
31.59765758
30.75597807
30.17634738
29.94622068
29.81067454
29.74098067
29.5256751
29.56105101
29.61149794
29.68134063
29.78991978
29.96380467
30.286518
30.83714241
32.14823146
35.81503188
58.54300822
362.9822395
214.7611108
98.22747645
59.2881904
43.58412595
36.72854045
33.39200101
31.46662995
30.6414651
30.06632482
29.83720218
29.70185084
29.6323659
29.42786437
29.46366342
29.51530901
29.58691597
29.69735202
29.87685419
30.21118821
30.78740098
32.18010701
36.36853412
63.04856394
369.0463455
198.1251561
94.91609761
58.37903923
43.19116498
36.4856704
33.22006559
31.33459085
30.52328745
29.95492765
29.7280967
29.5933772
29.52430859
29.32336335
29.35925905
29.41219133
29.48726701
29.60304523
29.78809921
30.13450258
30.73762607
32.22456449
37.11898872
67.08853595
366.6458264
184.594457
91.99080964
57.55690565
42.85991188
36.26904661
33.05628025
31.20296439
30.40272674
29.83731147
29.61129031
29.47716942
29.40880503
29.22559614
29.26144016
29.31498459
29.39089518
29.50714377
29.69796778
30.0571689
30.68947962
32.29103862
38.05235358
70.73336471
356.645565
173.3414858
89.37551331
56.80427644
42.5693387
36.07565584
32.90126732
31.07277163
30.28079115
29.7215368
29.49794553
29.36474994
29.29712594
29.11871267
29.15430663
29.20879155
29.28811328
29.4103131
29.60697121
29.97997827
30.64472222
32.39099355
39.0781824
74.02467273
342.39688
163.7654759
87.01499871
56.11011782
42.30580331
35.90082522
32.75465105
30.94456141
30.15832957
29.59934783
29.37584869
29.24327456
29.17651985
29.02237142
29.05765154
29.11238782
29.1917676
29.31267515
29.5156408
29.90372307
30.60525221
32.53329963
40.12249737
77.00011742
326.2485364
155.508486
84.8727843
55.46490464
42.06102902
35.74008365
32.61547816
30.81854611
30.03585472
29.48269035
29.2616618
29.13004121
29.06408724
28.91300729
28.94787575
29.00340636
29.08651706
29.21501707
29.42445351
29.82913685
30.57322514
32.7197173
41.14912057
79.67771506
309.4952942
148.3005589
82.91312054
54.8593913
41.82956213
35.58979653
32.48260879
30.69471324
29.91385432
29.35746367
29.13555276
29.00440844
28.93930442
28.81977926
28.85423905
28.90986155
28.99240063
29.11716752
29.33382993
29.75690627
30.55071412
32.9454269
42.14238483
82.05652593
294.0689382
141.8728562
81.10019224
54.28512912
41.60757969
35.4472449
32.35498942
30.57297071
29.79246058
29.24282308
29.02352937
28.89324587
28.82886628
28.70726139
28.74126993
28.79765529
28.88448555
29.02006463
29.24414374
29.68771219
30.53967337
33.20319555
43.10089234
84.17707349
279.4861607
136.0683402
79.40562274
53.73536139
41.39234427
35.31040441
32.23170013
30.45319212
29.67203658
29.11446141
28.89322177
28.76324309
28.69962217
28.61923854
28.65285218
28.7093317
28.79515887
28.92312393
29.15573487
29.62228007
30.54172974
33.48668877
44.03320853
86.12054823
265.5718999
130.7905575
77.80975263
53.20538067
41.18192227
35.17775626
32.11197092
30.33526543
29.55246709
29.00492638
28.78652021
28.65722259
28.59419223
28.50208302
28.53527301
28.59251769
28.68312591
28.82765996
29.06894273
29.5613522
30.55774811
33.79052475
44.94490051
87.91777148
252.2901349
125.9597437
76.29908244
52.69197899
40.97493842
35.04815523
31.99516966
30.21910627
29.43421088
28.87145512
28.65024465
28.52114607
28.45877025
28.42204966
28.45492436
28.51240091
28.60211924
28.73253993
28.98412
29.5056315
30.58792033
34.10972665
45.83363461
89.56020419
239.5393606
121.5111875
74.8618928
52.19231777
40.77025274
34.9206803
31.88073096
30.10470369
29.31696267
28.77148611
28.55294685
28.42426
28.36232275
28.29768454
28.33018872
28.38843503
28.48261503
28.63997665
28.90177574
29.45581897
30.63187301
34.44009512
46.69608757
91.05709844
227.2768993
117.394254
73.48749988
51.70358165
40.56680977
34.79457147
31.76821269
29.99227005
29.2017064
28.62802936
28.40693422
28.27845149
28.217082
28.22925681
28.26158656
28.3202703
28.41531838
28.54838038
28.82269966
29.41274007
30.68908957
34.77852343
47.53117798
92.41454128
215.5831736
113.575316
72.16918685
51.22356523
40.36366367
34.66916775
31.6571997
29.88257071
29.08847906
28.54522201
28.32473643
28.19635228
28.13525495
28.07123536
28.10325837
28.16313845
28.26334045
28.46236997
28.74842801
29.37770258
30.75834196
35.12047718
48.3323779
93.63470322
204.5426821
110.0445015
70.91309352
50.75471005
40.16130747
34.54444381
31.54762723
29.77772562
28.98068523
28.36059313
28.13760915
28.00930368
27.94876294
58.11041353
139.6273242
73.14041032
64.79316427
178.5768369
144.8966634
73.23313092
177.626615
180.1592226
84.06979567
161.4832385
175.7113604
94.87518168
751.7801368
643.0738967
145.7879197
159.1107938
125.2952114
476.7538501
737.0536523
403.2103826
141.9858791
144.2522794
48.08109468
43.45908285
67.4533697
41.11401885
381.1055515
140.6329004
113.6157604
52.97394413
44.01728439
37.66394216
55.67250037
51.81885198
1247.467636
875.3150865
147.8986993
63.82129586
56.01400909
38.51049015
61.98296834
56.38513554
68.97561525
201.6906773
176.8372204
745.687767
999.0051742
151.3594729
69.90189201
65.83828998
39.50019917
69.40028533
62.80953423
78.10928407
309.0059638
239.3233998
439.2814333
570.5210722
40.78185295
79.64148743
70.39186478
87.7382089
499.2616263
389.1111814
1657.924855
289.0389232
336.196473
42.92085354
101.4808341
81.23117941
104.8633738
1151.754143
738.0047917
156.2561462
365.2968019
469.557423
134.9391795
164.4196759
87.34866279
130.1042198
850.7171172
400.1151991
110.2265906
327.5782951
606.7686554
173.7609748
153.4745643
61.56004798
203.7135064
221.685855
169.9833642
200.2735469
1008.904192
1249.867038
164.0850835
888.9111881
791.0235406
626.8506425
885.2148928
161.8016955
235.723894
205.7778368
70.01867052
268.3426879
316.0416119
223.9953125
264.8875595
594.4154405
730.6378077
180.9211522
566.677651
453.6758485
783.7999311
585.3857414
181.4308564
384.3935938
312.6499518
79.45971867
388.4711847
498.2316513
319.2002718
384.0449392
346.0236051
424.3239141
726.0646131
509.7663195
88.16054349
2466.90476
706.7130728
1103.80314
503.9561446
688.8902995
2873.94884
266.3790265
284.2151742
1463.618857
8511.529552
1163.563798
106.3656635
544.5818192
1830.590217
7659.037373
1113.853527
1796.220778
559.2094065
36.632515
51.34207191
45.13381897
54.58747911
107.5593892
76.96059539
2084.716332
366.8782965
60.92155306
151.0146646
130.7951803
4746.632213
141.5120312
71.86646903
70.72537806
5154.753246
630.1628219
699.082973
489.7178233
236.9159209
257.4995064
127.1904543
110.3184352
55.65704671
1247.469109
184.2282666
436.7744891
119.0557337
291.3646025
102.0863158
714.5975584
906.349869
167.6211983
351.1643271
299.6152092
439.6037941
360.6546345
169.9372448
1029.966431
3962.97673
651.8042194
66.11043876
54.56286234
80.73121583
124.207943
64.05382259
67.71598742
2785.876421
269.7881254
1988.972195
284.6693719
1474.503312
243.7453648
1015.828039
1001.993689
849.0157378
866.6062999
1695.080826
3913.150349
488.9701533
2023.77258
1125.621173
4419.388814
2397.277025
508.1178637
429.2337752
156.2184953
164.4095366
530.2208893
600.9999195
4553.718434
804.1458273
212.2812787
227.1908145
194.7024673
206.7341533
800.4495261
1057.531959
1246.726252
145.9463485
758.8857331
584.2512136
1242.849694
761.9755807
149.4453309
108.3494543
306.8242975
150.5936418
505.5133442
333.6481089
115.2818175
461.0668705
745.0566456
602.4136359
572.418654
206.8914474
1448.062049
207.5646516
183.1226954
1359.416462
1267.247372
1437.299342
1371.202579
187.275729
1059.558388
1068.898505
830.7021156
297.8949419
290.0096099
300.3903639
299.2710079
825.7441525
746.2763263
264.6740775
243.1097723
286.1915095
271.0415901
761.0670856
290.0468723
293.1297228
241.4112094
243.9359634
628.2008942
4593.701703
639.3346639
421.9275887
429.2756134
350.5390545
355.0026182
1064.830297
787.5511821
386.2913611
958.2430714
1573.873196
568.4309608
179.9496313
190.623431
167.3629237
176.6538769
558.7198487
1126.097111
758.6283698
772.9239545
545.6831803
550.9006528
5391.338476
875.3446962
457.4420475
509.3332992
233.7147747
247.2286079
1457.286769
2947.66261
1222.83653
2124.098392
1158.139466
6129.277647
2400.843874
5216.227707
1154.28614
622.072557
3555.882128
1542.93626
2504.722711
1601.55811
2173.082728
45.13850819
113.2895448
104.895621
167.2195911
4171.459861
7722.6936
288.8244093
129.9020736
139.1139425
872.1881092
2539.103191
3694.303789
404.6228438
441.3056304
823.5271475
218.3011693
230.2890432
477.113461
122.8508255
89.17910376
169.7102461
300.2702311
111.3098578
128.0743909
1172.576643
2743.56817
2879.916067
938.4214007
791.171199
2168.539794
1603.557284
3616.87427
3596.626326
958.050566
280.7085096
123.7902928
128.8930059
117.5110168
122.1661696
274.7379925
146.6843213
153.799364
424.0896701
1056.51949
403.055245
424.4948704
6391.514019
3026.495666
437.0233538
738.2308371
2469.055952
2728.730847
431.0213947
197.095326
166.8550709
234.4100363
207.4103401
449.5655979
1032.793274
3536.479668
3618.855395
1194.582916
222.0634022
111.7596832
116.0415554
680.7222384
664.7172684
305.8660918
1519.431208
1403.124748
691.8116132
515.2376294
273.4892291
282.8085339
708.9615118
295.8271643
299.8884687
286.0579734
293.549237
697.2549401
344.2029175
138.2287712
144.5004035
130.6676835
136.2542605
339.4545676
401.7818479
1024.95277
1012.773494
1668.375238
1615.90073
475.1373183
331.2964032
722.2283752
683.4415735
1007.437378
998.1993989
371.4140488
374.6185362
759.8776496
614.9976718
5638.994507
1659.406084
733.0224403
924.3199287
521.252563
1705.852921
1676.578094
1718.055495
598.4671736
4436.643109
8869.819091
318.9342887
375.1678431
432.6787694
452.53757
1177.092046
1404.483906
911.7813943
505.2666813
1854.844451
7719.654576
1318.537348
1156.86762
16121.06011
1127.301664
1705.364632
1250.252324
1493.847026
1124.285042
4698.51138
4775.774927
1099.023011
1427.361489
5367.815396
1322.460645
1255.967711
281.9246008
1021.400566
414.7193818
1022.566772
306.5142846
3621.489287
2407.210616
803.5726945
4358.205674
5121.445742
4147.116237
2755.993673
876.3493659
4323.233302
5495.285006
2717.836488
4085.238414
5843.270062
1545.874843
2349.757104
1092.804503
1378.425322
5244.764307
2849.123772
851.9852645
536.5197244
1367.052607
934.7612353
486.3522301
312.7399154
839.6783983
3039.49826
3860.611137
1116.613431
953.6863039
2914.663
3045.209396
2367.109875
2249.991563
808.7791326
3985.75002
3896.843045
2835.330934
3882.833702
3855.49675
934.4753873
3735.951985
2433.786894
2525.658122
2871.865616
1529.278072
724.1315352
780.3312886
3233.078332
906.1221
1022.398637
803.2723677
872.7352832
3015.597786
3174.452701
861.7841487
1014.445098
372.8305382
395.6216504
956.7727828
768.5998149
350.7238073
367.0888918
1175.610085
1193.388769
737.613252
250.1837924
273.8040845
223.7669788
243.4894636
728.9315005
822.085585
315.2645959
348.7363697
282.1064841
306.6744337
827.1288093
440.3962323
200.6143614
218.1198558
650.5951556
684.5290942
1783.635438
1865.149503
700.4599611
2611.90311
2630.785044
3316.028196
1816.587986
1516.411971
2544.434549
1798.059915
487.7402539
1287.173876
1704.859438
1502.857702
468.1339044
534.7203901
440.5018224
456.5735657
1459.496544
589.8603129
603.6904515
557.0458622
584.9535567
1325.847253
381.3067749
396.4502751
357.4954337
376.028533
1312.272943
1409.681691
420.9003765
435.0814102
401.4259285
416.0345239
1403.336071
3394.57432
3483.346607
1039.971758
1149.443383
3501.166228
3367.308858
946.1506088
953.7431651
915.281098
943.6894599
970.8037254
986.7386937
956.4062103
967.3897157
625.4529531
638.6650337
608.0353163
620.9015911
685.1484061
868.6065167
644.9243045
660.2965944
1327.705016
1545.853337
1063.430904
1237.009145
4838.907587
2428.528691
2644.631344
1648.424942
2325.624708
1041.730763
1032.115256
406.6001612
1694.360307
1700.394516
1655.707907
1683.004214
1751.389768
463.2906975
1576.386723
1100.590331
962.30578
744.6603814
335.737952
1042.271964
1543.186768
987.9834186
1052.927019
1613.150581
1641.514749
1565.484927
1601.185284
367.3051743
995.1983827
982.6520827
5192.659973
1134.418674
5035.789649
4290.372208
5016.051234
1212.850142
5874.257556
1474.498307
5563.382748
4708.817683
740.9228954
831.9931202
1744.99716
1711.745843
526.6528848
580.9642775
1818.315849
1748.456827
5340.74603
1224.053689
466.4864475
516.4398354
5626.34968
6428.662688
1941.376301
7003.109518
4933.642301
1608.115817
1129.537552
6114.143486
3310.861225
6765.59074
3784.849396
1642.049156
61.20512035
41.51498996
36.24294654
5226.595864
5202.023462
132.3318098
71.67235197
71.95331211
5450.41194
840.6369626
2417.63752
1607.286999
292.2524203
246.4995789
153.2515424
258.3846304
188.9725144
367.6650454
1309.583832
256.2380324
279.2008835
51.47125482
59.78855983
109.2799437
333.6221064
618.9744224
895.8976949
190.2395918
101.4728747
105.1610342
96.84748257
100.2874537
186.7388404
741.578904
823.1793514
2697.419544
587.5400402
518.102647
314.0502563
331.1658044
345.8603959
762.715929
971.6773804
1237.518247
461.5171242
106.4337688
110.3962231
217.9730298
277.7847644
623.9072545
595.3276924
572.0851783
503.0890719
254.9546717
640.1137077
311.3698159
326.3538209
4105.914609
3819.392207
2154.613794
1734.911872
1711.017633
1078.704341
3386.672952
5344.979293
4725.032113
1112.929303
655.4156658
722.7643666
1833.647017
1120.23709
1772.471496
1758.323821
1796.034205
2207.708995
4574.553524
3111.607735
3539.796951
5083.605308
1315.590571
1064.607805
637.7546856
1278.89846
156.0382703
124.9200518
211.0571669
776.9809201
2043.705477
1452.108995
5659.334292
6014.633574
6125.863737
5000.684454
5821.029694
86.19440776
106.9627766
245.5288332
2286.65661
1507.157964
1170.509133
2958.350074
2342.204393
1854.560422
3478.020336
3157.484327
5083.232682
4791.112276
3363.81708
658.6024987
707.5551713
1409.610637
4577.364444
2316.568259
2594.304183
3917.383032
2209.50351
2623.812287
1105.018094
1486.740753
1226.945052
750.5072512
503.0501466
511.2550863
1202.205615
723.2067468
765.6760428
516.8056167
528.8264838
778.7462117
176.1561469
195.6022898
413.2304945
527.0999714
956.5549121
678.0443816
1148.609034
1197.224478
746.8321103
1824.369027
1303.591769
1359.348771
875.0395283
878.1233639
1453.982314
1479.152186
1494.952095
1394.106264
1418.40475
1346.154351
814.8076725
820.3155266
784.2713189
791.6053449
1284.203308
1428.987653
861.6244477
866.6741646
826.1810227
832.0681479
1382.238749
642.2550569
628.8894429
280.8576529
302.7486303
660.3198913
646.5671589
469.7723647
456.3740726
233.7364672
1540.371963
1543.305152
1501.570203
1507.506421
1923.49276
1552.540231
1553.896209
252.0879035
491.2018759
475.1512119
4456.167325
4402.745638
2721.870645
2885.423035
4562.987563
4448.578423
4642.240365
679.0103408
1354.510537
1134.967275
293.9826576
306.6912355
610.2001502
539.1968875
280.160049
290.4153508
1106.395865
1106.065833
755.0091993
775.7682458
1115.472505
1119.901491
5340.615449
1537.484081
996.8771545
983.4119231
12543.53041
2423.471993
1451.659961
4368.573525
3480.373266
1848.849389
1825.154929
1141.625271
5907.39886
6435.192111
6139.237783
4769.285109
1217.329674
1898.35398
1837.09244
2442.220228
886.6855155
1025.626589
5129.600686
5043.434799
3827.890223
3530.352878
1950.191747
1064.094682
1022.756047
1231.055536
2969.15275
5128.490303
4326.339504
5182.329879
4948.567749
3418.687721
170.7791538
232.8530727
694.0853275
2967.78948
2892.424454
3054.461691
3028.665897
2809.465204
1842.25141
1823.620679
1862.762671
1845.86529
2819.368014
3661.906689
2067.393968
2081.184651
1988.55746
2045.423123
3726.250644
2579.305074
1670.369182
1510.946635
1809.580738
1760.503226
2649.726472
3526.865922
2110.346456
2123.049982
2094.974617
2101.42407
3570.448388
3142.724595
3078.618614
3215.154589
3084.03357
1022.764245
699.27215
703.3367584
1652.278105
1037.426628
1042.120968
1008.102624
1030.254153
1639.937288
5279.728814
5511.226187
4752.903649
5361.430806
1728.830015
1743.715155
1697.731399
1713.834432
2204.634528
1021.01449
1662.629454
1596.076513
1694.625478
1049.472802
1053.724605
1044.305497
1047.455375
1687.404633
1630.948757
1675.29919
1134.483893
1565.855058
2174.161026
5701.521952
5285.684441
3892.696193
5566.658169
866.4563045
1235.015835
12885.0173
1178.245284
801.8809668
806.0713836
1857.256671
7328.645099
7570.25689
9176.099883
5691.712698
5214.044796
1789.418352
1777.076668
1121.541376
1756.724054
1909.624266
2683.226881
1878.490852
2502.712474
1878.55029
740.4429878
2637.255497
1877.516919
4750.141593
4957.887866
5310.343193
3863.276573
4502.487735
1278.767424
1619.47311
855.4517751
438.3089622
606.7921557
969.054223
1080.601044
635.3533645
942.4823102
1249.984815
4969.336349
5258.653992
4884.418557
4964.253634
5792.30427
5733.389997
5553.026187
3193.705055
4862.037259
4378.149639
5525.663911
5731.802957
3631.047835
3988.039473
4451.654881
5773.722043
4623.931827
3138.045333
3498.035243
2153.846827
1559.714386
2185.96976
1166.522016
1679.151043
2233.082933
2449.918079
2261.50189
3169.613146
2008.567573
1900.729667
2731.291133
1984.497546
2971.850179
2959.312236
1884.006903
1866.41128
1910.21228
1884.047678
2978.87404
2329.715772
1406.729775
1428.598217
3937.018891
3925.363607
3328.919955
4363.153054
4197.788351
4021.329981
3913.442586
4100.476653
3065.807025
1669.780521
1859.202102
1464.087404
1534.378018
2610.182491
4831.291812
4027.623775
2117.39221
5180.07276
4941.018259
4923.294255
3039.424276
4809.475826
4649.968789
1763.063591
1981.602696
3828.191986
1146.885566
1217.563678
577.9791145
651.4575947
1154.154378
778.6646439
533.8570849
558.0190326
1071.906666
1032.855448
609.7229609
1035.367409
1370.104701
690.501979
1134.907325
1114.539118
1785.713248
1239.040478
1218.177345
1361.991256
1318.068543
1885.753569
2759.551907
2593.097436
1700.124203
2486.722132
2602.252121
2340.214227
2460.064416
1669.167251
2490.083029
2451.859694
3122.041734
2335.729129
941.3160002
933.7962199
1422.247161
1467.01655
891.5708602
888.6882463
1456.763595
1470.400612
1432.46913
1446.282266
805.5515614
810.5280007
1339.589158
1298.149099
796.3314074
800.8461411
849.2817325
854.580867
1417.681001
1394.31757
838.2908675
843.8169055
3447.627895
2152.517905
2163.605146
2129.179186
2139.236245
3443.209866
3366.911164
2370.159648
2729.256068
2187.8232
2240.072357
3371.86349
948.8375607
1539.936091
1528.52456
1555.906672
1548.438863
951.1556733
933.8886767
1490.646399
1471.948739
1517.943494
1505.317124
940.3143071
976.6236621
1606.072251
1595.014842
1622.478552
1611.74667
979.5278734
959.5743618
1570.576399
1563.975453
1588.297913
1578.133701
962.7328567
1527.680798
1532.259167
629.7111538
925.3125768
922.0786838
933.0884513
930.4274472
634.7407248
1515.300649
1520.618758
1601.702292
1514.629329
706.8300354
993.6889653
1003.463541
1435.056261
1379.591267
786.8679321
647.6720178
941.357681
939.8862251
950.0627305
953.6667597
658.3806493
1566.34956
1558.885274
4425.547182
4282.361877
4650.429572
3096.14944
3671.151808
2496.486532
4197.777958
4255.458458
4186.247807
4196.069866
2555.636577
1833.475018
3529.495656
2971.677338
4123.421426
4266.531134
2112.426125
1046.013631
725.0127976
727.0170412
710.3801542
713.194373
1032.947521
1694.844488
1709.885127
1661.98736
1680.059282
1652.139152
2106.105551
1508.640444
864.2684514
955.9479198
754.4733142
778.0005423
1089.227555
1444.332828
2013.284051
1583.283869
1505.211606
1000.83466
1637.957188
1623.374504
1676.569246
1630.037511
996.9677412
1621.326433
1634.102719
1578.830907
1591.591584
4834.288929
3032.824407
3253.762605
2224.698554
2695.736753
4928.621796
4934.092908
4766.450195
3567.913836
4142.372351
5283.429056
5358.619854
3873.909332
4124.540346
2963.052949
3441.647061
5549.781173
1777.335562
1778.39816
1759.460689
1762.909196
1163.845382
1176.163612
806.6685426
1842.807788
1741.427589
1797.307739
1787.519191
1729.149078
1064.088537
1072.620943
1055.973113
1062.033523
1725.044735
1768.675486
1087.285467
1146.980106
1074.467439
1090.201999
1771.977511
5126.074707
836.6887831
842.965441
1228.571867
5450.040264
8472.30072
8844.767409
8200.236972
8263.009728
6080.275443
1889.551762
6031.247635
4199.944739
4597.087221
1138.884894
1815.522297
1798.070209
6078.308599
6664.21787
6403.594152
5182.685939
5668.089293
7057.678988
6687.57087
4195.221683
6351.884458
5433.683514
2253.331415
1808.073319
1205.763053
31.76421524
31.77190133
31.86052591
31.77523261
31.78990073
31.86936268
31.79577786
31.82038227
31.88456898
31.82957363
31.86381682
31.90622428
31.87360226
31.90482971
31.92921342
31.91123403
31.92881905
31.94376575
31.93099733
31.9263907
31.94369521
31.92160561
31.89813914
31.928881
31.890006
31.85881752
31.90722204
31.84943696
31.82109052
31.8869496
31.64683599
31.66330304
31.74352838
31.67083926
31.70371064
31.76550847
31.71849378
31.77504166
31.80339426
31.79791881
31.87050994
31.85596334
31.89311921
31.94809197
31.90539623
31.96654502
31.98659827
31.93223737
31.98497847
31.96883892
31.92826941
31.95746556
31.91146081
31.89458897
31.89369741
31.83659496
31.84788957
31.81618696
31.76196208
31.80258535
31.53859545
31.57333835
31.63855091
31.59053503
31.66389088
31.68848705
31.69714043
31.82329767
31.7762845
31.87552843
32.04649503
31.8904578
32.0879067
32.24211967
31.99343119
32.2826987
32.29913735
32.02982106
32.26482626
32.20294113
31.99869342
32.1659986
32.05588055
31.92785553
32.01534545
31.89474523
31.84133754
31.85653729
31.75376252
31.75312146
31.44356604
31.51209574
31.55473942
31.54553622
31.6953913
31.66497399
31.76914801
32.08772884
31.861625
32.22580952
32.77154346
32.13567484
32.90434419
33.382511
32.42994921
33.50312993
33.49969237
32.4391802
33.28965911
32.95870481
32.30992941
32.81845834
32.48894821
32.11589187
32.38509751
32.1155033
31.92954116
32.03600502
31.83663692
31.76293199
31.36876237
31.48521697
31.50275522
31.54535052
31.84972966
31.72043276
32.00752351
32.77525243
32.20591544
33.17029233
35.25309006
33.06292986
36.07493121
41.49590178
34.17077489
41.51605344
39.37782162
34.03355536
37.59016238
35.22404127
33.28329402
34.63560417
33.5112434
32.63894628
33.24004608
32.61170556
32.20225771
32.44515572
32.04837351
31.87322504
31.31152689
31.49013718
31.48403291
31.59071836
32.1212705
31.90504016
32.41445207
33.99292954
33.03365094
34.93856787
43.81181811
36.18170657
41.20300384
47.26182238
39.86912835
58.38455052
56.41773661
44.15915539
46.45847543
41.35389103
39.02252018
39.17471899
35.55043659
33.85190064
34.87652373
33.4782441
32.78106559
33.15213591
32.42616819
32.12291012
31.26494193
31.51467799
31.49228913
31.66032435
32.42717727
32.19063928
32.85485957
35.20318031
34.32541534
35.87673167
37.68116433
37.037549
51.69065749
58.40661643
55.91260417
85.9543599
62.53379187
52.85013367
46.99458565
38.69778387
36.1631196
37.34705914
34.75619931
33.75185397
34.18974399
32.96708525
32.54358582
31.22717576
31.5530558
31.52372046
31.74198512
32.70780199
32.50162771
33.23350581
36.01642367
35.43650813
37.20038866
39.50463461
39.14582071
59.44814464
70.18289856
69.02117284
135.2351143
85.56818855
77.28699825
54.81689745
42.17331616
39.44760362
40.11592921
36.21151684
35.06086067
35.37466232
33.60044393
33.11590355
31.19642374
31.59891461
31.56421477
31.82752752
32.95787037
32.77290919
33.55663747
36.65245851
36.17735386
38.08534845
40.71350125
40.40231759
66.886862
87.46941532
84.87404248
152.4381584
98.22894614
94.89306686
59.92709885
45.0703177
42.82550144
42.50890523
37.61547867
36.51980622
36.52849679
34.22944022
33.75661173
31.1718387
31.65012352
31.61267963
31.91616127
33.1972669
33.01924336
33.86329621
37.30910103
36.79857373
38.97381323
42.15432426
41.68462864
75.55585555
103.79974
100.3463389
147.2092386
100.4329037
100.5048816