/*--------------------------------*- C++ -*----------------------------------*\
| =========                 |                                                 |
| \\      /  F ield         | OpenFOAM: The Open Source CFD Toolbox           |
|  \\    /   O peration     | Version:  v1912                                 |
|   \\  /    A nd           | Website:  www.openfoam.com                      |
|    \\/     M anipulation  |                                                 |
\*---------------------------------------------------------------------------*/
FoamFile
{
    version     2.0;
    format      ascii;
    class       volScalarField;
    location    "3";
    object      p;
}
// * * * * * * * * * * * * * * * * * * * * * * * * * * * * * * * * * * * * * //

dimensions      [0 2 -2 0 0 0 0];


internalField   nonuniform List<scalar> 
12556
(
720.400085
720.0408823
718.9663859
716.361525
712.0464923
702.4051269
685.6672504
657.7520186
614.3810904
549.8351683
458.7447641
338.3828914
191.8214246
29.08519885
-135.4090389
-286.9137279
-415.6028851
-518.0277666
-595.3091443
-650.6251837
-697.7925995
-719.6081761
-732.3434526
-738.3194607
720.6294363
720.5284265
719.9762681
718.3507272
714.157194
706.2422207
691.7900187
669.4428124
631.2554286
572.6133957
487.0321348
369.6205948
221.4538248
52.73051241
-120.7953771
-280.749316
-415.1281971
-520.6434428
-607.1779143
-659.5496681
-706.0793019
-725.4616995
-736.8118773
-742.100083
721.1146359
721.5958124
722.2705915
722.6238732
720.4593084
716.2991053
707.3061233
689.0770685
658.810111
608.5309379
525.7625773
398.2449186
231.179373
43.90424249
-142.7534901
-313.601077
-452.8603154
-555.1792491
-640.1911683
-684.90783
-725.2503808
-739.4935058
-747.7261131
-751.4519093
721.3920682
722.6967455
725.1649864
728.3149115
729.1800117
730.5575673
729.6491337
719.9885645
703.3245143
664.7749749
584.3237051
443.3773294
231.8140974
-5.519775221
-219.3589171
-390.5205624
-525.1143196
-620.4859914
-692.5988126
-723.7810676
-753.5300417
-760.2142177
-763.7588168
-765.2004829
720.6529106
722.8940141
727.3974443
734.0054472
738.0746185
746.8719956
755.9947261
759.1301889
761.4518951
746.6459172
686.5603835
527.5322958
234.9878642
-113.5406983
-378.3307008
-546.8423264
-651.0290833
-715.7966098
-763.3008178
-774.7650729
-786.6283889
-784.2476556
-782.0170713
-780.6763094
717.9710683
721.1425293
727.6001093
737.5810317
746.2793199
762.2641459
782.7053637
800.4181889
831.0471008
864.9973643
872.3519164
749.9419513
283.8530034
-334.0276996
-668.7742114
-793.945535
-834.2062305
-844.711665
-848.2689714
-832.165349
-821.1424278
-808.3649443
-799.5157
-795.1394966
712.4580286
716.4395791
724.5953518
737.5221902
750.6639045
773.4110366
803.9523434
837.5650722
901.2225189
1001.431073
1148.963727
1304.991929
591.6233526
-903.5710809
-1149.532063
-1123.490505
-1060.87138
-994.0989036
-938.5185913
-888.7799602
-852.756783
-828.5736416
-813.1808812
-805.8919689
703.3521279
707.9219239
717.3074213
732.3376095
749.495045
777.1831404
815.0732928
862.0147391
951.2890248
1100.013754
1349.517601
1836.17365
-2477.435577
-1820.239452
-1483.130617
-1282.938524
-1135.960531
-1016.026736
-935.2405665
-874.0065983
-840.4048874
-819.8703687
-810.1561962
690.0781601
694.9382809
704.9178016
720.9598262
741.1462497
771.3658796
812.7310423
866.9737157
965.8297994
1117.783044
1321.197816
1535.093079
-3891.600107
-2324.585476
-1737.369705
-1435.3526
-1230.576874
-1061.719229
-960.0924276
-879.5969757
-840.2769416
-816.659803
-805.4602034
672.3206494
677.1410936
687.0140509
702.8578226
724.8811575
755.0431433
795.907406
851.4708896
945.9837152
1077.112285
1218.698183
1329.054082
-3677.834497
-2345.913351
-1772.786214
-1460.364766
-1248.961817
-1063.119375
-955.9857841
-866.3114835
-826.0471592
-801.9140288
-790.4138221
650.068104
654.5391092
663.644094
678.0860896
700.8539553
728.5814603
765.6400321
817.8970408
900.9330117
1008.18526
1115.675582
1204.702008
-2796.277444
-2001.666392
-1607.417523
-1368.527659
-1189.170944
-1017.868725
-921.9964923
-833.9255297
-797.469869
-775.3599058
-764.7370387
623.5932262
627.447098
635.2930366
647.1062228
670.1636583
693.1958875
723.9864554
769.6053789
837.3160763
922.2662291
1011.905629
1111.381376
-1851.509742
-1511.454513
-1324.015973
-1186.98134
-1067.841589
-935.6732534
-862.4972422
-785.2277579
-756.2613965
-738.1175596
-729.302031
593.4385865
596.486557
602.8088528
611.8234882
632.5142961
650.4508632
673.2942635
710.3785567
759.8126946
820.1080931
888.6203641
994.0768216
-784.2510579
-968.1990117
-1026.687637
-1008.592951
-969.9315318
-916.0120923
-832.4347072
-785.9559329
-725.2732535
-705.6059315
-692.393522
-685.9279493
560.2834192
562.4373539
567.0587639
573.3926482
590.856504
603.2091546
617.5363935
644.5759773
673.6638414
703.4950077
730.0825578
799.3124403
223.6582246
-415.4794932
-640.5636974
-727.6868
-761.4579647
-760.1928868
-723.6437475
-701.3289645
-660.3621631
-649.1329546
-640.9218637
-636.9670313
524.9174328
526.0969857
528.7187102
532.0963655
546.392149
552.4004853
558.3433738
573.1876738
581.1172348
578.5793064
553.3195062
471.8774465
182.9579231
-181.4664918
-395.8537108
-516.0962095
-587.1102964
-621.7612015
-619.1829483
-617.3630746
-593.7926454
-589.9058458
-586.4506976
-584.8519462
488.1607901
488.413803
489.0599608
489.5925949
500.6605139
501.0306478
499.5018754
503.2670996
494.4724862
470.8283637
416.470135
306.127223
135.0538887
-82.68924312
-251.7041333
-371.9654943
-455.3055478
-507.5419991
-526.3028436
-538.5957087
-528.6571168
-530.7728897
-531.3948825
-531.768813
450.8382742
450.2908563
449.2151061
447.2737118
455.2655475
450.8636236
443.3217673
438.9497305
419.2509678
384.1694285
324.1401572
235.3123222
111.6774125
-35.26763669
-166.4481887
-274.4526908
-358.5111871
-416.2880112
-446.2506297
-467.233735
-467.4050492
-473.9681189
-477.7092081
-479.5106035
413.7086655
412.5067088
410.0240219
406.0845964
411.301498
403.216485
391.1735107
381.2212487
355.6207391
317.1666522
260.8799493
187.7222432
94.24612687
-13.83228997
-118.8047111
-212.1927307
-287.8086076
-343.7837683
-378.6867735
-404.2488333
-411.3040413
-420.7896619
-426.6713406
-429.4335779
377.3927679
375.6828962
372.1076776
366.6593787
369.6049223
358.9089248
343.8894316
330.3811317
301.9382385
263.2656357
212.5244551
150.0401865
78.1568455
-8.343576994
-93.84669038
-171.1341884
-235.7972966
-287.0323159
-322.7433885
-349.6521826
-360.74497
-371.8766002
-379.0363767
-382.4318323
342.3719242
340.300336
335.9443918
329.4568788
330.6522461
318.3157956
301.6032577
286.2354156
257.1327066
219.6875824
173.6604512
119.8181403
59.80874565
-9.568801846
-78.18379329
-141.4450508
-196.391716
-241.9097298
-276.2493376
-302.6128724
-315.7228126
-327.5061853
-335.2651609
-338.9540337
308.9980075
306.7020599
301.8571984
294.7465512
294.6834104
281.5042003
264.0200471
248.120493
219.7398548
184.7155101
143.5145089
96.24386644
46.32051351
-10.47305257
-66.55420914
-118.9718482
-165.6594477
-205.5824322
-237.2745813
-262.1243793
-275.8848778
-287.6137819
-295.4706848
-299.2167859
277.5044117
275.1017533
270.0213964
262.6327048
261.7406328
248.3341936
230.8676242
215.2099477
188.3723728
156.2864277
119.7528108
78.80819454
36.30285817
-10.85334364
-57.40405434
-101.2828466
-141.0396287
-175.8105657
-204.3939333
-227.2096079
-240.7247221
-251.94378
-259.560599
-263.1995105
248.0158599
245.6006106
240.4915327
233.1096778
231.6969976
218.5445598
201.6547438
186.7221463
161.8687589
132.8826404
100.665371
65.26512254
28.81163173
-10.8259636
-49.89026115
-86.90903263
-120.8470198
-151.0115789
-176.414402
-196.9896429
-209.7121696
-220.1513796
-227.3154072
-230.7420732
220.566089
218.2105015
213.2299049
206.0728582
204.3944878
191.8278473
175.8963644
161.9564339
139.2906275
113.376405
85.06713844
54.50035882
23.10698026
-10.49311152
-43.52148308
-74.92473694
-103.949155
-130.0483483
-152.3938514
-170.7111376
-182.3383758
-191.8560427
-198.4441582
-201.5973193
195.1198939
192.8776256
188.1393066
181.3627009
179.6165674
167.8573877
153.145485
140.321344
119.8979305
96.92483812
72.12991784
45.78895087
18.68406765
-9.942145289
-37.99720343
-64.72608403
-89.56965748
-112.0986995
-131.5966931
-147.7426619
-158.1303968
-166.6713545
-172.6237891
-175.4732201
171.5926119
169.5018689
165.0850488
158.7942375
157.1288304
146.313605
132.9277728
121.3229578
103.103253
82.88857208
61.25901479
38.58769143
15.197985
-9.242542306
-33.12324372
-55.90236648
-77.15818613
-96.55283175
-113.4429922
-127.5561424
-136.6600856
-144.2247099
-149.5249175
-152.0616173
149.862606
147.949059
143.9062222
138.1680842
136.6972726
126.9015049
114.8830147
104.5361649
88.43706487
70.78060804
52.01035267
32.53410821
12.40684353
-8.447140571
-28.76845262
-48.16526546
-66.31529897
-82.9516172
-97.47449755
-109.7134798
-117.5446746
-124.166288
-128.8249374
-131.0533964
129.7820639
128.0615776
124.4247999
119.2778185
118.0865491
109.3424362
98.69371505
89.59783197
75.5167924
60.22312102
44.04597311
27.36346154
10.13875522
-7.595331887
-24.83863026
-41.30288971
-56.73976733
-70.93802122
-83.31814529
-93.84311877
-100.4436113
-106.1728678
-110.216204
-112.1486624
111.1873306
109.6685844
106.4549271
101.9169064
101.0707283
93.3815528
84.10180328
76.20136594
64.03125794
50.91907931
37.10381697
22.89238416
8.269205198
-6.715991578
-21.26310968
-35.1547491
-48.19907396
-60.22980338
-70.66859615
-79.63078381
-85.05490132
-89.94980918
-93.41167803
-95.06416438
93.90655827
92.59303606
89.80891722
85.88324356
85.432986
78.78283152
70.84856966
64.09369636
53.72391589
42.62872375
30.97503263
18.98237694
6.706376217
-5.829237066
-17.98542342
-29.59358394
-40.50614701
-50.59485526
-59.27085103
-66.80610999
-71.11021786
-75.2293231
-78.14600016
-79.53587403
77.75780069
76.65053653
74.29620578
70.9741736
70.97552755
65.33054982
58.69906691
53.05883279
44.38103752
35.15650056
25.49295775
15.52255875
5.380331336
-4.949029737
-14.95888099
-24.51595787
-33.50732257
-41.8297772
-48.91046271
-55.13422685
-58.36488588
-61.7651479
-64.17160846
-65.31523923
62.58198527
61.67811193
59.75018911
57.01986409
57.49589339
52.82500624
47.39741322
42.91556162
35.81989319
28.33947644
20.52293502
12.42084668
4.234137995
-4.085128727
-12.14372481
-19.83621908
-27.07838707
-33.78141672
-39.38459735
-44.40420596
-46.61603319
-49.3456353
-51.27399945
-52.18775274
48.12645963
47.43126523
45.93213333
43.77212221
44.84946675
41.08285226
36.78997158
33.46698483
27.87439673
22.03488459
15.94880751
9.595364134
3.221222969
-3.243597131
-9.503977375
-15.4792386
-21.11273389
-26.35052455
-30.50777824
-34.42576737
-35.6112876
-37.72485311
-39.19886295
-39.89016517
34.49557606
33.98652421
32.90569629
31.35579203
32.64106213
29.9297459
26.75186151
24.55356207
20.39852356
16.11606197
11.66975266
6.971976889
2.301615979
-2.427751064
-7.006326415
-11.37621809
-15.50557482
-19.36400339
-22.16410987
-25.0058312
-25.39075671
-26.88201972
-27.92644759
-28.42110161
20.5142377
20.27252265
19.62999198
18.69561707
20.97039114
19.21818055
17.11319414
16.03258486
13.26327183
10.4648939
7.583917948
4.479907871
1.440072341
-1.638584987
-4.619124675
-7.463368137
-10.1603437
-12.70299893
-14.21074321
-16.07037892
-15.12835889
-16.02408638
-16.64060268
-16.88114366
10.35946067
10.11248206
9.765305349
9.205137374
9.550625646
8.664569368
7.654600055
7.774256095
6.361237546
4.967959114
3.575858633
2.03900713
0.6145807003
-0.8730959468
-2.31140942
-3.682466179
-4.989685851
-6.244701577
-6.431432528
-7.278449606
-7.319383321
-7.760850189
-8.047910267
-8.254140066
1574.961292
-4150.080603
-2610.609666
1348.11267
-4001.341647
-4219.270404
1217.454421
-3038.859153
-3905.952441
1123.493951
-2013.986751
-2907.309808
1003.597134
-839.8570535
-876.6110481
-1081.622149
-1890.987522
826.3157564
311.4005183
-793.4923856
175.8209228
-427.9680308
-976.5014501
1817.17792
787.564466
-2274.377871
-721.0411983
-5363.939344
-3219.614653
-3820.395399
-2470.115141
-1949.535116
1245.180778
1337.501054
1512.23503
-5658.147851
-5889.742216
-3757.573543
-2622.16598
-2569.659916
1141.028679
1207.246032
1318.649011
1276.423665
1304.453757
1372.597981
-4214.10428
-4982.264687
-2915.601658
-2272.088236
-2569.413993
1038.806862
1109.518113
1194.097363
1169.293783
1206.109396
1239.000466
-2809.337128
-3406.076403
922.6360971
994.9003376
1096.991563
1065.071736
1125.984136
1167.320509
-1612.463507
-1557.233266
-2091.816992
771.7249149
819.8737147
977.6367551
928.1168617
1005.230393
1063.557775
539.1912081
290.1057546
322.8108461
1937.743136
1590.913648
2509.680992
2014.090889
-5892.691473
-5429.396317
-3722.184679
-5198.896653
-5738.159673
1380.98253
1439.331865
1413.431912
1439.955571
1384.439575
1563.48224
1449.827993
-5027.649716
-5629.480303
-4151.41937
-5503.195378
-4940.020373
-5737.750825
-5529.753143
-4176.622951
1244.909708
1295.324152
1260.419026
1300.420832
1246.431409
1380.024856
1305.467428
-3494.228581
-4158.547446
-3428.657475
-4058.1345
-3424.510452
-4895.443697
-4157.607191
-3555.206539
1170.317943
1204.418582
1158.0308
1207.604129
1174.457168
1243.344183
1209.026091
-2169.824061
-2727.016136
1067.62326
1123.04802
1057.296247
-1571.377811
1128.363505
1072.573453
1171.359542
1131.346595
-1611.390008
-1008.388288
-1482.019586
-1564.645582
1029.170764
1002.094428
916.115685
-64.16259583
1008.442508
915.1687969
1068.527536
1010.611235
-140.2038334
1341.589466
1546.405375
1734.931505
1761.416725
1985.695575
2373.852559
-6480.443041
-3841.139344
1439.115391
1450.006673
1570.135985
-3352.194252
-1966.548624
-1716.939733
-2142.843071
-1999.199032
-1937.288758
-2217.538996
-194.1040765
-499.2030626
-870.7087193
1597.739117
1919.450025
1714.761014
1625.28211
3366.99283
2692.599748
-3085.975525
-5047.018227
-3497.964584
-2263.328888
-2565.501963
-2391.167522
-2684.565978
-2143.761505
-3339.817065
-2764.260953
-2519.118113
-1180.985779
-339.7918313
-483.6888448
1285.561962
1897.061828
2499.866454
-2781.716803
-706.4233355
1037.782608
-6610.182347
-4733.114484
-6423.475115
-3693.063958
-6247.520955
-4409.209356
-5777.394409
-5795.51884
-4579.741603
-4631.813199
-2972.7884
-3288.742117
-3060.107042
-3266.121104
-2945.978642
-3661.69858
-3313.825618
-3145.351418
1145.202677
1117.130287
1098.028832
-1592.579256
-1851.461817
-1926.330876
1032.738965
996.7393686
969.2131336
1030.201667
1005.345334
1036.112484
1897.568687
1653.312567
1750.84415
1668.423426
1927.357102
1521.55506
1642.465922
1702.438848
2358.160181
2651.211993
3209.844679
1984.869219
2549.396326
2272.299158
2571.640227
1964.748142
-5791.692077
-5768.091448
1412.93385
1439.872874
1409.25611
1501.452568
1464.366966
1515.256555
1440.3079
1460.041341
1486.156083
-5313.978288
-5350.927055
-5255.811196
-4684.992703
-4815.78519
-4452.400688
-4632.52435
-5219.202889
-5672.176859
-4927.176
-4906.848209
-4849.413343
-4917.50481
-5655.089568
1272.01957
1268.164438
1346.55229
1341.042852
-3767.44962
-3698.812811
-3816.176371
1193.04097
1190.522042
1224.218275
1221.952496
-2898.426937
-2588.000389
-2484.927488
-2608.377253
-2920.788053
1090.325163
1061.484591
1038.082077
1091.209038
1069.249811
1095.288482
-1229.423796
1099.360786
1093.926142
1151.360851
1149.236961
-1935.040185
-1228.833079
-1250.130145
-1506.849544
958.852885
926.2607297
938.884768
955.6572959
460.3889482
156.29167
1042.127232
-329.4088974
111.109721
-245.8044184
1039.46569
-392.4017835
-276.8274843
78.68103466
-4624.747614
-2137.670953
-2283.420299
595.3899795
561.3446482
785.7293519
676.3144726
690.6609858
958.8214372
196.0690192
-135.592619
-317.042621
4328.241568
-2317.100803
-2474.531173
-920.176472
-1165.762539
-1181.892128
-152.2839838
-395.1789941
-121.9336022
2075.364341
2635.759383
3358.007959
-3283.590321
-683.094249
1367.914585
-5718.994439
-6374.362024
-6298.01228
-5861.305961
-4369.588465
-4559.807507
-4372.010652
-5241.450268
-5086.852773
-4838.689765
1219.849719
1203.064181
1187.862901
1225.802015
1208.453218
1222.446693
1140.739636
1123.145564
1147.615223
1016.227662
999.8333362
986.3326459
858.5313523
609.5573957
349.8542409
-5865.118423
-6345.394092
-6404.600837
-5601.965023
-4664.683733
-4352.587879
-4881.277591
-4737.625791
-5619.375303
-5157.479225
-5430.209948
-5293.699182
-5522.312206
1263.954123
1251.917875
1231.992497
1252.184227
1259.479097
1255.065469
-4313.485434
-4146.245277
-4008.924747
-3775.894169
-3536.893331
-3774.363178
-4561.764036
-4167.575964
-4385.191618
-3854.065645
-4090.878338
-4511.799852
1187.13472
1162.690445
1146.433826
1182.951081
1167.924621
1189.622021
1202.716893
1216.048516
1217.29166
1186.61263
1200.802912
1182.851183
1234.637349
1239.249864
1249.233335
1217.265597
1219.353207
1213.71605
-2405.675429
-2545.366775
-2255.788255
-1426.882254
-1425.099581
1118.228704
1074.000518
1161.71518
1169.371507
1184.128813
1157.721734
1138.927675
-1743.400398
830.2915024
916.0789851
878.902639
981.4458846
964.0108296
985.7810124
122.9684439
366.981732
130.4858653
995.2685629
428.8067218
675.9530342
495.953088
608.1250358
1052.369713
1023.324777
-5810.829594
-4498.864767
-5457.476536
-3481.464836
-3538.9523
-1959.435837
-2092.881039
-2110.236041
1574.95165
1558.375338
3175.968949
3588.791348
4016.815339
3386.318523
3065.978145
-2639.027091
-2480.466827
-2433.362129
-2487.982026
-2658.355948
-1195.4301
-1025.367101
-1033.10755
-1029.854636
-1199.398035
-815.9212186
-982.190321
-587.4650034
-606.9093581
-767.1764113
-398.3195744
-554.3802221
-490.3133109
-6738.917873
-5896.279378
-5428.296478
-6273.74607
-6013.312222
-5241.438041
-4543.569906
-5432.310876
-6136.019438
-6062.465926
-5732.080317
-5847.232112
-6264.779889
-6167.384344
-4791.560373
-4619.110507
-4422.890075
-4675.132457
-4858.716761
-4428.819676
-4619.659238
-4910.981735
-4787.992714
-5035.377138
-4847.045838
-3108.486137
-3164.869332
-3133.574996
-3049.630849
-3181.121123
-3514.584268
-3410.031584
-3550.35916
-3225.237677
-3363.635719
-3462.94538
-1802.737892
-1776.020074
-1912.045567
1016.48436
1004.406014
1016.836896
1044.514675
1032.057815
1020.950401
1768.800975
1736.803526
1755.551921
1803.772587
1712.46476
1964.311707
1839.186233
1791.049873
1567.976332
1603.892164
1557.943527
1686.68079
1622.009254
1585.415723
2187.334728
2179.44222
2012.640206
2264.677226
2174.651002
-6354.802736
-6341.765782
-5850.61308
-6486.333523
-6535.184119
-6462.665896
-6438.742717
-6349.469434
-6558.285493
-6450.232712
-5656.946928
-6245.6908
-6352.396236
1423.371344
1425.909942
1418.076068
1440.895051
1429.650655
1428.806819
1408.861679
1401.951345
1416.964853
1410.811225
1481.546389
1505.611013
1483.504694
1545.773353
1514.423295
1487.803896
1450.587864
1457.370633
1444.519221
1477.352517
1462.109048
1455.414231
-5592.987322
-5473.032475
-5198.474581
-5477.343439
-5763.775732
-5624.971664
1287.394412
1276.753437
1305.502155
1290.134908
1260.548462
1254.391393
1272.358715
1262.375551
1376.768792
1358.594682
1398.546744
1382.708256
1327.501173
1309.719454
1352.45742
1333.941461
-3783.133789
-3932.259685
-3597.7954
-3737.465176
-3834.764092
-4194.890371
-4365.756875
-3981.730107
-4142.727383
1202.809939
1213.6332
1200.603809
1219.020578
1205.22387
1220.137296
1221.97166
1203.116556
1184.399274
1200.316362
1200.245307
1230.574726
1236.080669
1231.667137
1239.04805
1233.264778
1251.35297
1241.369328
1220.114847
1219.281808
1227.82429
1221.216871
1215.546431
1220.67891
1227.498281
-2668.429384
-2743.566995
-2809.182368
-2656.337933
-2856.041353
-2785.889986
-1210.762078
-1379.683416
-1411.942699
-1210.037083
1114.772507
1079.923149
1160.467377
1165.882653
1158.724427
1141.952252
1161.271845
1160.216241
-1820.98831
976.5336042
957.1344929
940.2218694
628.2934026
529.5798355
988.425924
240.7556399
402.0876036
293.2501226
1046.739065
-483.1144804
-45.50635826
183.0321029
-91.89575008
1016.381742
-2200.783894
-1730.221106
-1134.475285
-2271.747998
-2323.819961
-1098.576985
-1150.803529
-1570.935165
-2334.228255
-986.0665876
-979.1034253
-819.7661155
-2068.039193
-1577.611311
-1529.612411
2599.754862
3399.066363
4214.092254
-3471.095739
-607.2967133
1799.415145
-1414.464761
-1007.169896
-2719.635741
-5075.226978
-5736.353229
-6010.83504
1334.118195
1317.059446
1290.753904
1353.230694
1326.110418
1344.199396
-1594.809111
-1730.221597
-1745.961971
-2170.751923
-1916.926875
-1859.167347
1048.11873
1036.563921
1049.282204
-6086.33869
-6215.586363
-5620.882535
1282.399754
1259.105835
1271.102355
1287.501665
1290.192412
1304.652349
1309.241247
1325.89677
1320.094295
1073.31065
1062.475781
1052.336851
-1585.111737
-1540.535623
-1528.488643
1077.328774
1082.646336
1075.730037
-1677.137058
-1689.870507
-1599.577508
-1422.152308
-1410.03581
-1548.235737
1005.478397
1064.670476
1071.059686
1073.638197
1010.952036
-6371.396192
-3387.869351
-1980.291895
-2043.733732
-2051.568664
-2264.864194
-2126.535522
-2088.889213
1602.19856
-4213.693604
-3687.911797
-4398.614494
-2390.934591
-2447.480839
-2306.75687
-819.8673435
-835.8444833
-662.6008761
-667.0828455
-762.9849729
-1645.534096
-1056.405261
-3226.078887
-6585.167433
-6251.259035
-6094.23332
-6712.156533
-6679.060857
-3017.600924
-3048.183379
-3001.65643
-3305.22043
-3295.402587
-3267.440609
-2872.985726
-3003.577273
-3082.449852
-3625.612784
-3576.177787
-3623.646685
-1917.082784
-1894.178539
-1927.237861
1844.328454
1895.962407
1680.822194
1695.580452
1713.327916
1685.734144
1529.748625
1546.706095
1535.073703
1660.119438
1637.094251
1619.600629
2440.282887
2246.475279
2270.104632
2461.662386
2447.393219
2592.89835
1948.611813
2003.414646
2025.933439
1416.807622
1416.953385
1421.662347
1439.602053
1436.834903
1437.588231
1415.190131
1414.623602
1422.041444
1419.152796
1471.071036
1477.122113
1471.025016
1525.218021
1515.412028
1506.826907
1441.059162
1443.8013
1441.509948
1466.08234
1462.883707
1458.947631
1275.646313
1286.583562
1283.132454
1258.331055
1261.899498
1271.736569
1355.59867
1372.854338
1361.570454
1370.687019
1364.014358
1412.765417
1407.233526
1314.99227
1357.401371
1350.847672
1325.631399
1331.920328
1349.719075
-3947.121643
-4004.945116
-3669.918323
-3723.303889
-3749.606961
-4060.504031
-4084.601511
-3957.288778
-4094.238663
-3939.863493
1078.169122
1066.626002
1077.061908
1109.147785
1094.189797
1082.715043
1103.150242
1110.110384
1105.085171
1088.999676
1092.378902
1097.167933
-1931.549931
937.5306027
941.736776
937.0606337
699.7089308
947.6202669
335.9330285
471.2669102
598.1365188
1047.915411
1047.269009
1043.437916
-392.8306316
-238.6966186
-214.2899535
-228.7070641
1034.86804
1041.379347
1046.089972
-124.7190138
-199.2972679
-345.9593399
-2174.141002
-2215.327371
-2308.311735
-2262.710662
-2240.86959
4285.964372
4717.008328
4054.696573
-2368.865519
-2394.503733
-2322.148088
-2492.628035
-2442.017125
-2428.442658
-1889.031619
-1055.271431
-3385.819599
-5968.440868
-5966.964221
-5913.226821
-5946.225415
-6347.637424
-6197.909209
-6218.281389
-6156.000759
-6177.994775
-6324.148688
-5193.484592
-5113.835812
-5162.592002
-5008.662482
-5063.83865
-5143.511924
-6396.488237
-6223.414729
-6197.228564
-6235.72335
-6239.507405
-6418.886575
-5382.657406
-5299.979979
-5344.188961
-5210.744293
-5255.654793
-5339.739881
-5858.094993
-5885.398531
-5769.614993
-5817.292208
1217.025973
1212.441848
1211.010614
1189.554873
1186.256076
1182.910125
1193.333578
1190.348377
1194.755718
-1544.983034
-1595.009202
-1420.554852
-1494.647289
1130.058038
1129.793194
1135.358283
1131.254213
1075.867542
1075.180669
1082.372015
1071.886699
1174.243019
1171.764765
1167.653359
1179.885601
1176.164899
1179.847331
1143.137351
1141.685441
1150.690098
1136.05111
1142.569812
-1751.560489
-1742.115865
-1730.085884
-1601.474904
932.0070587
982.8931427
1127.797832
992.66516
984.0853629
977.0440488
1001.665506
369.214216
350.9912918
1103.184557
977.1662442
733.8565134
1053.735236
1064.282998
1059.32772
1016.961743
-6077.532093
-6388.960088
-6128.445825
-5282.310493
-5058.116532
-4260.481766
-5823.313693
-5508.944628
-3429.946802
-3568.820579
-2104.711841
-2091.653205
-2102.984317
1587.316889
1536.558889
3780.643946
3617.102713
3467.933041
2873.878422
2729.604704
3279.455409
3053.162089
3161.370527
-2558.221065
-2500.583424
-2605.724972
-1047.206382
-1044.195974
-1031.988299
-1143.518678
-854.5786808
-837.3410897
-821.8584526
-973.6789857
-918.4091679
-915.0719002
-591.6687439
-646.2906551
-645.9039258
-468.8975344
-473.0044771
-520.8966423
-6507.191452
-6383.582835
-6663.265627
-6190.746988
-6452.224125
-6522.738654
-6659.407461
-6620.569127
-6102.932608
-5999.652551
-6022.881768
-5973.161483
-5981.850873
-6075.043563
-6228.382744
-6101.682803
-6130.246714
-6048.422748
-6074.225805
-6197.068131
-4737.402953
-4663.934813
-4717.936202
-4734.471199
-4800.327665
-4484.585628
-4511.27513
-4472.499082
-4562.860175
-4968.445571
-5011.770657
-4972.424296
-4888.533589
-4949.670426
-4773.130618
-4830.720376
-4908.871642
-3144.971923
-3069.468492
-3055.539394
-3082.867082
-3017.222506
-3068.461873
-3222.081111
-3249.771076
-3194.049789
-3477.060727
-3521.951121
-3551.183339
1803.906365
1707.51405
1580.481828
1561.595614
1544.777564
1601.576692
1617.038882
1598.667356
2238.275191
2329.528147
2361.388516
2599.970701
2477.342665
2094.243042
2071.153187
2152.26792
-6349.615829
-6164.054536
-6157.632579
-6177.459432
-6169.101184
-6348.327124
-6513.442352
-6518.591394
-6426.989977
-6655.367809
-6628.025147
-6614.314269
-6649.606723
-6403.677423
-6550.202378
-6632.787421
-6653.430484
-6490.513202
1424.6173
1421.881213
1420.374116
1433.808499
1433.158725
1428.963045
1415.599991
1415.328431
1416.943746
1416.045517
1489.369003
1483.158416
1476.708273
1496.642894
1505.623309
1496.714075
1452.346922
1447.599368
1444.781786
1458.039078
1460.156855
1456.72635
-5557.430895
-5468.011029
-5503.948284
-5385.903744
-5427.759639
-5514.042216
-5713.15755
-5633.059022
-5709.74063
-5538.167418
-5577.928981
-5664.537816
1284.46189
1285.681134
1287.650397
1277.842065
1282.42766
1280.898199
1299.48817
1297.40853
1305.642716
1288.817833
1291.381734
1293.935076
1258.852037
1260.499857
1261.324554
1256.941397
1259.121777
1256.854186
1268.292483
1268.00087
1272.638726
1262.23049
1264.360731
1264.906183
1384.200423
1377.505216
1370.805415
1374.360298
1380.620228
1361.530935
1367.950815
1364.729249
1398.781366
1390.911084
1331.713128
1326.028803
1321.184357
1323.632391
1329.590211
1310.720227
1310.625679
1313.539586
1346.314031
1348.793068
1355.1494
1336.19219
1342.484756
1340.155077
1344.488878
1338.196989
-3867.199323
-3901.10272
-3807.493632
-3776.142952
-3811.570524
-4245.732124
-4278.694547
-4232.678643
-4405.303711
-4335.720945
-4302.027352
-4028.604409
-4064.539384
-4027.020409
-4184.350869
-4134.974831
-4086.264042
1205.819118
1202.567717
1199.58236
1208.805384
1205.819398
1209.784401
1213.500778
1208.404345
1221.220975
1222.002539
1202.488778
1194.460694
1190.224887
1190.675108
1192.465201
1196.694187
1194.475746
1199.206618
1228.768393
1232.227642
1241.560456
1234.565063
1247.941534
1249.793068
1253.618831
1243.697747
1246.552607
1244.703173
1219.2547
1218.935923
1224.050664
1222.333726
-2759.591287
-2740.872549
-2795.371903
-2644.073373
-2690.896472
-2724.178011
-2921.385296
-2962.713433
-2838.36775
-2853.2249
-2864.359451
-1350.035816
-1350.42157
-1404.611054
-1221.691139
-1281.945544
-1291.658518
1114.860728
1106.003412
1128.258103
1123.33886
1084.601301
1087.677185
1084.098949
1090.218695
1087.259159
1099.284887
1094.537089
1161.630821
1159.795171
1158.202839
1164.378974
1161.830189
1163.419033
1161.694888
1155.584455
1153.534716
1157.09907
1156.378909
1160.908546
-1876.860256
968.1039642
958.5015937
966.4211873
582.6975963
603.842199
671.1906743
539.1769715
547.852442
527.598781
980.5382109
338.4070633
284.6606872
215.9856504
1044.207919
1045.732326
1046.639294
-460.0100525
47.36897553
-13.3682728
164.0398964
149.4536643
163.5568592
-33.93100461
-167.2934347
-148.9679254
-46.99648985
1026.897903
1037.552445
1030.911398
682.953133
660.0889423
643.0479413
650.153967
612.9160386
590.2532908
597.1472467
538.7808314
512.0937384
514.2436091
425.8138428
402.7382357
390.4685815
271.7849573
260.9708292
228.4478912
96.54121097
94.81931968
49.77011399
-88.30178066
-79.32152074
-133.7938654
-262.665075
-243.3711645
-302.8728278
-409.0362296
-384.1704878
-440.4360022
-520.5597357
-496.3891941
711.3433682
697.3104424
668.0039013
690.7966816
662.3577315
623.5886755
648.8421803
592.2628116
550.4572739
566.9860957
469.3984122
434.8300679
428.6000082
285.4449238
274.9074983
232.1887637
66.85482422
91.60520367
11.52232698
-145.2406649
-96.96983136
-193.5733939
-325.1864642
-272.9097823
-364.7990853
-471.6437296
-421.5487473
-502.8332044
-580.4969446
-532.5927936
748.8083221
747.472651
708.8293151
745.5809016
731.6576883
677.4968552
723.0415976
678.2655093
609.5841411
654.8255775
548.1343575
485.1376291
498.2616422
309.5669322
289.1861195
232.4494504
-4.434006881
53.27781652
-79.44772097
-275.0191339
-169.788252
-329.0759128
-461.6283037
-351.5520366
-498.4089305
-589.7389959
-494.346998
-614.2511736
-673.6243697
-600.7768462
790.2092873
807.178438
761.7528383
812.9833408
828.9944766
753.1323794
832.678088
826.3265302
708.3237675
815.8771334
729.3578134
580.18334
673.1155954
388.836604
321.9524373
260.3413631
-143.3946228
-30.72445496
-261.3785295
-521.1698102
-322.7452981
-580.4307995
-700.1691321
-511.0164538
-724.4383326
-772.853743
-629.7150689
-783.4363473
-805.0451462
-702.6710844
829.0935684
868.4848405
822.7713122
884.8299349
944.4608762
857.0241076
968.2393028
1048.892326
876.3179177
1076.872276
1133.310246
804.1778005
1122.913667
702.7124421
437.0595312
543.1487218
-497.7725261
-199.4764345
-693.2216006
-976.632737
-609.7711222
-1009.053085
-1036.437473
-774.63237
-1033.054501
-1012.418368
-828.1543353
-1002.292125
-968.4499995
-843.7055924
857.609477
916.5765453
882.1784666
941.9305647
1040.273336
972.3188963
1082.281468
1248.118437
1107.568083
1321.462282
1717.889842
1277.125701
1542.694065
1657.336241
1215.11723
804.9154032
-442.6312888
-71.44434928
-1266.093399
-1286.135384
-1031.412764
-1647.142456
-1448.959626
-1135.73324
-1396.880081
-1267.607331
-1077.671964
-1230.86429
-1132.649841
-1010.744478
867.6925417
936.2906351
924.4120247
965.4717299
1075.441042
1055.561749