/*--------------------------------*- C++ -*----------------------------------*\
| =========                 |                                                 |
| \\      /  F ield         | OpenFOAM: The Open Source CFD Toolbox           |
|  \\    /   O peration     | Version:  v1912                                 |
|   \\  /    A nd           | Website:  www.openfoam.com                      |
|    \\/     M anipulation  |                                                 |
\*---------------------------------------------------------------------------*/
FoamFile
{
    version     2.0;
    format      ascii;
    class       surfaceScalarField;
    location    "3";
    object      phi;
}
// * * * * * * * * * * * * * * * * * * * * * * * * * * * * * * * * * * * * * //

dimensions      [0 3 -1 0 0 0 0];
oriented        oriented;


internalField   nonuniform List<scalar> 
25162
(
0.0004164107257
0.9162335893
0.0004987340602
0.9166176767
0.0005642844539
0.9165844496
0.000274267804
0.9166217627
0.000318253987
0.4583391273
0.0002851405096
0.4583144997
0.0003461149334
-0.0003606146001
-0.0004412737013
0.458293157
0.0004981167196
-0.0005522782063
0.4582429433
0.0006443348949
-0.0007453985565
0.4582193723
0.0008560263023
-0.0009857748701
0.4581923974
0.001128377448
-0.001275946345
0.458183057
0.001427889332
-0.001581961129
0.4582003859
0.001713075212
-0.001824626701
0.4582526346
0.001905492079
-0.001947340657
0.4583304351
0.001951905581
-0.001916919105
0.4584054941
0.001841424968
-0.001742430093
0.4584547365
0.001622693609
-0.001480253364
0.4584719065
0.00134334685
-0.001202584658
0.4584835266
0.001034058045
-0.0009619283317
0.4584590446
0.0008528837101
-0.0007091608472
0.4584672242
0.0005919366464
-0.001558557763
0.9187080155
4.601653646e-05
-0.000545474268
-0.0009727421578
0.9187641844
5.011439546e-05
0.9158271435
0.9138501144
0.001142887452
0.9150907018
0.00178071076
0.9159798534
0.00196216012
0.9164030002
0.000491076364
0.9172429372
0.0008499092145
0.4581157547
0.0005904004218
-0.4582150788
-0.4582068514
-0.0007286436537
0.458031232
0.0009042630129
-0.4580709526
-0.001124665642
0.4578018605
0.0006571968007
0.0007365608968
-0.2289774233
-0.0008074017464
0.2289049379
0.0008798872267
-0.001199989347
-0.2289150828
0.2288179592
0.001297113041
-0.001714056118
-0.2288540785
0.2287219668
0.001846167862
-0.002350795279
-0.2288216466
0.2286688955
0.002503546402
-0.003026544433
-0.228848109
0.2287606839
0.003113916715
-0.002905275099
-0.2289675415
0.2287566888
0.003116217134
-0.003881392844
-0.2291465121
0.2290979288
0.003929976143
-0.003823659885
-0.2292837878
0.2293309734
0.003776474266
-0.003448703191
-0.2293774957
0.229504027
0.003322171813
-0.00288115043
-0.229407743
0.2295680046
0.002720888784
-0.002277148098
-0.2293882619
0.2295423885
0.002123021513
-0.4588901676
-0.003320734869
0.4603410702
0.00186983231
-0.000537700625
0.4609900813
-0.001172744827
-0.4592796358
-0.001245347764
0.9183843404
0.0001514561613
0.001417566669
-0.0007538787679
0.9182727154
0.0004695267314
0.914603738
0.9143196411
0.001434525704
0.9136561761
0.003886793648
0.9135275854
0.006581886678
0.9137079072
0.002616749919
0.915170413
0.006037660925
-0.4581061394
0.4579784768
0.002744412572
-0.4578939553
-0.002675253648
0.4586016285
0.001967580441
-0.4574375825
-0.001982365349
0.4572840559
0.001036040262
0.001099851673
-0.2285547318
-0.00130361926
0.2284033814
0.001454969663
-0.2283239841
-0.002007444837
0.2281055797
0.002225849234
-0.228164016
-0.002028589322
0.2328443113
-0.002658110487
-0.2368496848
0.01883695271
0.2412918316
-0.02330830764
-0.2351566257
0.03317424898
0.2371642864
-0.03520366395
-0.2272954231
0.0374630948
0.2267859443
-0.03695077651
-0.2205080016
0.03155553617
0.2175006435
-0.02852299436
-0.2219696309
0.01596939491
0.2168032842
-0.01077680946
-0.2301155346
-0.005510825231
0.2293614605
0.006266108204
-0.2302807995
-0.005362092992
0.2306024685
0.005040423948
-0.003821263058
-0.2302650358
0.2309408191
0.003145479804
-0.4629972077
-0.0005764185114
0.4618814026
0.001692223612
-0.4601330894
-0.001770344069
0.4601864213
0.001717012185
0.0007933722193
0.9204529282
-0.001644728236
-0.001217231777
0.002015548084
0.9170505395
0.0009456974198
0.9156735886
0.9152653386
0.0004179907892
0.9132381853
0.000920025161
0.913025551
0.001995656402
0.912632276
0.002913204319
0.9123955953
0.001857269787
-0.4572770389
0.456912829
0.003277414197
-0.4602171647
-0.004412825185
0.457252716
0.00737727386
-0.4588601838
-0.008537299295
0.4605299407
0.001754823011
0.005112719323
-0.2278509395
-0.00167434535
0.2276860048
0.001839280119
-0.2300080062
-0.0006645100894
0.2363271848
-0.005670734164
-0.2505999541
0.02407944072
0.2559260262
-0.02947739001
-0.2529334409
0.04216501223
0.2557806632
-0.04508912529
-0.2416223518
0.05023133669
0.2423025605
-0.0509552582
-0.2252774012
0.05115503098
0.2248457426
-0.05071842731
-0.210007191
0.04775665079
0.2083686532
-0.04606609917
-0.2026272185
0.03792840111
0.1988271629
-0.03404949436
-0.2108932219
0.01902287253
0.2050577922
-0.01312495979
-0.2341466572
-0.0009694103929
0.2361108003
-0.0009919270812
-0.004234158481
-0.23183748
0.2318713767
0.00420026172
-0.461959218
-0.006542662982
0.4632883256
0.005213555342
-0.4609937783
-0.003887843197
0.4620946016
0.002787019878
0.003825007785
0.9208066164
-0.002199295161
-0.001979400812
0.002609026617
0.9182665207
0.001214330075
0.9170682852
0.9164796686
2.665511011e-05
0.9132115302
9.427747291e-05
0.9129579287
0.0002921405431
0.9124344129
0.0009781330243
0.9115397868
0.0001698160713
-0.4567079947
0.4559686169
0.001717510799
-0.4559191866
-0.002064035882
0.4553848615
0.002598360927
-0.4545685142
-0.00334780862
0.4539286748
0.002140092851
0.001847555137
-0.2284540483
-0.00388651803
0.2273140858
0.005025358872
-0.2548438296
0.007382280294
0.2621869478
-0.01481241149
-0.2683434673
0.03145572153
0.2710857809
-0.03432588139
-0.2595920676
0.03769572786
0.2590131459
-0.03722063986
-0.2407555331
0.032646292
0.2387819215
-0.03072150596
-0.2239080693
0.02667628359
0.2237287024
-0.02649194017
-0.2073935837
0.02887882335
0.2088230687
-0.03024819231
-0.1919925441
0.03313973742
0.1916503215
-0.03268527668
-0.2023066114
0.03885054609
0.1925388559
-0.02895872375
-0.2118200406
0.01078257861
0.206470196
-0.005363273753
-0.006212397765
-0.2333532217
0.2339542997
0.00561131982
-0.4650994634
-0.007777709973
0.4668654184
0.006011754978
-0.4631693877
-0.004695050182
0.4642932582
0.003571179717
0.004744795586
0.9231839123
-0.003951341501
-0.003170749953
0.00267384246
0.9203374738
0.001226467809
0.9185156598
0.9177061364
-0.0002438901089
0.9134554203
-0.0004008192938
0.9131148579
-0.0003356512684
0.9123692449
-3.262307423e-05
0.9112723408
-3.558224888e-05
-0.4551551619
0.4549112992
0.0002112395811
-0.4549702412
-0.001097768393
0.4542947392
0.00177327039
-0.4532460096
-0.002213006461
0.4523658456
0.00151181733
0.001581353093
-0.2389885162
0.001634842307
0.2428711608
-0.005563164631
-0.2700483827
0.01636097863
0.2727299814
-0.01918499084
-0.2739624113
0.02162418359
0.2719426568
-0.01976229673
-0.2505303968
0.009049402981
0.2505200035
-0.009132308913
-0.2277221606
-0.008174233868
0.2233405615
0.01253281755
-0.2230008035
-0.02418371201
0.2228327981
0.02435284277
-0.2210180065
-0.01146489106
0.2260109322
0.006506714358
-0.2036000038
0.01450344376
0.2057589957
-0.01654946266
-0.1829621269
0.01764968316
0.1826698602
-0.01720007993
-0.1939009389
0.01134492733
0.1910359551
-0.008351518213
-0.002837188826
-0.231647542
0.2292586033
0.005243396805
-0.4684749724
-0.008231048399
0.470136336
0.006569684832
-0.4650397919
-0.005321182317
0.4657543755
0.004606598651
0.004146541769
0.9260009947
-0.003384934297
-0.00357868984
0.002327257636
0.922156758
0.0009986789397
0.9198442385
0.9187048154
-0.0006374174331
0.9140928378
-0.001151860923
0.9136293014
-0.001527025004
0.912744409
-0.0003200439904
0.9111073604
-0.001042000573
-0.4548388441
0.4545906888
-7.188869626e-05
-0.4533278504
-0.0001010814429
0.4530302749
0.000398656933
-0.4521018271
-0.001288156645
0.4520167397
0.0007399108874
0.0006326814611
-0.2508367007
0.003815851677
0.2530623235
-0.006127494013
-0.2807295772
0.0116171486
0.2769813175
-0.008047374056
-0.2671081641
0.008157312553
0.26531046
-0.006515453698
-0.2311099633
-0.004313761605
0.2241001866
0.01127005478
-0.210916175
-0.0313406732
0.1072466485
0.1015746162
0.01461058809
0.01882499539
-0.02336343745
-0.1087996276
0.1081961491
0.0239669159
-0.01910858053
-0.2469129492
0.03654633834
-0.01949988804
0.124043303
0.1249317764
-0.0175670922
-0.2179428476
0.2242319654
0.0113537063
-0.1860123906
-0.0009949679402
0.1902508028
-0.003076923907
-0.1873519656
0.007745068304
0.1861522832
-0.006380456437
0.0003897467328
-0.2192482038
0.2170265949
0.001895520204
-0.4718262724
-0.007266503503
0.4729940829
0.006098693054
-0.4669156571
-0.004697753345
0.4680619559
0.003551454617
0.002713035208
0.928125134
-0.002276293218
-0.002560881367
0.00138894522
0.923480848
0.0005665083158
0.9206666754
0.9192713237
-0.001040517956
0.9151333557
-0.00203020306
0.9146189865
-0.002828089161
0.9135422951
-0.001514377619
0.911844755
-0.002051106158
-0.4546028055
0.4546462678
-0.001557839898
-0.4529238639
0.001650993127
0.4528699227
-0.001597051935
-0.4515079044
0.001480323423
0.4523101143
-0.0007801069629
-0.001512353708
-0.2564155372
0.000977010979
0.2564735986
-0.001141911734
-0.2772300955
0.001172142747
0.2769931987
-0.001122804675
-0.2594616696
-0.0005551756594
0.2582779167
0.001589516937
-0.2120466849
-0.005911615574
0.2102419254
0.007698600132
-0.09542778097
-0.005147123261
0.09547442026
0.005100483964
-0.02691182501
-0.1356527767
0.1382673129
0.02429728877
-0.02519113184
-0.2447480713
0.2502752765
0.01970496937
-0.1968189911
-0.009474799266
0.1990241047
0.007432689547
-0.1859677408
-0.00385258303
0.1867498732
0.003254754234
0.001204374383
-0.2137249982
0.2126965371
-8.196557531e-05
-0.4745126828
-0.004679157787
0.4757658567
0.00342598398
-0.4689857677
-0.002540976183
0.4697609438
0.001765800023
0.0003407285237
0.9292292893
-0.0004031314178
-0.001041752322
-5.840338535e-05
0.9238799799
-9.745877312e-05
0.9207057308
0.9191738649
-0.00143183147
0.9165651872
-0.002789995269
0.9159771503
-0.00421329949
0.9149655993
-0.002475559481
0.9131069023
-0.00299988732
-0.4548718075
0.4550876625
-0.00269141448
-0.4529775773
0.002934307852
0.4532022255
-0.003158956085
-0.452768881
0.003359571715
0.4535382059
-0.00200051288
-0.002149769878
-0.2576636644
0.002958303833
0.2577240676
-0.003141336651
-0.2751590317
0.002879898837
0.2746111607
-0.002532166591
-0.2548465566
0.001046047806
0.2541796327
-0.0005290869865
-0.208785878
-0.0004476688415
0.2090078075
0.0002176625006
-0.09905975909
0.001435801925
0.09955168227
-0.001927725115
-0.0120855833
-0.1511938286
0.1518810401
0.01139837177
-0.01373668536
-0.2631315495
0.2655458963
0.01134628362
-0.206249969
-0.005472393345
0.2079377545
0.003947404736
-0.189226108
-0.0006450162894
0.1900069817
6.316680087e-05
0.0004586111146
-0.2122744243
0.2121674789
-0.0002433395752
-0.4771858939
-0.0008539603254
0.4782844967
-0.0002446425347
-0.4701674105
0.0007637611607
0.4703870908
-0.0009834413831
-0.002552743042
0.9287701864
0.001807795613
0.001204050251
-0.001832464261
0.9231597011
-0.0009622690331
0.9198355356
0.9182115959
-0.00178496344
0.9183501507
-0.003674795913
0.9178669828
-0.00548712075
0.9167779242
-0.003429419705
0.9150134307
-0.003964229431
-0.455490844
0.4558886994
-0.003827275075
-0.453495213
0.004276543332
0.4540041612
-0.004785491517
-0.4544173507
0.005257632802
0.4557462145
-0.003113641049
-0.003506152984
-0.257827995
0.00419375385
0.2579576899
-0.004458215843
-0.2732696344
0.004606495883
0.2729190897
-0.004467717773
-0.2528667802
0.00377732009
0.2525023299
-0.003566486014
-0.2101839332
0.003391396892
0.2105843779
-0.00379659808
-0.1017288146
0.002962639111
0.1019354752
-0.001571550011
-0.001597749789
0.004911124837
-0.150450727
0.1496066732
-0.004067070953
0.002515413554
-0.2656200979
0.2640264319
-0.0008952459217
-0.2095555359
-0.001128511632
0.2096666481
0.001186124083
-0.1923128851
-0.0004503608691
0.1929289291
3.869416119e-05
0.001201757107
-0.2138253406
0.2142933907
-0.001559656207
-0.478279198
0.004408717362
0.4776914421
-0.003820961485
-0.4701794118
0.003608177214
0.4704327661
-0.003861531519
-0.005748322918
0.9266642799
0.004303305169
0.003550924299
-0.003761629901
0.9211730081
-0.001899148991
0.9179730547
0.9163124469
-0.002224996948
0.9205751476
-0.004430151981
0.9200721378
-0.006755476626
0.9191032488
-0.004358337034
0.9174946109
-0.004878319781
-0.4564629527
0.4570330519
-0.004928436332
-0.4545748553
0.00562032062
0.4552012265
-0.006246691832
-0.4574539307
0.00696730257
0.4594790386
-0.004423442169
-0.004619745138
-0.2584789031
0.005412971172
0.2586909716
-0.005773646744
-0.2720711867
0.006274249145
0.2718459945
-0.006273060142
-0.2516332492
0.006050738924
0.2514023363
-0.005976219288
-0.2118712801
0.006027972449
0.2123340464
-0.006492610916
-0.1031265916
0.004049430194
0.1032550813
-0.002075371171
-0.002102548655
0.01445814958
-0.1418468356
0.1405960701
-0.01320738408
0.01376452578
-0.2550930919
0.2508314635
-0.009455877459
-0.2070620984
-0.0001085358947
0.2087569482
-0.00140848624
-0.1945173265
0.001230109382
0.1951273693
-0.001633200229
0.003469481423
-0.2175073735
0.2182566991
-0.00411905015
-0.4766514529
0.009350601609
0.475218454
-0.0079176027
-0.4704832556
0.006671374072
0.4693716498
-0.005559768266
-0.008698561923
0.9231854107
0.006359073074
0.005818358062
-0.005618912421
0.9180933586
-0.002755712369
0.9151098546
0.9135567345
-0.002628097488
0.9232032451
-0.005262162032
0.9227062024
-0.007998997543
0.9218400843
-0.005207822837
0.9202272651
-0.00552382888
-0.4577513337
0.4584553279
-0.005911817059
-0.4560232681
0.006721665404
0.4568840045
-0.007582401897
-0.4616237522
0.008509328276
0.4631736908
-0.005442822193
-0.004688684104
-0.2594434619
0.006673225871
0.2597588913
-0.00715245146
-0.2713121035
0.007957410543
0.2711741499
-0.008055698356
-0.2508340676
0.00804589928
0.2506541033
-0.008023747199
-0.2139265344
0.008160162919
0.2145553158
-0.008789129557
-0.1040816023
0.005268079763
0.1042080637
-0.002678160147
-0.002716381025
0.01795386409
-0.1320619971
0.1308231231
-0.01671499003
0.0179968309
-0.2384321024
0.2340457869
-0.01352971878
-0.2052265727
0.00818349153
0.2002184429
-0.002977719991
-0.1963994721
-0.0005538520433
0.1965817826
0.000571733181
0.005253506761
-0.2216085273
0.2226979496
-0.006264408878
-0.4734655256
0.01328975104
0.4714313602
-0.01125558568
-0.4681510518
0.009509387821
0.4666661826
-0.008024518613
-0.01127348647
0.9201681268
0.007455681814
0.006835088526
-0.007215035584
0.9140349077
-0.003494876999
0.9113896961
0.9100618576
-0.006677513627
0.9298807588
-0.01351573577
0.9295444245
-0.02042314794
0.9287474965
-0.006152839742
0.9275106822
-0.0215537253
-0.4593234583
0.4602045139
-0.007033895326
-0.4577736146
0.007986620966
0.4588417221
-0.009054728346
-0.4669835617
0.0100923569
0.4703362253
-0.00702313939
-0.006547175247
-0.2602170885
0.009665837951
0.2612530535
-0.01088488257
-0.2708035074
0.01001627867
0.2701719731
-0.009631903532
-0.250124663
0.008162182556
0.2513378439
-0.009534808564
-0.2168186927
0.009880126154
0.2176739105
-0.005329920786
-0.005405423136
-0.05275475373
0.003325179912
0.05280398197
-0.00337440814
-0.05799606149
0.006564596754
0.05751105282
-0.01279400347
0.006714415382
0.01658497218
-0.1234222093
0.2434142015
-0.02943046242
0.01622618483
-0.1233726868
-0.2231493014
0.01535589667
0.2173602409
-0.009446062386
-0.1960510669
0.004922784548
0.1956606223
-0.004311724317
-0.1985787786
0.00514822755
0.1995435311
-0.005919511187
0.008516691883
-0.2274305234
0.2281903369
-0.009232320454
-0.4690621877
0.0157345406
0.4667007692
-0.01337312212
-0.4651239245
0.01154480694
0.4634618677
-0.009882750082
-0.01322442554
0.9159505049
0.008951549132
0.008490498356
-0.008475591309
0.9092860735
-0.004156391278
0.9070704961
0.9059054663
-0.003116160044
0.9329969188
-0.006310096662
0.9327383612
-0.009664149641
0.9321015495
-0.006554291605
0.9311177382
-0.006716913985
-0.4630948621
0.4640232456
-0.007482675081
-0.4617101344
0.008513795455
0.462809028
-0.009612688998
-0.4736934289
0.01079699156
0.4723237296
-0.005041037818
-0.004530705473
-0.2625857532
0.004331282382
0.2620402566
-0.003977654937
-0.2703013783
0.003318611666
0.2701078407
-0.003374633236
-0.2493944307
0.004916035244
0.25034476
-0.006015182213
-0.2209231723
0.01115898836
0.2219412394
-0.006075711758
-0.006101343729
-0.05447899208
0.008071927915
0.1093559835
-0.05441638862
-0.004248352402
-0.004284178351
-0.1117179767
0.009069948305
0.1116452426
-0.01782327228
0.008826058143
0.02914322077
-0.2363917766
0.2331383172
-0.02588417639
-0.2083313257
0.009770622882
0.206561203
-0.007839032517
-0.1965306127
0.00566206437
0.1930475895
-0.001951753536
-0.2028710612
0.001980643044
0.2072134728
-0.006163353784
0.009995264934
-0.2323507811
0.2325843055
-0.0102223252
-0.46460395
0.01651491557
0.4627307843
-0.01464174978
-0.4617889034
0.01285714969
0.4598907928
-0.01095903907
-0.01278242187
0.910892682
0.008851871295
0.008988373558
-0.009243985468
0.9057476371
-0.004513039134
0.9023395497
0.9013924272
-0.00327591433
0.9362728332
-0.006630136233
0.9360925831
-0.01014326197
0.9356146753
-0.00688774815
0.9348703168
-0.007008092407
-0.4650397444
0.4660403082
-0.007888311989
-0.4639324677
0.008967803679
0.4650720758
-0.01010741171
-0.469345614
0.01132881001
0.4663290603
-0.004054651317
-0.00430942966
-0.2582925894
0.0005714346023
0.25638701
0.001172687613
-0.2685193799
-0.005387354068
0.2675294877
0.006142710356
-0.2545160633
-0.005342152149
0.2558360842
0.003853108366
-0.2290927713
0.004859289698
0.2333381663
-0.009139286295
-0.1123948029
0.01567532491
0.2237665844
-0.01521804385
-0.1118290626
-0.2259120314
0.02124921978
0.2265071575
-0.0218443459
-0.2218281093
0.01497307851
0.2183520345
-0.01143057507
-0.1998145975
0.004411787638
0.1989614537
-0.00335955428
-0.1924005918
0.003513031
0.193537246
-0.004414475116
-0.2114108119
0.008403662439
0.210584401
-0.007456178575
0.01219172732
-0.2325149072
0.2301198488
-0.009796668862
-0.4610870132
0.01794110863
0.4578108876
-0.01466498306
-0.4579947501
0.01306158932
0.4558755487
-0.01094238795
-0.0131439923
0.9059880894
0.009092586018
0.008955998921
-0.009294455858
0.9018981007
-0.004720625556
0.8977657195
0.8966718016
-0.003360040709
0.9396328739
-0.006792788214
0.9395253306
-0.01037113916
0.9391930262
-0.007053095633
0.9386706949
-0.007118421619
-0.4670639338
0.4680866915
-0.008075853323
-0.4662123544
0.009160740473
0.4673472107
-0.01029559674
-0.4652556116
0.01150237783
0.4664874439
-0.006338587936
-0.006395720159
-0.2490293781
0.00133833407
0.2461399152
0.001453499136
-0.262690992
-0.009250836948
0.2604302427
0.01131954476
-0.2578711933
-0.0147153283
0.2576644283
0.01474634911
-0.2425725885
-0.01162424853
0.2443315027
0.009774238913
-0.2263839814
-0.004066565562
0.2278600113
0.002573757335
-0.2231080888
-0.001185567031
0.2223052673
0.002025921461
-0.2114812095
-0.005951035709
0.210486191
0.007067106873
-0.198838082
-0.007971757476
0.1997311739
0.007275862484
-0.1990568241
-0.002418993682
0.2015648036
9.769178993e-05
-0.2170592131
0.007664213514
0.2196391734
-0.0101783093
0.01134859283
-0.2281034823
0.2274922705
-0.01073738097
-0.4569772019
0.01794061474
0.4542268097
-0.01519022247
-0.4529653688
0.01173955178
0.4513497576
-0.01012394062
-0.01222699237
0.8997074053
0.009494926282
0.009012750146
-0.006825783006
0.8964968913
-0.004752646723
0.8956925832
0.8919191549
-0.003374364787
0.9430072387
-0.006812560735
0.9429635266
-0.01037520249
0.942755668
-0.00706617734
0.9424227246
-0.007061054876
-0.4690927647
0.4700995239
-0.008072936619
-0.4684628996
0.009128890887
0.4695564313
-0.01022242254
-0.4677447879
0.01137253627
0.468959752
-0.006313480994
-0.006274019325
-0.2368685372
0.006909847383
0.2344376123
-0.004491777427
-0.252012207
-0.005211222644
0.2488223139
0.008285205673
-0.2542491931
-0.01586603308
0.2523117297
0.01766317003
-0.2460592233
-0.02067390709
0.2456542128
0.0209835698
-0.2313452776
-0.02071274101
0.232134239
0.01990127235
-0.2218791805
-0.01897855647
0.2221672792
0.01874372218
-0.2109891614
-0.01699842793
0.2121137157
0.01599594312
-0.2050563635
-0.01103990233
0.2075477578
0.008700278393
-0.2105739612
-5.823864459e-05
0.2138748585
-0.003139143769
-0.2263601936
0.01205628548
0.2260542344
-0.01174976321
0.01029779007
-0.2258808012
0.225399106
-0.009816094897
-0.4505159652
0.01668994618
0.4488020725
-0.01497605342
-0.4497703641
0.01333910408
0.4481860602
-0.01175480012
-0.01126567028
0.8926341736
0.0100345728
0.008304329197
-0.006349936394
0.8915811575
-0.00435013342
0.8936927802
0.8875690215
-0.003329826889
0.9463370656
-0.00671254841
0.9463462481
-0.01019424678
0.9462373663
-0.006945565781
0.946054102
-0.006880058415
-0.4710740672
0.472038966
-0.007910464541
-0.4706176376
0.008913869513
0.4716462446
-0.009942476517
-0.4701263295
0.01101100512
0.4712396007
-0.006095956334
-0.006028320009
-0.2348299198
0.006680575899
0.2351296366
-0.006980292639
-0.2390509226
0.006279933469
0.2359842453
-0.003234083194
-0.2450558408
-0.005501662039
0.2424284007
0.008059210477
-0.2424972972
-0.01407324575
0.2410442364
0.0154649561
-0.2332255385
-0.01784858263
0.2332089228
0.01784965909
-0.2237263763
-0.01648111993
0.2244035545
0.01584355347
-0.2172997404
-0.01154844907
0.2193642481
0.009561140389
-0.2161461566
-0.002096882783
0.2191071601
-0.0007943908652
-0.2236724444
0.009949329056
0.22535226
-0.01162156439
-0.224816189
0.01066127706
0.2244620971
-0.01030718523
0.009203651182
-0.2241377652
0.2237575635
-0.00882344945
-0.4472331392
0.01522790435
0.4458005732
-0.01379533839
-0.4467346204
0.01239001246
0.4453440537
-0.01099944579
-0.01396013284
0.88758922
0.009360927162
0.009644159345
-0.009167235152
0.8867882598
-0.001714775573
0.8862403207
0.8858542459
-0.003237591897
0.9495746575
-0.006516021536
0.9496246777
-0.009866207217
0.949587552
-0.006716994724
0.9495117965
-0.006606906931
-0.4729653238
0.4738745743
-0.007626245304
-0.4726347049
0.008563279906
0.4735851228
-0.009513697823
-0.4722970269
0.01048869948
0.4732978342
-0.005787744609
-0.005701762156
-0.2359696774
0.006305241161
0.2362307899
-0.006566353707
-0.2356062173
0.007352434304
0.235867625
-0.007613842007
-0.2351186672
0.008389337243
0.2351258057
-0.00839753437
-0.2364362697
0.004051567503
0.2350085469
-0.002636963348
-0.2323876643
-6.531595432e-05
0.2318972622
0.0005511088898
-0.2267772385
0.0006821669812
0.22764605
-0.001538607164
-0.2255141087
0.005644164977
0.2273501328
-0.007466619872
-0.2260942504
0.01086459051
0.2259679665
-0.01073830668
-0.2246182299
0.01022428509
0.2244069798
-0.01001303499
-0.2235391792
0.009284505228
0.2232710811
-0.009016407172
0.008160800468
-0.2227642793
0.2224595108
-0.00785603198
-0.444492383
0.01372135085
0.4432977021
-0.01252666992
-0.4440801864
0.01132914142
0.4428722991
-0.01012125414
-0.01297749961
0.883039275
0.00860504587
0.008922398709
-0.008568229941
0.8823789901
-0.00425465543
0.8819267462
0.8815995905
-0.003109378825
0.9526840363
-0.006247637079
0.952762936
-0.009431745753
0.9527716607
-0.006412050715
0.9527638207
-0.006271719289
-0.4747419768
0.4755877399
-0.00725781384
-0.4744921853
0.008121936919
0.4753595504
-0.008989302054
-0.4742431746
0.009868505666
0.4751342875
-0.005425463057
-0.005334155484
-0.2369580686
0.005878775629
0.2371832434
-0.006103950438
-0.2365808189
0.006768058617
0.2367967313
-0.006983970937
-0.2357986738
0.00760832409
0.2359972536
-0.00780690388
-0.2346111162
0.008365318353
0.2347819692
-0.008536171327
-0.2305570349
0.008890980728
0.2302667382
-0.008600684003
-0.2289917644
0.0093794863
0.2291194164
-0.00950713837
-0.2279336736
0.009528735134
0.2279088554
-0.009503916975
-0.2256340237
0.009314384982
0.2255346703
-0.009215031603
-0.2238540959
0.008819256496
0.2236921938
-0.008657354346
-0.2225621548
0.008095291698
0.2223530599
-0.007886196903
0.007208817656
-0.2216675004
0.2214218232
-0.006963140479
-0.4422037356
0.01227591924
0.4412008381
-0.01127302174
-0.4417787191
0.0102524305
0.4407326177
-0.009206329064
-0.01191280923
0.8789734724
0.007828013958
0.008150597797
-0.00790296896
0.8783691499
-0.003935116616
0.8779588938
0.8776644739
-0.002956716359
0.9556407527
-0.005931399089
0.9557376187
-0.008928787034
0.9557690486
-0.006058655978
0.9557943499
-0.005900660293
-0.4763909595
0.4771710288
-0.006838725359
-0.4761835243
0.007628960982
0.4769688724
-0.00841430913
-0.4759717374
0.009201007315
0.4767581512
-0.005034707176
-0.004952713923
-0.237809295
0.005435214325
0.2380030625
-0.005628981834
-0.237386151
0.006189817328
0.2375648958
-0.006368562109
-0.2365278876
0.006874785073
0.2366855981
-0.007032495518
-0.2352315329
0.007468739959
0.2353628946
-0.007600101715
-0.2294371693
0.007770027942
0.229177404
-0.007510262688
-0.2294050571
0.008213823743
0.2294742343
-0.008283000982
-0.2278247023
0.00826069745
0.2277941796
-0.008230174711
-0.2252635357
0.008058531642
0.2251806046
-0.007975600491
-0.2232592401
0.007655163135
0.223129797
-0.007525720068
-0.221792291
0.007076690843
0.2216245204
-0.006908920202
0.006360500377
-0.2207806657
0.2205793421
-0.006159176728
-0.4402797861
0.01093690089
0.439432835
-0.01008994971
-0.4397869888
0.009216925708
0.4388803648
-0.00831030172
-0.01083784627
0.8753582372
0.007069958259
0.007383123198
-0.007218523398
0.874749827
-0.003602689482
0.8743430599
0.8740617844
-0.002789220613
0.9584299733
-0.005586948223
0.9585353463
-0.008387798504
0.9585698989
-0.005676942421
0.9585983671
-0.005514873282
-0.4779087658
0.4786253007
-0.006393477321
-0.4777129031
0.007112530405
0.4784208538
-0.007820481087
-0.4774962068
0.008522391805
0.4781887784
-0.004642750698
-0.00457221273
-0.2385416481
0.004996412355
0.2387084524
-0.005163216738
-0.2380541835
0.005638217447
0.2382030024
-0.005787036315
-0.2371100971
0.006201466519
0.2372372225
-0.006328591989
-0.2357095405
0.006675993304
0.2358107884
-0.006777241281
-0.2284542956
0.006820996209
0.2282327513
-0.006599451835
-0.2296263162
0.007228026558
0.2296622966
-0.007264007
-0.2276971913
0.007214693811
0.2276634305
-0.007180932976
-0.2249495772
0.007021827625
0.2248776748
-0.006949925205
-0.2227774512
0.006680556744
0.2226703743
-0.006573479809
-0.2211687285
0.006204021161
0.2210306893
-0.006065982044
0.005612643665
-0.2200506468
0.219882911
-0.005444907881
-0.4386521359
0.009721719504
0.4379312929
-0.009000876529
-0.438060919
0.008250046569
0.4372731065
-0.00746223406
-0.009797470878
0.8721518008
0.006355864584
0.006648042762
-0.006547098418
0.8714994545
-0.003274035597
0.8710699971
0.8707877488
-0.002615879352
0.9610458526
-0.005232397058
0.961151864
-0.007836600175
0.961174102
-0.005290222013
0.9611821729
-0.005130183925
-0.4792993622
0.4799551637
-0.005946023515
-0.4790908229
0.006598600654
0.4797279877
-0.007235765457
-0.478838881
0.007861780527
0.4794493446
-0.004266399186
-0.004205844963
-0.2391726711
0.004578956223
0.239316739
-0.004723024088
-0.2386119876
0.005127561861
0.2387368988
-0.005252473035
-0.2375822608
0.005595817984
0.237686485
-0.005700042107
-0.2360770912
0.005981201199
0.2361544528
-0.006058562774
-0.2276282401
0.006018181454
0.2274470107
-0.005836952068
-0.2297377674
0.006393935511
0.2297540729
-0.00641024101
-0.2275590543
0.006343331173
0.2275234795
-0.006307756311
-0.2246745695
0.006158333966
0.2246105981
-0.006094362589
-0.2223747121
0.00586144169
0.2222836754
-0.005770404969
-0.2206514203
0.005458792151
0.2205353333
-0.00534270508
0.004960848675
-0.2194395499
0.2192976013
-0.004818900081
-0.4372637838
0.008639241072
0.4366446777
-0.008020134993
-0.4365602623
0.007370097412
0.4358727656
-0.006682600693
-0.008822688203
0.8693087971
0.005699409442
0.005966282403
-0.005911427027
0.8685881934
-0.002961043875
0.868119614
0.8678267049
-0.002443268009
0.9634891207
-0.004880842243
0.9635894383
-0.007294430572
0.9635876903
-0.004911409546
0.963557576
-0.00475842414
-0.4805695866
0.4811688324
-0.005510655413
-0.480330887
0.006102551947
0.4809045293
-0.006676194233
-0.480022974
0.007235200323
0.4805621275
-0.003914176927
-0.003860176887
-0.2397184414
0.004190792038
0.239843477
-0.004315827642
-0.2390816825
0.004662714059
0.2391875056
-0.004768537067
-0.2379717588
0.005056741409
0.2380586846
-0.0051436672
-0.2363564976
0.005373767938
0.2364146856
-0.005431955991
-0.226963334
0.005336838386
0.2268216423
-0.005195146705
-0.2297825658
0.005685382902
0.2297863454
-0.005689162442
-0.227415176
0.005610777356
0.2273787053
-0.005574306612
-0.2244281687
0.005432847684
0.2243702105
-0.005374889505
-0.2220294999
0.005169177663
0.221950409
-0.005090086753
-0.2202134005
0.004821874161
0.2201139606
-0.004722434351
0.004395524382
-0.218920182
0.2187984018
-0.004273744223
-0.4360687851
0.007684078213
0.4355322904
-0.007147583523
-0.4352496859
0.006580961251
0.4346468144
-0.005978089713
-0.007928997782
0.8667850197
0.005106665881
0.005346109292
-0.005323834996
0.8659830306
-0.002670358475
0.8654661374
0.8651563465
-0.002276627702
0.9657657484
-0.004542613004
0.9658554236
-0.006776153816
0.9658212311
-0.00455038001
0.9657401417
-0.004408339483
-0.4817285959
0.4822761654
-0.005097949532
-0.4814477183
0.005635345358
0.4819651431
-0.006152770207
-0.4810700055
0.006653527797
0.4815489569
-0.003590813359
-0.00354166586
-0.2401927812
0.003834405256
0.2403018128
-0.003943436912
-0.2394809226
0.004242994538
0.239571453
-0.004333524942
-0.2382983451
0.004578659237
0.2383719022
-0.004652216322
-0.2365648974
0.004841670506
0.2366075411
-0.004884314232
-0.2264526104
0.004755199399
0.2263476249
-0.004650213918
-0.2297841
0.005079378325
0.2297794845
-0.005074762868
-0.2272687383
0.004989019381
0.2272319893
-0.004952270431
-0.22420384
0.004817707752
0.2241506521
-0.0047645198
-0.2217277077
0.004579951261
0.2216578354
-0.004510078971
-0.2198361075
0.004275437101
0.2197496281
-0.004188957773
0.003905252841
-0.2184728835
0.2183671792
-0.003799548515
-0.435031068
0.006847914298
0.4345621521
-0.006378998418
-0.4340992932
0.005881662148
0.4335678079
-0.00535017686
-0.007123981553
0.8645390924
0.004579363539
0.004790545353
-0.004791135584
0.8636501846