/*--------------------------------*- C++ -*----------------------------------*\
| =========                 |                                                 |
| \\      /  F ield         | OpenFOAM: The Open Source CFD Toolbox           |
|  \\    /   O peration     | Version:  v1912                                 |
|   \\  /    A nd           | Website:  www.openfoam.com                      |
|    \\/     M anipulation  |                                                 |
\*---------------------------------------------------------------------------*/
FoamFile
{
    version     2.0;
    format      ascii;
    class       pointVectorField;
    location    "3";
    object      pointDisplacement;
}
// * * * * * * * * * * * * * * * * * * * * * * * * * * * * * * * * * * * * * //

dimensions      [0 1 0 0 0 0 0];


internalField   nonuniform List<vector> 
26316
(
(0 0 0)
(0 0 0)
(0 0 0)
(0 0 0)
(0 0 0)
(0 0 0)
(0 0 0)
(0 0 0)
(0 0 0)
(0 0 0)
(0 0 0)
(0 0 0)
(0 0 0)
(0 0 0)
(0 0 0)
(0 0 0)
(0 0 0)
(0 0 0)
(0 0 0)
(0 0 0)
(0 0 0)
(0 0 0)
(0 0 0)
(0 0 0)
(0 0 0)
(0 0 0)
(0 0 0)
(0 0 0)
(0 0 0)
(0 0 0)
(0 0 0)
(0 0 0)
(0 0 0)
(0 0 0)
(0 0 0)
(0 0 0)
(0 0 0)
(0 0 0)
(0 0 0)
(0 0 0)
(0 0 0)
(0 0 0)
(0 0 0)
(0 0 0)
(0 0 0)
(0 0 0)
(0 0 0)
(0 0 0)
(0 0 0)
(0 0 0)
(0 0 0)
(0 0 0)
(0 0 0)
(0 0 0)
(0 0 0)
(0 0 0)
(0 0 0)
(0 0 0)
(0 0 0)
(0 0 0)
(0 0 0)
(0 0 0)
(0 0 0)
(0 0 0)
(0 0 0)
(0 0 0)
(0 0 0)
(0 0 0)
(0 0 0)
(0 0 0)
(0 0 0)
(0 0 0)
(0 0 0)
(0 0 0)
(0 0 0)
(0 0 0)
(0 0 0)
(0 0 0)
(0 0 0)
(0 0 0)
(0 0 0)
(0 0 0)
(0 0 0)
(0 0 0)
(0 0 0)
(0 0 0)
(0 0 0)
(0 0 0)
(0 0 0)
(0 0 0)
(0 0 0)
(0 0 0)
(0 0 0)
(0 0 0)
(0 0 0)
(0 0 0)
(0 0 0)
(0 0 0)
(0 0 0)
(0 0 0)
(0 0 0)
(0 0 0)
(0 0 0)
(0 0 0)
(0 0 0)
(0 0 0)
(0 0 0)
(0 0 0)
(0 0 0)
(0 0 0)
(0 0 0)
(0 0 0)
(0 0 0)
(0 0 0)
(0 0 0)
(0 0 0)
(0 0 0)
(0 0 0)
(0 0 0)
(-3.543035207e-07 1.230351523e-05 2.775557562e-17)
(0 0 0)
(0 0 0)
(-1.958390219e-07 0.000137818709 3.330669074e-16)
(9.02337247e-07 0.0001171543398 2.91433544e-16)
(0 0 0)
(0 0 0)
(0 0 0)
(0 0 0)
(0 0 0)
(0 0 0)
(0 0 0)
(0 0 0)
(0 0 0)
(0 0 0)
(0 0 0)
(0 0 0)
(0 0 0)
(0 0 0)
(0 0 0)
(0 0 0)
(0 0 0)
(0 0 0)
(0 0 0)
(0 0 0)
(0 0 0)
(0 0 0)
(0 0 0)
(0 0 0)
(0 0 0)
(0 0 0)
(0 0 0)
(0 0 0)
(0 0 0)
(0 0 0)
(0 0 0)
(0 0 0)
(0 0 0)
(0 0 0)
(0 0 0)
(0 0 0)
(0 0 0)
(0 0 0)
(0 0 0)
(0 0 0)
(0 0 0)
(0 0 0)
(0 0 0)
(0 0 0)
(0 0 0)
(0 0 0)
(0 0 0)
(0 0 0)
(0 0 0)
(0 0 0)
(0 0 0)
(0 0 0)
(0 0 0)
(0 0 0)
(0 0 0)
(0 0 0)
(0 0 0)
(0 0 0)
(0 0 0)
(0 0 0)
(0 0 0)
(-2.207309653e-05 0.0001921997972 4.857225733e-16)
(-0.0001270371737 0.001205583864 3.080868893e-15)
(-1.661076598e-06 1.58991783e-05 4.163336342e-17)
(-0.0002412425692 0.003161331137 7.993605777e-15)
(-0.0005992108559 0.007793769115 1.990074772e-14)
(-0.0007112519783 0.01055661388 2.695066392e-14)
(-0.0003315959057 0.004956196778 1.253164239e-14)
(-0.000404059927 0.01044360143 2.642330799e-14)
(-0.0007088560035 0.01823815669 4.65599781e-14)
(-0.0005920702951 0.02015275792 5.145883719e-14)
(-0.0003481633346 0.0118850751 3.007316618e-14)
(-1.611434565e-05 0.01390057529 3.518019209e-14)
(-2.243294907e-05 0.02278183299 5.81618087e-14)
(0.0001901215626 0.02248835067 5.741240816e-14)
(0.0001120976365 0.01367303774 3.461120279e-14)
(0.0003796040728 0.01048143639 2.653433029e-14)
(0.0006712497294 0.01829016668 4.669875597e-14)
(0.0007366385976 0.01598089864 4.080069615e-14)
(0.0003995844084 0.008774125768 2.220446049e-14)
(0.0002353297306 0.00320151815 8.10462808e-15)
(0.0005836906626 0.007860778225 2.006728117e-14)
(0.0004392750184 0.005251917979 1.340594302e-14)
(0.0001375043223 0.001660003209 4.204969706e-15)
(0 0 0)
(2.315502447e-05 0.0002069858714 5.273559367e-16)
(0 0 0)
(0 0 0)
(0 0 0)
(0 0 0)
(0 0 0)
(0 0 0)
(0 0 0)
(0 0 0)
(0 0 0)
(0 0 0)
(0 0 0)
(0 0 0)
(0 0 0)
(0 0 0)
(0 0 0)
(0 0 0)
(0 0 0)
(0 0 0)
(0 0 0)
(0 0 0)
(0 0 0)
(0 0 0)
(0 0 0)
(0 0 0)
(0 0 0)
(0 0 0)
(0 0 0)
(0 0 0)
(0 0 0)
(0 0 0)
(0 0 0)
(0 0 0)
(0 0 0)
(0 0 0)
(0 0 0)
(0 0 0)
(0 0 0)
(0 0 0)
(0 0 0)
(0 0 0)
(0 0 0)
(0 0 0)
(0 0 0)
(0 0 0)
(0 0 0)
(0 0 0)
(-6.164698029e-05 0.0003895956482 1.026956298e-15)
(-0.0003367678364 0.002269368215 5.995204333e-15)
(-7.97708836e-05 0.0005423438493 1.415534356e-15)
(-0.001138317579 0.00966563016 2.534084054e-14)
(-0.001820675801 0.01533396239 4.057865155e-14)
(-0.002322997068 0.02134790591 5.648259638e-14)
(-0.001565097378 0.01449685618 3.801126081e-14)
(-0.002434448128 0.03101059962 8.129608098e-14)
(-0.003220914912 0.04074766767 1.077887779e-13)
(-0.003240621322 0.04687536274 1.240119119e-13)
(-0.002502105418 0.03642615932 9.550693569e-14)
(-0.00195957421 0.04984630061 1.306871278e-13)
(-0.002435747656 0.06170777934 1.63244418e-13)
(-0.001927115972 0.06506583806 1.7214008e-13)
(-0.001564398306 0.05294225172 1.388056337e-13)
(-2.067788931e-05 0.05706435362 1.496303081e-13)
(-1.133973279e-05 0.06949804091 1.83908444e-13)
(0.0006637554924 0.06901276344 1.826316876e-13)
(0.0005282089509 0.05661165952 1.48464574e-13)
(0.00191252713 0.04992872412 1.309508058e-13)
(0.002400861386 0.06179283708 1.635636071e-13)
(0.002797142387 0.05759687124 1.524613769e-13)
(0.002209071398 0.0460886181 1.208894096e-13)
(0.002390718223 0.03115412712 8.171241461e-14)
(0.003175122968 0.04090867961 1.083022561e-13)
(0.003008794168 0.03447327369 9.126033262e-14)
(0.00220590466 0.02555308287 6.702971511e-14)
(0.0011266539 0.00978792797 2.567390744e-14)
(0.00180134484 0.01549265042 4.100886297e-14)
(0.001273767265 0.01011311853 2.677025268e-14)
(0.0007073543248 0.005671466314 1.487698853e-14)
(0 0 0)
(6.119884976e-05 0.0003938716459 1.040834086e-15)
(0 0 0)
(0 0 0)
(0 0 0)
(0 0 0)
(0 0 0)
(0 0 0)
(0 0 0)
(0 0 0)
(0 0 0)
(0 0 0)
(0 0 0)
(0 0 0)
(0 0 0)
(0 0 0)
(0 0 0)
(0 0 0)
(0 0 0)
(0 0 0)
(0 0 0)
(0 0 0)
(0 0 0)
(0 0 0)
(0 0 0)
(0 0 0)
(0 0 0)
(0 0 0)
(0 0 0)
(0 0 0)
(0 0 0)
(0 0 0)
(0 0 0)
(0 0 0)
(0 0 0)
(0 0 0)
(0 0 0)
(0 0 0)
(0 0 0)
(0 0 0)
(0 0 0)
(-2.652258775e-05 0.0001356290774 3.747002708e-16)
(0 0 0)
(-0.001128986001 0.006941857839 1.890154699e-14)
(-0.001678031675 0.01020672762 2.803313137e-14)
(-0.002626105205 0.01705707498 4.685141164e-14)
(-0.001928193225 0.01265122221 3.441691376e-14)
(-0.004408023517 0.03621524169 9.850453786e-14)
(-0.005349754137 0.04357549008 1.196404087e-13)
(-0.00598315269 0.05321734341 1.460914723e-13)
(-0.00503321724 0.04514876523 1.227906665e-13)
(-0.005732001287 0.07093092289 1.92873495e-13)
(-0.006535070702 0.08021197515 2.201572258e-13)
(-0.006247411366 0.08776245936 2.408906408e-13)
(-0.005534045766 0.07836979259 2.131073096e-13)
(-0.003817986313 0.09513434161 2.587235981e-13)
(-0.004215979029 0.1042580425 2.862154957e-13)
(-0.003253005496 0.1076237363 2.95485858e-13)
(-0.002961256163 0.09867918549 2.683964162e-13)
(2.689993343e-05 0.1031945306 2.807615251e-13)
(3.57264299e-05 0.1118204459 3.071154442e-13)
(0.001166418408 0.1113665568 3.059080766e-13)
(0.001059745634 0.102704011 2.794570131e-13)
(0.003845529069 0.0951952476 2.591121762e-13)
(0.004261083963 0.1042991369 2.866040738e-13)
(0.005090149166 0.09989071924 2.745165206e-13)
(0.004566869193 0.09063291395 2.467193116e-13)
(0.005706855077 0.07109522447 1.935673843e-13)
(0.006521126289 0.0803093604 2.207539707e-13)
(0.006561597665 0.07192139262 1.977029651e-13)
(0.005679203866 0.0629640925 1.714323128e-13)
(0.004351652726 0.03618758705 9.851841565e-14)
(0.005421199395 0.04445146848 1.222216772e-13)
(0.004676396152 0.03538795975 9.731104811e-14)
(0.003707762658 0.02840555711 7.734091145e-14)
(0.001286795714 0.008014478029 2.181588243e-14)
(0.001922837661 0.01185437291 3.258504577e-14)
(0.001085319181 0.006300982408 1.731947918e-14)
(0.0006202814129 0.003637373137 9.908740495e-15)
(0 0 0)
(0 0 0)
(0 0 0)
(0 0 0)
(0 0 0)
(0 0 0)
(0 0 0)
(0 0 0)
(0 0 0)
(0 0 0)
(0 0 0)
(0 0 0)
(0 0 0)
(0 0 0)
(0 0 0)
(0 0 0)
(0 0 0)
(0 0 0)
(0 0 0)
(0 0 0)
(0 0 0)
(0 0 0)
(0 0 0)
(0 0 0)
(0 0 0)
(0 0 0)
(0 0 0)
(0 0 0)
(0 0 0)
(0 0 0)
(0 0 0)
(0 0 0)
(0 0 0)
(0 0 0)
(0 0 0)
(-0.0001225859535 0.0005785207317 1.637578961e-15)
(-0.000278780857 0.001302601471 3.719247132e-15)
(-0.0009902402603 0.00486858158 1.390554338e-14)
(-0.0006657227181 0.00330563367 9.353628982e-15)
(-0.003914136363 0.02306827334 6.525335827e-14)
(-0.00463065311 0.02702534467 7.718825579e-14)
(-0.005970839728 0.0371718493 1.061650767e-13)
(-0.005176348749 0.0325427234 9.203748874e-14)
(-0.008182186633 0.06438968284 1.819933093e-13)
(-0.009036190803 0.07034413477 2.008115896e-13)
(-0.009529378933 0.0809481165 2.310512892e-13)
(-0.00871082793 0.07486530564 2.115668751e-13)
(-0.008631077253 0.1026630528 2.89990254e-13)
(-0.009162914682 0.1075322014 3.067684995e-13)
(-0.008468708944 0.1138281783 3.247124791e-13)
(-0.008005862836 0.1089954543 3.078926003e-13)
(-0.005074641809 0.1217416227 3.439609708e-13)
(-0.00524082362 0.1238900526 3.534811333e-13)
(-0.00395566485 0.1250571447 3.568534357e-13)
(-0.00385720796 0.1236964415 3.495259637e-13)
(2.612217553e-05 0.1256103365 3.550770789e-13)
(1.018457459e-05 0.1256709216 3.587408148e-13)
(0.001338529131 0.1256340528 3.586853037e-13)
(0.001337782856 0.1254197959 3.545913563e-13)
(0.005155361966 0.1218573808 3.446826158e-13)
(0.005299618011 0.1239105267 3.539668558e-13)
(0.00650574196 0.1218451428 3.481381849e-13)
(0.006285787896 0.1189662244 3.365641099e-13)
(0.008662179051 0.1026763765 2.906286323e-13)
(0.009211912301 0.1076556687 3.078370892e-13)
(0.009670754069 0.1005145007 2.874922522e-13)
(0.009001489467 0.09470184848 2.681327382e-13)
(0.008339777995 0.06608923186 1.871697242e-13)
(0.009189904274 0.07207000153 2.061545379e-13)
(0.008423884669 0.06108667322 1.747213485e-13)
(0.007556588044 0.05537246102 1.568051244e-13)
(0.004122203908 0.02464004389 6.974976152e-14)
(0.004858403356 0.02874057 8.217038161e-14)
(0.0035038961 0.01952621218 5.581646256e-14)
(0.002871039468 0.01616615087 4.57550664e-14)
(0.0001896303895 0.0009086774673 2.581268532e-15)
(0.0003257660002 0.001544923419 4.413136523e-15)
(8.27026302e-06 3.735315673e-05 1.110223025e-16)
(0 0 0)
(0 0 0)
(0 0 0)
(0 0 0)
(0 0 0)
(0 0 0)
(0 0 0)
(0 0 0)
(0 0 0)
(0 0 0)
(0 0 0)
(0 0 0)
(0 0 0)
(0 0 0)
(0 0 0)
(0 0 0)
(0 0 0)
(0 0 0)
(0 0 0)
(0 0 0)
(0 0 0)
(0 0 0)
(0 0 0)
(0 0 0)
(0 0 0)
(0 0 0)
(0 0 0)
(0 0 0)
(0 0 0)
(-1.166772516e-05 4.711889181e-05 1.387778781e-16)
(-3.183799717e-07 1.299437578e-06 0)
(0 0 0)
(-0.0008752372128 0.003966664416 1.168509733e-14)
(-0.001104698435 0.004955049209 1.473821065e-14)
(-0.002292024214 0.01081839305 3.219646771e-14)
(-0.001955470981 0.009325850684 2.747801986e-14)
(-0.006353570333 0.03596643596 1.058597654e-13)
(-0.006915367611 0.03873907282 1.151995166e-13)
(-0.008402022115 0.050197313 1.492556079e-13)
(-0.007961283474 0.04807391531 1.414701689e-13)
(-0.01101768973 0.08311590081 2.444988656e-13)
(-0.01146947467 0.08557775401 2.543243394e-13)
(-0.01177710868 0.0957931381 2.846750613e-13)
(-0.01136967187 0.09351720906 2.750855099e-13)
(-0.01027633575 0.1158149776 3.406580573e-13)
(-0.01048384363 0.1166904005 3.467920395e-13)
(-0.009438342947 0.119710739 3.55784846e-13)
(-0.009315073747 0.1197686348 3.522737657e-13)
(-0.005451748766 0.1219915067 0)
(-0.005523307169 0.1207040813 0)
(-0.004853982589 0.1207059157 0)
(-0.004148272506 0.1207363307 0)
(-0.004106925174 0.1213735475 0)
(-0.004091804776 0.1219956781 0)
(-4.49041907e-05 0.1219623001 0)
(-5.390967527e-05 0.1213435854 0)
(0.0006239235828 0.1213342619 0)
(0.0006292572 0.1219529718 0)
(0.005404942666 0.12183226 0)
(0.005415923212 0.1211965155 0)
(0.005431567979 0.1205508561 0)
(0.006105568772 0.1205216038 0)
(0.006769959616 0.1205047419 0)
(0.006759192912 0.1217812531 0)
(0.01027701225 0.1163418877 3.430172812e-13)
(0.01044241975 0.1171102491 3.488598299e-13)
(0.01125321397 0.1123996824 3.348710198e-13)
(0.01100451583 0.1109844793 3.272659921e-13)
(0.01116307345 0.08487862453 2.503136587e-13)
(0.01156795404 0.08703080429 2.593619763e-13)
(0.01099125016 0.07642860825 2.277622535e-13)
(0.01049081782 0.07373187942 2.174371794e-13)
(0.006784419928 0.03887183524 1.146166495e-13)
(0.007420034292 0.04206808028 1.253303017e-13)
(0.005849163151 0.03124135923 9.306444504e-14)
(0.00526802557 0.02843519924 8.382183836e-14)
(0.001174072774 0.005397150298 1.590394483e-14)
(0.001467517151 0.006675744065 1.987299214e-14)
(0.0005258214297 0.00227878686 6.786238238e-15)
(0.0003577677285 0.001566769449 4.62130334e-15)
(0 0 0)
(0 0 0)
(0 0 0)
(0 0 0)
(0 0 0)
(0 0 0)
(0 0 0)
(0 0 0)
(0 0 0)
(0 0 0)
(0 0 0)
(0 0 0)
(0 0 0)
(0 0 0)
(0 0 0)
(0 0 0)
(0 0 0)
(0 0 0)
(0 0 0)
(0 0 0)
(0 0 0)
(0 0 0)
(0 0 0)
(0 0 0)
(0 0 0)
(0 0 0)
(0 0 0)
(0 0 0)
(-0.0001051325685 0.0004066167489 1.276756478e-15)
(-5.99120036e-05 0.0002342681727 7.21644966e-16)
(-4.901324066e-05 0.0001937277121 5.967448757e-16)
(-0.001587267909 0.006894455534 2.117750419e-14)
(-0.001646131059 0.007072701088 2.195466031e-14)
(-0.00304809122 0.01377959098 4.277134202e-14)
(-0.002967693106 0.01356357828 4.1661119e-14)
(-0.007986661672 0.04329790336 1.32893696e-13)
(-0.008113023862 0.04349685225 1.349476086e-13)
(-0.009661284708 0.05522178761 1.712796571e-13)
(-0.009527174784 0.05506630244 1.689620666e-13)
(-0.01237783751 0.08922028869 2.736699756e-13)
(-0.01250060776 0.08907443873 2.761679774e-13)
(-0.01266918796 0.09833451854 3.048672426e-13)
(-0.01256030441 0.09863705183 3.025357742e-13)
(-0.01079321432 0.1156985404 3.549105454e-13)
(-0.01083843874 0.1147358725 3.557987238e-13)
(-0.009606718801 0.1156763758 0)
(-0.009586691668 0.1169343224 3.587546926e-13)
(-0.005623126067 0.1168931434 0)
(-0.005636077683 0.1162547768 0)
(-0.004975870059 0.116249045 0)
(-0.004962990918 0.1168864068 0)
(0.005420494828 0.1167522062 0)
(0.005415103688 0.1161199241 0)
(0.006075044356 0.1161077577 0)
(0.006081116902 0.1167390939 0)
(0.01065493809 0.1160742483 3.569922136e-13)
(0.01066358097 0.1151059141 3.578526364e-13)
(0.01173671331 0.1127483905 3.505945534e-13)
(0.01168617343 0.1133233541 3.485961519e-13)
(0.01269941774 0.09268993501 2.851746617e-13)
(0.01285403766 0.09289108434 2.888939088e-13)
(0.01241627882 0.08289755133 2.577937863e-13)
(0.01223878693 0.08254110002 2.539357613e-13)
(0.008711998886 0.04786829416 1.472016953e-13)
(0.008909296748 0.04844294197 1.505878755e-13)
(0.007236652272 0.03705653056 1.151856388e-13)
(0.007050160603 0.03648535707 1.121741589e-13)
(0.002129234542 0.009381526268 2.882416528e-14)
(0.002404428908 0.01047966009 3.25572902e-14)
(0.0011468471 0.004761991923 1.47937218e-14)
(0.0009441039085 0.003962957678 1.217081991e-14)
(0 0 0)
(0 0 0)
(0 0 0)
(0 0 0)
(0 0 0)
(0 0 0)
(0 0 0)
(0 0 0)
(0 0 0)
(0 0 0)
(0 0 0)
(0 0 0)
(0 0 0)
(0 0 0)
(0 0 0)
(0 0 0)
(0 0 0)
(0 0 0)
(0 0 0)
(0 0 0)
(0 0 0)
(0 0 0)
(0 0 0)
(0 0 0)
(0 0 0)
(0 0 0)
(0 0 0)
(0 0 0)
(-0.0001725807334 0.0006382766234 2.095545959e-15)
(-0.0001558751118 0.0005830804435 1.90125693e-15)
(-0.0001367468826 0.0005173117523 1.665334537e-15)
(-0.001955808268 0.008128819819 2.609024108e-14)
(-0.002022343582 0.008311492988 2.69784195e-14)
(-0.003526764584 0.01524930832 4.947431353e-14)
(-0.003443603926 0.01505844248 4.830857936e-14)
(-0.008615969707 0.04466051147 1.431910146e-13)
(-0.008718761242 0.04467766098 1.448563491e-13)
(-0.01025155656 0.05598154327 1.814659534e-13)
(-0.01015148747 0.05608074631 1.797589855e-13)
(-0.01285279085 0.08840581393 2.832734047e-13)
(-0.01292576831 0.08784888519 2.846750613e-13)
(-0.01301646656 0.09629658818 3.120420589e-13)
(-0.01295612676 0.09702107102 3.108763247e-13)
(-0.01093181864 0.1114384556 3.571726248e-13)
(-0.01095478014 0.1102623023 3.573807916e-13)
(-0.009675910016 0.1106664155 0)
(-0.009659439181 0.1119157997 0)
(-0.005702333638 0.1118595092 0)
(-0.005710951781 0.1112343882 0)
(-0.005052446343 0.1112251129 0)
(-0.00504374133 0.1118502326 0)
(0.005362422054 0.1117080236 0)
(0.00535346109 0.1110792293 0)
(0.006011841476 0.1110693186 0)
(0.006020913654 0.1116977927 0)
(0.01063446511 0.1116110176 3.587130593e-13)
(0.01061605499 0.110369698 3.587408148e-13)
(0.01179889626 0.1090842788 3.546329896e-13)
(0.01180022644 0.1101554387 3.540778781e-13)
(0.01325076822 0.09289598876 2.986638714e-13)
(0.01331781936 0.09241515905 3.004957394e-13)
(0.01301031609 0.0833528755 2.710193181e-13)
(0.01291960297 0.08363725434 2.688821388e-13)
(0.009617091226 0.05064346237 1.627448176e-13)
(0.009757600585 0.05082968962 1.652011861e-13)
(0.008099435804 0.03972132803 1.290634266e-13)
(0.00795374721 0.03943536777 1.267042027e-13)
(0.002757311169 0.01163184931 3.735900478e-14)
(0.002869475281 0.01197097915 3.887168365e-14)
(0.001479800252 0.005880607099 1.909583602e-14)
(0.00139504612 0.005606077604 1.799949079e-14)
(0 0 0)
(0 0 0)
(0 0 0)
(0 0 0)
(0 0 0)
(0 0 0)
(0 0 0)
(0 0 0)
(0 0 0)
(0 0 0)
(0 0 0)
(0 0 0)
(0 0 0)
(0 0 0)
(0 0 0)
(0 0 0)
(0 0 0)
(0 0 0)
(0 0 0)
(0 0 0)
(0 0 0)
(0 0 0)
(0 0 0)
(0 0 0)
(0 0 0)
(0 0 0)
(0 0 0)
(0 0 0)
(-0.0002545785467 0.0008985755372 3.094746681e-15)
(-0.0002295199809 0.0008197982213 2.789435349e-15)
(-0.0002072088942 0.0007488573718 2.511879593e-15)
(-0.002187943473 0.00868780666 2.918498776e-14)
(-0.002255022133 0.00884963718 3.007316618e-14)
(-0.003814633443 0.01574742158 5.351274979e-14)
(-0.003732189685 0.01558969362 5.234701561e-14)
(-0.008971021115 0.044381435 1.489364188e-13)
(-0.00907068138 0.04433930105 1.505323644e-13)
(-0.01059414345 0.05516412351 1.872529909e-13)
(-0.01049750236 0.05532630228 1.856154119e-13)
(-0.01310779441 0.08587967222 2.880196082e-13)
(-0.01317740831 0.08526434345 2.893102424e-13)
(-0.01322566055 0.09309486188 3.158862061e-13)
(-0.01316845402 0.09387100129 3.148037386e-13)
(-0.01101671047 0.1066750875 3.578526364e-13)
(-0.01103725279 0.1054787102 3.580191699e-13)
(-0.009739730006 0.1056793621 0)
(-0.009723972976 0.1069254549 0)
(-0.005769442891 0.1068693176 0)
(-0.005777649375 0.1062466235 0)
(-0.005120039495 0.1062375059 0)
(-0.00511587792 0.1065488811 0)
(-0.00511172012 0.1068599957 0)
(0.00528357487 0.1066832757 0)
(0.005272737156 0.1060568835 0)
(0.005930379767 0.1060480261 0)
(0.005941301415 0.1066742144 0)
(0.01055138794 0.1066011746 3.58726937e-13)
(0.01052714144 0.1053329972 3.586575481e-13)
(0.01168689375 0.1038885109 3.538003224e-13)
(0.01172420059 0.1052604468 3.542582894e-13)
(0.01321753913 0.08890189438 2.992606163e-13)
(0.01315382509 0.08754156843 2.981781488e-13)
(0.01283618289 0.07881871763 2.684519274e-13)
(0.01290397408 0.08009311898 2.696037837e-13)
(0.009644568177 0.04861080023 1.635497293e-13)
(0.009578576755 0.04773998576 1.62522773e-13)
(0.007928231001 0.03718400046 1.265654248e-13)
(0.007989416859 0.03789773078 1.274813588e-13)
(0.002792036654 0.01125851307 3.784472735e-14)
(0.00275558812 0.01098386259 3.735900478e-14)
(0.001395914197 0.005299226397 1.801336857e-14)
(0.001421682697 0.005460042211 1.834643548e-14)
(0 0 0)
(0 0 0)
(0 0 0)
(0 0 0)
(0 0 0)
(0 0 0)
(0 0 0)
(0 0 0)
(0 0 0)
(0 0 0)
(0 0 0)
(0 0 0)
(0 0 0)
(0 0 0)
(0 0 0)
(0 0 0)
(0 0 0)
(0 0 0)
(0 0 0)
(0 0 0)
(0 0 0)
(0 0 0)
(0 0 0)
(0 0 0)
(0 0 0)
(0 0 0)
(0 0 0)
(0 0 0)
(-0.0003645733635 0.001225397477 4.427014311e-15)
(-0.0003347771297 0.001139348134 4.066191828e-15)
(-0.0003059578543 0.001054155085 3.719247132e-15)
(-0.002464748984 0.009329525805 3.286260153e-14)
(-0.002538635925 0.009491287146 3.384792446e-14)
(-0.004159473624 0.01635574733 5.831446437e-14)
(-0.004070213081 0.01620431985 5.707934125e-14)
(-0.009375576174 0.04416890441 1.554451012e-13)
(-0.00948068846 0.04410415087 1.571520691e-13)
(-0.01099016733 0.0544384829 1.939282068e-13)
(-0.01088889593 0.05462732335 1.922351167e-13)
(-0.01338764364 0.08336429749 2.932376564e-13)
(-0.01345900716 0.08271811566 2.94569924e-13)
(-0.01345536853 0.08990884128 3.201744425e-13)
(-0.01339744948 0.09071489991 3.190919751e-13)
(-0.01109583988 0.1018567272 3.584077479e-13)
(-0.01111430925 0.100639551 3.585048924e-13)
(-0.009801468057 0.1006920759 0)
(-0.009786250719 0.1019389006 0)
(-0.005834150472 0.1018829722 0)
(-0.005841988906 0.1012596935 0)
(-0.005185508752 0.1012505633 0)
(-0.005181517143 0.1015622016 0)
(-0.005177497416 0.1018737816 0)
(0.005192083494 0.1016793903 0)
(0.005179463052 0.1010538928 0)
(0.005836478263 0.1010457106 0)
(0.005849240972 0.1016710323 0)
(0.01043138176 0.1013478852 3.57811003e-13)
(0.0103859191 0.09989978498 3.570893581e-13)
(0.01142187253 0.09748219187 3.484990074e-13)
(0.0115113531 0.09926840768 3.505251644e-13)
(0.01270114003 0.08182337516 2.889632977e-13)
(0.01243869808 0.07924517296 2.833427937e-13)
(0.01208051726 0.07095504431 2.536859611e-13)
(0.01229630035 0.07304417115 2.57946442e-13)
(0.008877239629 0.04274510278 1.50879309e-13)
(0.008654118425 0.0411826493 1.471600619e-13)
(0.007016089954 0.03140398503 1.121880366e-13)
(0.007224395157 0.03272298666 1.154631946e-13)
(0.002252382058 0.008665038692 3.055888875e-14)
(0.002131486733 0.008101247785 2.892130979e-14)
(0.0009475939691 0.003429418787 1.224020885e-14)
(0.001028688799 0.00376846986 1.329492072e-14)
(0 0 0)
(0 0 0)
(0 0 0)
(0 0 0)
(0 0 0)
(0 0 0)
(0 0 0)
(0 0 0)
(0 0 0)
(0 0 0)
(0 0 0)
(0 0 0)
(0 0 0)
(0 0 0)
(0 0 0)
(0 0 0)
(0 0 0)
(0 0 0)
(0 0 0)
(0 0 0)
(0 0 0)
(0 0 0)
(0 0 0)
(0 0 0)
(0 0 0)
(0 0 0)
(0 0 0)
(0 0 0)
(-0.0004607705053 0.001471047292 5.592748487e-15)
(-0.0004765128716 0.001541390504 5.787037516e-15)
(-0.000434989027 0.001425416638 5.287437155e-15)
(-0.002780156864 0.01000666597 3.706757123e-14)
(-0.002874593532 0.01021280762 3.833044993e-14)
(-0.004560625607 0.0170379022 6.392109064e-14)
(-0.004448599829 0.0168379217 6.235290062e-14)
(-0.009815961162 0.04392403798 1.625366508e-13)
(-0.009943599754 0.04390701144 1.645766856e-13)
(-0.01143378287 0.05373519678 2.013944567e-13)
(-0.01131192575 0.05388040057 1.993405441e-13)
(-0.01368221363 0.08076970426 2.987055048e-13)
(-0.01376476283 0.08014405992 3.002459392e-13)
(-0.01370041773 0.08668011177 3.247402347e-13)
(-0.01363491642 0.08747535488 3.235051116e-13)
(-0.01116649704 0.09695962154 3.587130593e-13)
(-0.01118288977 0.09572238308 3.587408148e-13)
(-0.009861360458 0.09570623998 0)
(-0.009846407922 0.09695277889 0)
(-0.005894966967 0.0968973235 0)
(-0.005902254388 0.09627409475 0)
(-0.00524701727 0.09626512737 0)
(-0.005243313969 0.09657685673 0)
(-0.005239585066 0.09688835402 0)
(0.005086488867 0.09668761278 0)
(0.005072073933 0.09606419762 0)
(0.005728865039 0.09605654002 0)
(0.005743482669 0.09667995224 0)
(0.01020331241 0.09518580971 3.534256221e-13)
(0.01011758899 0.09340871055 3.513439539e-13)
(0.01097215622 0.08972659555 3.375355551e-13)
(0.01111132807 0.09186073493 3.411160243e-13)
(0.01169747941 0.07200013756 2.673694599e-13)
(0.01150163367 0.06996658507 2.632061236e-13)
(0.01089592535 0.06105078475 2.296496326e-13)
(0.01124046127 0.06374547198 2.366995489e-13)
(0.007647814895 0.03509303674 1.302291608e-13)
(0.007168344764 0.0324833384 1.221245327e-13)
(0.005555192468 0.02367001012 8.897049764e-14)
(0.006036059093 0.02604469336 9.663103651e-14)
(0.001512221551 0.005537218193 2.052524817e-14)
(0.001320666925 0.004774529479 1.793010185e-14)
(0.0004288859576 0.001476282142 5.551115123e-15)
(0.0005398294187 0.001882040616 6.980527267e-15)
(0 0 0)
(0 0 0)
(0 0 0)
(0 0 0)
(0 0 0)
(0 0 0)
(0 0 0)
(0 0 0)
(0 0 0)
(0 0 0)
(0 0 0)
(0 0 0)
(0 0 0)
(0 0 0)
(0 0 0)
(0 0 0)
(0 0 0)
(0 0 0)
(0 0 0)
(0 0 0)
(0 0 0)
(0 0 0)
(0 0 0)
(0 0 0)
(0 0 0)
(0 0 0)
(0 0 0)
(0 0 0)
(-0.0008191586898 0.002476585642 9.950373858e-15)
(-0.0007468277012 0.00228965211 9.076073226e-15)
(-0.0006391700967 0.001986619592 7.771561172e-15)
(-0.003178049763 0.01084687903 4.236888618e-14)
(-0.003414309422 0.01149371122 4.550526622e-14)
(-0.005176166173 0.01831838498 7.249756351e-14)
(-0.004887578061 0.01753845902 6.847300504e-14)
(-0.01037492742 0.04396855247 1.715017017e-13)
(-0.01056515323 0.04414756399 1.745686928e-13)
(-0.01199858033 0.05333959832 2.10859108e-13)
(-0.01184304753 0.05340167843 2.082500838e-13)
(-0.01403538035 0.07831621688 3.053113318e-13)
(-0.01407886335 0.07742371594 3.059774656e-13)
(-0.01398689804 0.08353277942 3.301248164e-13)
(-0.01391223263 0.08432033327 3.287231598e-13)
(-0.01123054405 0.09198603293 0)
(-0.01124720335 0.09073963458 0)
(-0.009923704524 0.09072110574 0)
(-0.009915493846 0.09134408942 0)
(-0.00990745607 0.09196713352 0)
(-0.005951872227 0.09191176295 0)
(-0.005955423197 0.09160055271 0)
(-0.005627716091 0.09159618359 0)
(-0.005624195335 0.09190730738 0)
(-0.0002674750118 0.09175553262 0)
(-0.0002733340847 0.09160037764 0)
(-0.0002781499816 0.09144517858 0)
(4.27490376e-05 0.09144418083 0)
(5.391581034e-05 0.09175429605 0)
(0.004956741377 0.0917079728 0)
(0.00493755739 0.09108723335 0)
(0.00491811531 0.0904666714 0)
(0.006235571414 0.09045086567 0)
(0.006272787415 0.0916927957 0)
(0.005615009689 0.09170032278 0)
(0.009791422496 0.08754761081 3.426980921e-13)
(0.009627044639 0.08513270041 3.378269886e-13)
(0.01023888441 0.08002985177 3.176070518e-13)
(0.01050660544 0.0830745989 3.252259573e-13)
(0.01052928859 0.0617445404 2.41723308e-13)
(0.0101515123 0.05878249533 2.33285613e-13)
(0.009401909855 0.05011037643 1.988409437e-13)
(0.009797505785 0.05289133741 2.070288385e-13)
(0.005941025674 0.02590394391 1.013356066e-13)
(0.00558336695 0.02402519048 9.52710133e-14)
(0.004081501494 0.01650818452 6.54476473e-14)
(0.004396316961 0.01801926717 7.047140649e-14)
(0.0006244500565 0.002170603843 8.479328351e-15)
(0.0005076128911 0.001740960257 6.89726054e-15)
(4.02429864e-05 0.0001314087658 5.273559367e-16)
(7.688703575e-05 0.0002544607786 9.992007222e-16)
(0 0 0)
(0 0 0)
(0 0 0)
(0 0 0)
(0 0 0)
(0 0 0)
(0 0 0)
(0 0 0)
(0 0 0)
(0 0 0)
(0 0 0)
(0 0 0)
(0 0 0)
(0 0 0)
(0 0 0)
(0 0 0)
(0 0 0)
(0 0 0)
(0 0 0)
(0 0 0)
(0 0 0)
(0 0 0)
(0 0 0)
(0 0 0)
(0 0 0)
(0 0 0)
(0 0 0)
(0 0 0)
(-0.0007768196985 0.002227482911 9.478529073e-15)
(-0.0008778661201 0.002554426336 1.071365219e-14)
(-0.0009380522608 0.002769330945 1.143529715e-14)
(-0.003780783801 0.01225820565 5.061229214e-14)
(-0.003659226293 0.01169317306 4.898859096e-14)
(-0.005455235663 0.01832706457 7.675804437e-14)
(-0.005600843437 0.01909205223 7.881195696e-14)
(-0.01103339442 0.04441490743 1.831867991e-13)
(-0.01085460346 0.04305503707 1.801614413e-13)
(-0.01226423326 0.05175190881 2.165073676e-13)
(-0.01243911867 0.05327552182 2.196715032e-13)
(-0.01433462546 0.07598767291 3.132216708e-13)
(-0.01421610796 0.07421942941 3.103906021e-13)
(-0.01401216529 0.07946882322 3.323591402e-13)
(-0.01409900004 0.08120282886 3.347322419e-13)
(-0.01115092476 0.08698609931 0)
(-0.01116897691 0.08573951839 0)
(-0.00984178086 0.08572029883 0)
(-0.009832756883 0.0863434445 0)
(-0.009823728712 0.08696687974 0)
(-0.005842198489 0.0869092219 0)
(-0.00585122666 0.08628578665 0)
(-0.005187657594 0.08627617729 0)
(-0.005183141412 0.0865880397 0)
(-0.005178629423 0.08689961253 0)
(-0.005510413956 0.08690441721 0)
(-0.0005335021295 0.08683234492 0)
(-0.0005380135635 0.08652077207 0)
(-0.0005425294681 0.08620890966 0)
(0.0001210599873 0.08619930001 0)
(0.0001300881581 0.08682273525 0)
(0.004775196134 0.08675546791 0)
(0.004757143986 0.08550888699 0)
(0.006062408029 0.0851630681 3.573807916e-13)
(0.00609782935 0.08666772819 3.584771369e-13)
(0.009143804287 0.07818395087 3.235745005e-13)
(0.008921356226 0.0754241552 3.166633622e-13)
(0.009332144473 0.06958861293 2.921829445e-13)
(0.009601447951 0.0724604098 2.999128723e-13)
(0.008839001441 0.04922199226 2.036981694e-13)
(0.008482274299 0.0466114452 1.957045637e-13)
(0.007547258972 0.03812625544 1.600525268e-13)
(0.008064547923 0.041307667 1.709188346e-13)
(0.004212995013 0.01740202384 7.197020757e-14)
(0.003671020723 0.01495123705 6.272760089e-14)
(0.002492676164 0.009540174565 4.000966225e-14)
(0.002840660716 0.01102645714 4.558853295e-14)
(0.0001045009219 0.0003438958359 1.415534356e-15)
(4.720152757e-05 0.0001531528033 6.383782392e-16)
(0 0 0)
(0 0 0)
(0 0 0)
(0 0 0)
(0 0 0)
(0 0 0)
(0 0 0)
(0 0 0)
(0 0 0)
(0 0 0)
(0 0 0)
(0 0 0)
(0 0 0)
(0 0 0)
(0 0 0)
(0 0 0)
(0 0 0)
(0 0 0)
(0 0 0)
(0 0 0)
(0 0 0)
(0 0 0)
(0 0 0)
(0 0 0)
(0 0 0)
(0 0 0)
(0 0 0)
(0 0 0)
(0 0 0)
(0 0 0)
(-0.0001814650191 0.0004896328986 2.220446049e-15)
(-0.0003292573594 0.0009023311245 4.024558464e-15)
(-0.0004891537415 0.001361215906 5.967448757e-15)
(-0.002804277738 0.008570131004 3.755329381e-14)
(-0.002396149404 0.007212009192 3.208544541e-14)
(-0.003900585381 0.01234256283 5.490052857e-14)
(-0.004411831101 0.01417449638 6.208922265e-14)
(-0.009511743494 0.03606997178 1.578598363e-13)
(-0.008819540848 0.03294043411 1.464106614e-13)
(-0.01022232895 0.04060871426 1.804389971e-13)
(-0.01092463523 0.04406423404 1.927902282e-13)
(-0.01319865589 0.06580380982 2.877975636e-13)
(-0.01261852088 0.06194951898 2.751548989e-13)
(-0.01269704302 0.06767319116 3.005651283e-13)
(-0.0131927374 0.07141644592 3.123473702e-13)
(-0.01109763582 0.08111168552 3.548827898e-13)
(-0.01092514844 0.07855687492 3.490263634e-13)
(-0.00982650732 0.08004800061 3.557154571e-13)
(-0.009889820443 0.08193111965 3.585465258e-13)
(-0.005914415469 0.0819223191 0)
(-0.005932471811 0.08067544861 0)
(-0.004605304722 0.08065622947 0)
(-0.00458724838 0.08190309995 0)
(-0.005250846403 0.08191270973 0)
(-0.0006057181574 0.0818454421 0)
(-0.000623774499 0.08059857162 0)
(0.0007034012767 0.08057935235 0)
(0.0007214576183 0.08182622283 0)
(0.004664621507 0.08104011523 3.555489236e-13)
(0.004580956404 0.07856397907 3.500255641e-13)
(0.005707741196 0.07614085268 3.392980341e-13)
(0.00585201604 0.07916880926 3.4741654e-13)
(0.008179887058 0.06625912209 2.908923102e-13)
(0.007826510647 0.06243204671 2.783051567e-13)
(0.007964636918 0.05597956581 2.495642581e-13)
(0.00837756017 0.05980085076 2.625399897e-13)
(0.007015015463 0.0368895151 1.619121504e-13)
(0.006515928328 0.03373333343 1.503519531e-13)
(0.005517958469 0.02626364604 1.170313846e-13)
(0.006006216357 0.02903788918 1.274258477e-13)
(0.002348307899 0.009152118618 4.013456234e-14)
(0.002017399643 0.007741355636 3.447242491e-14)
(0.001031558689 0.003720160261 1.657007864e-14)
(0.001401438371 0.005133302863 2.250977182e-14)
(0 0 0)
(0 0 0)
(0 0 0)
(0 0 0)
(0 0 0)
(0 0 0)
(0 0 0)
(0 0 0)
(0 0 0)
(0 0 0)
(0 0 0)
(0 0 0)
(0 0 0)
(0 0 0)
(0 0 0)
(0 0 0)
(0 0 0)
(0 0 0)
(0 0 0)
(0 0 0)
(0 0 0)
(0 0 0)
(0 0 0)
(0 0 0)
(0 0 0)
(0 0 0)
(0 0 0)
(0 0 0)