/*--------------------------------*- C++ -*----------------------------------*\
| =========                 |                                                 |
| \\      /  F ield         | OpenFOAM: The Open Source CFD Toolbox           |
|  \\    /   O peration     | Version:  v1912                                 |
|   \\  /    A nd           | Website:  www.openfoam.com                      |
|    \\/     M anipulation  |                                                 |
\*---------------------------------------------------------------------------*/
FoamFile
{
    version     2.0;
    format      ascii;
    class       volVectorField;
    location    "3";
    object      U;
}
// * * * * * * * * * * * * * * * * * * * * * * * * * * * * * * * * * * * * * //

dimensions      [0 1 -1 0 0 0 0];


internalField   nonuniform List<vector> 
12556
(
(99.99963913 0.0009455957923 -3.657334264e-21)
(99.99930172 0.00367430517 -3.253136714e-25)
(99.99853723 0.009217162716 -3.658668703e-21)
(99.99713279 0.01972336336 -3.648019604e-21)
(99.99967133 0.01684999363 3.538889964e-21)
(99.99842315 0.02997341078 0)
(99.99747788 0.05132429546 0)
(99.99707467 0.08201729586 -6.463323171e-21)
(99.99599681 0.124699755 7.681620343e-22)
(99.99497961 0.1806240655 -5.278553278e-21)
(99.9944907 0.2466620438 5.275617444e-22)
(99.99526046 0.3129236811 0)
(99.99730469 0.3637275583 0)
(99.9998101 0.3851836129 1.240638429e-22)
(100.002644 0.3715150903 -7.749079845e-22)
(100.0044844 0.328366109 7.198536604e-22)
(100.0050559 0.2697641979 0)
(100.0050401 0.2092647707 1.390649436e-21)
(100.0049588 0.153573046 5.755673513e-21)
(100.002679 0.1110991726 -1.672359993e-21)
(100.0116588 0.1307510838 -1.468648367e-20)
(100.0083472 0.0820970837 0)
(100.0063775 0.04454611124 -1.866992571e-21)
(100.0062143 0.01425095186 -1.317223205e-20)
(99.99668498 0.002129417946 1.462414889e-20)
(99.99330095 0.00887173202 3.660285566e-21)
(99.98612018 0.02341429479 2.562228348e-20)
(99.97378858 0.05241749711 -1.097594203e-20)
(99.97358946 0.07851235566 3.561391068e-21)
(99.95373959 0.1420134102 -2.705164173e-23)
(99.92665876 0.2437773193 0)
(99.91060555 0.3419047536 -6.406773116e-21)
(99.87492084 0.5264721516 -6.066430704e-21)
(99.83868583 0.7727990829 -1.097061269e-20)
(99.81323252 1.072445605 -4.759702216e-21)
(99.81980566 1.386249694 -6.86857139e-21)
(99.87059092 1.640512472 1.016482996e-22)
(99.95118223 1.758957696 -7.028306815e-22)
(100.0370625 1.710692294 -2.911306621e-22)
(100.1018251 1.517859862 3.689766779e-21)
(100.1297868 1.247133542 -7.889656684e-21)
(100.1253353 0.9699371774 0)
(100.1435579 0.7555447348 -2.48062561e-20)
(100.1067319 0.5291402694 4.826002702e-20)
(100.1093029 0.3755611607 1.42237433e-20)
(100.0798429 0.2350241408 2.962150472e-20)
(100.0618454 0.1277311856 -2.970914552e-20)
(100.0550331 0.04082790857 1.504021849e-20)
(99.99206316 0.001276396191 -1.459159033e-20)
(99.98263307 0.00771938478 -2.926177963e-20)
(99.96271878 0.02605864478 -6.586573577e-20)
(99.92991364 0.06390353536 8.770554517e-20)
(99.90770973 0.1170642852 -7.248882746e-21)
(99.84970393 0.2235375696 -7.13151353e-21)
(99.76686416 0.3940214819 -1.241405996e-20)
(99.71265834 0.5912328418 0)
(99.59883082 0.9322160107 2.499954931e-20)
(99.48006739 1.400773634 -4.623221289e-20)
(99.39324129 2.014812544 0)
(99.42810073 2.69342539 -8.774399104e-19)
(99.62067546 3.22054516 5.191747518e-19)
(99.93808932 3.467203233 -4.627516607e-22)
(100.2512206 3.349303031 2.739052165e-21)
(100.4673068 2.936815996 2.936949841e-21)
(100.5468445 2.374817607 -8.565028445e-21)
(100.5152179 1.799760158 -2.140872261e-20)
(100.479549 1.305697946 -1.486337376e-19)
(100.3654869 0.9004614001 -3.362412682e-20)
(100.306186 0.5744913425 -1.471389979e-20)
(100.2248651 0.3585994497 3.350287998e-20)
(100.1749118 0.1945250832 -3.78112923e-21)
(100.1530732 0.0618308542 0)
(99.99041599 -0.002923015194 -7.333807811e-21)
(99.97246842 -0.004038467222 5.139738195e-20)
(99.93466328 0.01011098971 -1.469917812e-20)
(99.8727155 0.04606639204 0)
(99.8196748 0.1179218098 0)
(99.70389587 0.250872901 -5.723603091e-20)
(99.53939433 0.4706025664 -1.147907425e-19)
(99.39402981 0.753751558 2.729215593e-20)
(99.14011321 1.2344991 4.154843452e-19)
(98.84075748 1.983479557 8.292254126e-19)
(98.62266065 3.034103275 0)
(98.66699569 4.266296072 -2.008556152e-18)
(99.23211091 5.230841464 1.292646175e-18)
(100.062587 5.543124505 -2.374450953e-21)
(100.7625358 5.177793513 1.199198424e-18)
(101.1562679 4.412635706 4.159463439e-19)
(101.2667543 3.463064149 -8.042326792e-20)
(101.171018 2.551252443 0)
(101.0105137 1.756881915 5.508785875e-20)
(100.7615078 1.182261358 -4.318270535e-20)
(100.585179 0.7060797944 -3.786286003e-20)
(100.4303541 0.4336868866 1.92609809e-20)
(100.3338294 0.233408458 -3.875742961e-21)
(100.2895662 0.07365420422 0)
(99.99950253 -0.01127317939 0)
(99.97168492 -0.02898928436 0)
(99.9137187 -0.02999882615 7.364107057e-21)
(99.81734321 -0.006360383603 1.117548138e-20)
(99.72493911 0.07122716333 1.851388568e-20)
(99.53632948 0.2062552486 0)
(99.2687718 0.4356395395 0)
(98.9954679 0.7759207295 5.662307102e-20)
(98.5121014 1.395652931 6.085230052e-19)
(97.8994928 2.459961205 0)
(97.34981545 4.132354665 2.264562605e-20)
(97.46481054 6.276024479 0)
(98.76271023 8.052267143 1.31420833e-21)
(100.6930203 8.242837946 0)
(101.9711021 7.208393955 -2.222572635e-18)
(102.4606456 5.793401621 0)
(102.4323643 4.399972891 0)
(102.1063682 3.111109483 -7.257177603e-22)
(101.7187112 2.0313993 -9.362244632e-20)
(101.2750902 1.328778377 7.84371405e-21)
(100.9143575 0.7342837364 0)
(100.6675252 0.4455635448 3.982110938e-21)
(100.5129886 0.235830489 -2.989588296e-21)
(100.4407684 0.07358816311 -9.927256679e-22)
(100.0282531 -0.0240465265 0)
(99.99037644 -0.06768895888 0)
(99.91253172 -0.09542667511 -1.478436396e-20)
(99.781466 -0.09896010313 2.99626708e-20)
(99.63911468 -0.03027650306 0)
(99.37669279 0.07900423254 0)
(98.99341643 0.2837353275 2.34386562e-20)
(98.56295992 0.6333284757 0)
(97.76415614 1.316942197 8.417371359e-19)
(96.61737392 2.592866834 8.641925315e-19)
(95.28834591 4.938020803 0)
(94.90729882 8.698547765 0)
(97.82806785 12.44632171 2.755967758e-19)
(102.4507364 12.0483064 0)
(104.452134 9.22376169 1.580156507e-18)
(104.6183107 6.775900388 -2.483791878e-18)
(104.1077358 4.90084998 0)
(103.3478377 3.355941254 -3.21747991e-20)
(102.5446155 2.038950946 2.423869752e-20)
(101.8494312 1.294894453 -1.640679894e-20)
(101.2577131 0.6416157885 0)
(100.9030055 0.382024171 0)
(100.6834144 0.1951812676 -1.014097219e-21)
(100.5803264 0.05984638857 -3.055856385e-21)
(100.08532 -0.04096666403 3.59844845e-21)
(100.0383489 -0.1192287997 -3.62301258e-21)
(99.94292457 -0.1845479176 7.382577124e-21)
(99.78107667 -0.2290423542 -2.706083435e-20)
(99.59000936 -0.1869549976 7.772227051e-23)
(99.25780262 -0.1310680088 2.297176349e-20)
(98.76946916 0.007004797177 1.66443513e-20)
(98.16362436 0.3074305575 2.267901711e-19)
(97.04151467 0.8912720865 -4.384469085e-19)
(95.18359306 2.066519755 9.00120884e-19)
(92.43977197 4.351433388 0)
(89.00058718 9.584586904 -1.789231483e-19)
(93.61192595 20.59053458 3.283833076e-20)
(107.4439031 17.7486547 3.456090831e-19)
(108.8212072 10.57128824 -4.49272072e-19)
(107.6311334 6.825478694 1.773685822e-18)
(106.1945584 4.625091942 0)
(104.7601563 3.059184107 3.321725171e-19)
(103.3951925 1.699206397 0)
(102.4084325 1.020555244 9.204182336e-21)
(101.5623285 0.4236941104 2.695580055e-21)
(101.0967758 0.2346838387 -3.18251073e-21)
(100.8146421 0.1095379485 -3.625572175e-21)
(100.6812676 0.03214776939 8.691693986e-21)
(100.1781612 -0.06124478614 -3.598831138e-21)
(100.1241 -0.1811626837 3.624320199e-21)
(100.0154568 -0.292639723 -4.590739699e-21)
(99.83059895 -0.3891188108 -3.075543399e-21)
(99.59612715 -0.3897012544 1.308335864e-20)
(99.21070623 -0.4098473187 7.752515139e-21)
(98.64241273 -0.3767118806 2.838407942e-20)
(97.89624644 -0.1949973091 4.869486697e-19)
(96.53825702 0.1193781576 2.962049157e-20)
(94.18083797 0.7286891837 7.147594605e-20)
(90.44207272 1.567996856 4.060325394e-19)
(83.78650718 2.57858384 0)
(120.8028486 21.39375122 0)
(114.9887684 9.121929548 -5.682837512e-19)
(110.9563719 5.179292076 6.887405703e-21)
(108.2562423 3.299982968 5.121041122e-19)
(106.0837568 2.062657789 7.977305116e-19)
(104.1064387 0.9736894207 -4.970952342e-21)
(102.8438329 0.5134368584 2.091165748e-20)
(101.7642798 0.08686821329 -3.316942632e-21)
(101.2073603 0.0125071834 2.708173846e-21)
(100.8754458 -0.01551176875 -5.368238837e-22)
(100.7165733 -0.008117701281 -8.214108814e-21)
(100.3123233 -0.08366593818 -1.731528981e-21)
(100.2539674 -0.2497012195 -1.300463689e-21)
(100.1380027 -0.4126409321 -4.452592589e-22)
(99.94045528 -0.5677800893 1.344041416e-21)
(99.67316413 -0.6223645858 -2.422923751e-23)
(99.25754516 -0.732387083 0)
(98.64676788 -0.8244300483 3.407729201e-20)
(97.82784292 -0.8055957002 -5.1550752e-19)
(96.39085736 -0.830291551 1.467552886e-20)
(93.99453057 -0.884062827 0)
(90.75223415 -1.361098052 8.135162844e-19)
(87.32075969 -3.110794379 0)
(133.5573176 7.845584895 1.083919311e-18)
(119.5670557 3.293703465 -7.318605724e-19)
(113.2734625 1.693432505 -8.409034519e-19)
(109.6313273 0.9499729849 4.343834714e-19)
(106.9409961 0.4781816563 1.108717938e-19)
(104.4999534 -0.0576218189 -5.152462089e-21)
(103.0524498 -0.1771133447 1.189859005e-20)
(101.8120843 -0.3362017948 1.152995481e-21)
(101.2008655 -0.2628400447 0)
(100.8392225 -0.1684983325 4.161794709e-21)
(100.6638375 -0.05742302972 4.105995085e-21)
(100.4907252 -0.1067481654 3.412303528e-21)
(100.4312385 -0.3202603669 5.139937503e-23)
(100.3144934 -0.5360781108 0)
(100.1157778 -0.7521660148 1.758778992e-22)
(99.82850918 -0.8668869119 -1.79297124e-21)
(99.40757674 -1.069844969 1.897177058e-21)
(98.79392346 -1.288972984 -4.00954045e-21)
(97.96908142 -1.439371652 1.126138793e-19)
(96.58242587 -1.767701581 -4.732666053e-19)
(94.39032174 -2.273245665 -1.771640011e-20)
(91.80501652 -3.145474618 -8.171847774e-21)
(89.61683882 -4.396616852 3.736585702e-19)
(131.9000585 -7.399495987 6.343866311e-20)
(119.6782824 -3.892103048 0)
(113.5199795 -2.546462819 -1.664322104e-21)
(109.8084987 -1.844607902 5.913372128e-19)
(107.0537163 -1.399616939 -1.082316376e-19)
(104.4564059 -1.229558261 4.391584116e-20)
(102.9704136 -0.9553948648 0)
(101.6753644 -0.7942200377 -1.134635105e-21)
(101.0570527 -0.5598166511 -4.646878482e-21)
(100.6902409 -0.333228206 5.176879447e-22)
(100.5098473 -0.1106573491 0)
(100.7133499 -0.1290405041 -1.680629519e-21)
(100.6557809 -0.3882591443 1.694041988e-21)
(100.5443074 -0.6544489581 1.652324805e-21)
(100.3566377 -0.9297061857 -1.539081023e-21)
(100.0606932 -1.105086825 -1.767441206e-21)
(99.65770271 -1.393995959 0)
(99.0749439 -1.729420219 6.530961444e-20)
(98.2910016 -2.033014174 0)
(97.01801585 -2.598941343 -4.483185809e-19)
(95.05735735 -3.378239515 -1.334165698e-19)
(92.82802242 -4.352267686 3.415484088e-19)
(90.94022574 -5.296171517 0)
(123.9992695 -16.10070766 1.655013592e-18)
(116.3669857 -9.351613623 6.720886362e-19)
(111.8625891 -6.194531024 -1.262663636e-18)
(108.8358152 -4.40062386 -1.067381088e-18)
(106.3982358 -3.177631752 1.185039895e-20)
(103.9594599 -2.336482626 0)
(102.5945413 -1.703383162 -2.852078892e-20)
(101.3515452 -1.230483436 -1.410906391e-20)
(100.7737408 -0.8438180176 1.054557897e-21)
(100.4258643 -0.4919522187 -3.340054324e-21)
(100.2520484 -0.162195259 4.893546979e-22)
(100.9772749 -0.1492090067 6.183991929e-21)
(100.9244386 -0.4494422315 0)
(100.8230064 -0.7587729876 -1.649108222e-21)
(100.6549236 -1.093064396 0)
(100.35862 -1.32131922 0)
(99.99636247 -1.681354028 -5.255626151e-21)
(99.47052404 -2.114368662 -3.574009733e-21)
(98.75766383 -2.546231173 0)
(97.63222026 -3.291320966 -4.276791556e-19)
(95.884763 -4.26880103 1.575950387e-20)
(93.82634723 -5.369433292 3.174501729e-19)
(91.92807552 -6.320008119 3.178335408e-19)
(115.3397951 -19.40162078 -5.33320387e-19)
(111.6733451 -12.22899836 -4.696212862e-19)
(109.0806561 -8.540405417 2.24807822e-18)
(107.0175909 -6.236767771 0)
(105.141974 -4.537180968 -1.861367251e-19)
(103.1042046 -3.215482738 2.270932056e-21)
(101.9726712 -2.326311124 -3.447201979e-20)
(100.8684166 -1.600528018 8.349900864e-21)
(100.3668979 -1.08526907 0)
(100.0564522 -0.6293395884 3.849902681e-21)
(99.89864392 -0.2071074914 0)
(101.277386 -0.1668137755 6.17611503e-21)
(101.2311242 -0.5032857395 9.755036357e-20)
(101.1422965 -0.8494550496 -1.964582509e-19)
(100.9963484 -1.230429268 -4.620378231e-22)
(100.7282551 -1.499785264 -1.551026151e-21)
(100.4092857 -1.915547333 0)
(99.95829871 -2.42341105 0)
(99.331599 -2.953365358 -1.899674433e-19)
(98.37948724 -3.827105499 1.600056914e-21)
(96.87064244 -4.970217736 -2.212704628e-19)
(95.01191585 -6.310803626 2.717108773e-19)
(93.1367019 -7.538374535 -4.643802472e-19)
(103.6493961 -28.38596824 1.052074258e-19)
(107.2551517 -18.12823052 8.252982488e-20)
(107.0467219 -12.78994887 0)
(106.0134945 -9.47578389 -1.565702961e-18)
(104.8599921 -7.177745011 -7.267510144e-19)
(103.5879529 -5.33562914 7.287599647e-20)
(102.0464602 -3.78042986 -6.844776114e-20)
(101.1869115 -2.763478317 0)
(100.2770921 -1.878196248 0)
(99.86570098 -1.265319491 1.200002613e-20)
(99.60235976 -0.7354310135 2.215708525e-21)
(99.46657487 -0.2420564121 -7.161581287e-21)
(101.6065162 -0.1801572237 0)
(101.568075 -0.544642549 0)
(101.4946993 -0.9184437239 0)
(101.3732781 -1.328905234 0)
(101.1335774 -1.640710498 0)
(100.8613521 -2.101117794 0)
(100.4864758 -2.663347972 9.758466122e-20)
(99.96578809 -3.253842847 0)
(99.2006832 -4.201960235 0)
(97.9827315 -5.454202721 -3.888752165e-19)
(96.53203846 -7.063459308 2.31119467e-19)
(95.0351688 -9.301620074 1.704307111e-19)
(96.90648623 -18.28386055 1.049754705e-19)
(102.356249 -14.88705166 0)
(103.4111833 -11.70984683 -9.96590326e-19)
(103.3006261 -9.292590268 -4.081406782e-19)
(102.7931465 -7.339013516 -5.440942455e-19)
(101.9963454 -5.598262932 -5.85371272e-20)
(100.9316251 -4.045685245 -9.346316012e-20)
(100.3242591 -3.006584126 -3.524824909e-20)
(99.62701386 -2.042297788 -1.950212256e-20)
(99.30292815 -1.381924224 1.914990698e-20)
(99.08927449 -0.8065409508 0)
(98.97785953 -0.265490904 1.914586772e-20)
(101.957206 -0.1891173174 0)
(101.9274648 -0.5726311828 0)
(101.8717885 -0.9649900978 0)
(101.7770932 -1.389962409 0)
(101.566943 -1.727961978 0)
(101.3523959 -2.211531633 0)
(101.0614566 -2.783764618 2.218949266e-20)
(100.6644657 -3.389410103 -4.665052498e-19)
(100.1238621 -4.308511756 2.918096759e-19)
(99.24136908 -5.52241726 6.238434353e-19)
(98.32711476 -7.082682665 0)
(97.5709349 -9.159738137 0)
(98.40487434 -11.76182796 9.59856654e-20)
(100.3519722 -11.41941726 -5.345769156e-20)
(101.1235658 -9.973576803 0)
(101.2623365 -8.44697701 7.488413147e-19)
(101.0604731 -6.954895147 -2.049708626e-19)
(100.5779705 -5.484388108 -2.428348464e-20)
(99.86153464 -4.069427532 0)
(99.46910618 -3.090612191 0)
(98.95559217 -2.105050226 -3.59525832e-20)
(98.70951456 -1.437846003 1.774067429e-20)
(98.54348186 -0.8426219631 7.447724461e-22)
(98.45560707 -0.2774315127 -1.316529078e-20)
(102.3212193 -0.1937734745 0)
(102.299963 -0.5870758515 0)
(102.2616195 -0.988792424 0)
(102.1929879 -1.416673672 0)
(102.0121712 -1.769068855 0)
(101.8506763 -2.256042557 0)
(101.635896 -2.814648337 -3.054804789e-22)
(101.352478 -3.395395721 -2.849510821e-19)
(100.9901236 -4.217835607 2.539438515e-19)
(100.3903548 -5.250546669 5.059119531e-19)
(99.79288102 -6.488610412 4.583707369e-19)
(97.61338983 -7.602567153 3.117537063e-19)
(99.20604771 -8.992162499 0)
(99.65904872 -8.984321107 3.082225832e-20)
(99.870932 -8.342934091 -1.060140852e-20)
(99.88088797 -7.408504112 0)
(99.72697001 -6.302147378 0)
(99.39989317 -5.131660646 0)
(98.9079922 -3.920696831 -2.950352649e-20)
(98.6732163 -3.048316555 4.548092352e-20)
(98.29511406 -2.088471636 1.111663734e-20)
(98.11398369 -1.44185304 1.900775569e-20)
(97.98869801 -0.8478506298 -2.157989278e-20)
(97.92100075 -0.2792123548 0)
(102.6905472 -0.1945534521 0)
(102.6768773 -0.5892544305 0)
(102.6536678 -0.9918525949 0)
(102.6079917 -1.413321181 0)
(102.4539949 -1.769611342 0)
(102.3381042 -2.244206769 0)
(102.1844837 -2.772554098 0)
(101.9794041 -3.31270446 -3.330075944e-20)
(101.7446367 -4.005648032 4.593392735e-19)
(101.3211653 -4.817444819 -8.176112252e-19)
(100.8229989 -5.704592669 6.574681813e-19)
(99.20150813 -6.312498955 -7.344742651e-20)
(99.67823892 -7.16947249 -3.497658969e-20)
(99.4644906 -7.3043283 -1.347786922e-19)
(99.2216749 -6.994746992 2.327561359e-19)
(98.99423888 -6.391342129 4.069023735e-19)
(98.74112501 -5.57092091 0)
(98.45897726 -4.675656376 0)
(98.09586784 -3.675032038 0)
(97.95043482 -2.913831032 0)
(97.6697007 -2.01306036 3.816431513e-20)
(97.53808866 -1.404846724 -3.568875275e-20)
(97.44395241 -0.8280720917 -2.423880134e-21)
(97.39181119 -0.2731624085 2.431872657e-21)
(103.0579695 -0.1920432525 0)
(103.0507114 -0.5810789978 0)
(103.0398005 -0.9773495425 0)
(103.0128272 -1.384698716 0)
(102.8823201 -1.735732613 0)
(102.8017889 -2.187149355 0)
(102.6936424 -2.67547557 0)
(102.5361977 -3.172598065 0)
(102.3662789 -3.746096096 4.422543768e-20)
(102.0280696 -4.363842662 0)
(101.5543943 -4.99567402 3.117966712e-19)
(100.4732768 -5.407075208 0)
(99.69401735 -5.937393963 -2.71126981e-19)
(99.46985512 -6.086302454 2.551297997e-22)
(98.87387471 -5.906002248 8.448004113e-20)
(98.39848608 -5.478562516 -8.354879137e-21)
(98.01995671 -4.871821163 0)
(97.72096301 -4.190863419 0)
(97.41072564 -3.371950803 0)
(97.30898061 -2.718755319 0)
(97.09175006 -1.896139599 0)
(96.99453887 -1.336260768 0)
(96.92284914 -0.7905806427 0)
(96.88189573 -0.2619315979 0)
(103.4175834 -0.1868660676 0)
(103.4154569 -0.5645805585 0)
(103.4138894 -0.9488013414 0)
(103.4009856 -1.336534401 0)
(103.2892728 -1.675254291 0)
(103.2336836 -2.097126687 0)
(103.1551729 -2.541141273 0)
(103.0250962 -2.988950598 0)
(102.8691553 -3.475740466 0)
(102.5474924 -3.955900893 1.268938067e-21)
(102.0659187 -4.41098753 7.014049108e-20)
(100.9423072 -4.734210292 -8.843287577e-20)
(99.6917121 -5.097290374 0)
(99.49051782 -5.157435067 5.994653719e-21)
(98.63131602 -5.019871897 0)
(97.96807514 -4.701928249 0)
(97.4824386 -4.251298205 0)
(97.13867821 -3.722176059 0)
(96.84002433 -3.050100266 0)
(96.75018622 -2.49537378 0)
(96.56747667 -1.756580042 0)
(96.49102819 -1.248458347 0)
(96.43324342 -0.740822282 0)
(96.40053067 -0.2461204898 0)
(103.764835 -0.1796632526 0)
(103.7665154 -0.5418245907 0)
(103.7713652 -0.9097921655 0)
(103.767967 -1.274569644 0)
(103.6702001 -1.596195405 0)
(103.6300129 -1.98544392 0)
(103.5676648 -2.385325401 0)
(103.4484472 -2.782793244 0)
(103.2842778 -3.194056253 0)
(102.9393752 -3.580583531 0)
(102.4128707 -3.926180223 0)
(100.5428395 -4.114675073 0)
(99.95452739 -4.422586175 0)
(99.45536723 -4.422515336 0)
(98.43691351 -4.305234 0)
(97.64603449 -4.060326095 0)
(97.06960282 -3.712562644 0)
(96.67336869 -3.293157879 0)
(96.36287568 -2.736233053 0)
(96.26628744 -2.264913025 0)
(96.09775371 -1.607817149 0)
(96.03127512 -1.151009513 0)
(95.98059693 -0.6847028143 0)
(95.95269002 -0.2279866689 0)
(104.0964532 -0.1710626519 0)
(104.1006647 -0.5148077597 0)
(104.1092081 -0.8637164334 0)
(104.1111767 -1.204001785 0)
(104.0228865 -1.505668462 0)
(103.9900571 -1.861618591 0)
(103.9332026 -2.22104936 0)
(103.8129068 -2.569653818 0)
(103.6273691 -2.917011175 0)
(103.2483233 -3.230446174 0)
(102.6746299 -3.500304491 0)
(100.0611898 -3.580496242 0)
(100.1204199 -3.849703719 -5.900589376e-35)
(99.406426 -3.831621185 0)
(98.27905174 -3.725158985 0)
(97.39391723 -3.526805251 0)
(96.7430921 -3.248907494 0)
(96.2964085 -2.909240443 0)
(95.96106641 -2.44319501 0)
(95.84754264 -2.040575582 0)
(95.67972733 -1.459073888 0)
(95.61533138 -1.0509164 0)
(95.56671466 -0.6264407296 0)
(95.54113167 -0.2090456247 0)
(104.4103213 -0.1616283835 0)
(104.4159293 -0.4853180595 0)
(104.4257986 -0.8135580023 0)
(104.4295827 -1.129162606 0)
(104.3470621 -1.409516487 0)
(104.315169 -1.733345549 0)
(104.2552465 -2.056130687 0)
(104.1264697 -2.360256195 0)
(103.9121617 -2.654546183 0)
(103.4954565 -2.911259489 0)
(102.8764264 -3.126074217 0)
(99.64050184 -3.132446966 0)
(100.2092044 -3.374663788 0)
(99.35003193 -3.345268838 0)
(98.14457601 -3.246569726 0)
(97.18878919 -3.079754811 0)
(96.47775241 -2.850999397 0)
(95.98542524 -2.570091163 0)
(95.62050632 -2.176047229 0)
(95.48446211 -1.829961058 0)
(95.30887927 -1.316426156 0)
(95.24124449 -0.9529926276 0)
(95.19121518 -0.5689944911 0)
(95.16612459 -0.1902918672 0)
(104.7053522 -0.1518309239 0)
(104.7114034 -0.4548504908 0)
(104.7206711 -0.7618325671 0)
(104.7233492 -1.053413681 0)
(104.6437759 -1.312311227 0)
(104.6079202 -1.606200908 0)
(104.5389078 -1.895901138 0)
(104.3967509 -2.161112144 0)
(104.1502026 -2.411767661 0)
(103.696312 -2.624504013 0)
(103.031444 -2.798128867 0)
(99.2888001 -2.755252511 0)
(100.2532765 -2.978278419 -7.491164182e-35)
(99.28932799 -2.939605068 0)
(98.02637251 -2.846985715 0)
(97.01669146 -2.702723398 0)
(96.25699174 -2.509750592 0)
(95.72456372 -2.273088608 0)
(95.32933822 -1.936502194 0)
(95.1684737 -1.636983904 0)
(94.9802003 -1.183539953 0)
(94.90598863 -0.8603213208 0)
(94.85231449 -0.5143102153 0)
(94.82644307 -0.1723739338 0)
(104.9813167 -0.142044578 0)
(104.9870382 -0.4245787314 0)
(104.994227 -0.7105275467 0)
(104.9935387 -0.9793229312 0)
(104.9146312 -1.217410819 0)
(104.8713683 -1.4839966 0)
(104.7891777 -1.74394424 0)
(104.630654 -1.975944121 0)
(104.3508775 -2.190847992 0)
(103.8623693 -2.369415649 0)
(103.1490624 -2.511205735 0)
(99.0073345 -2.436324478 0)
(100.2699424 -2.644442921 0)
(99.2263295 -2.598185528 0)
(97.92020801 -2.510563647 0)
(96.86875377 -2.38317201 0)
(96.06961561 -2.217092409 0)
(95.50245609 -2.014500594 0)
(95.07812949 -1.724214087 0)
(94.89217313 -1.463180669 0)
(94.68871177 -1.06233081 0)
(94.60601668 -0.7747142559 0)
(94.5473795 -0.4635743501 0)
(94.51988989 -0.1556906838 0)
(105.2386284 -0.1325573457 0)
(105.2434094 -0.3953825094 0)
(105.247438 -0.6611228792 0)
(105.2417362 -0.9087633742 0)
(105.161736 -1.127200011 0)
(105.1087262 -1.369261864 0)
(105.0107515 -1.602397557 0)
(104.8340649 -1.806717379 0)
(104.5216604 -1.992310818 0)
(104.0018708 -2.144199836 0)
(103.2365153 -2.260674668 0)
(98.79255064 -2.166160572 0)
(100.2686894 -2.36121791 2.463146598e-35)
(99.16235565 -2.309162797 0)
(97.82338932 -2.225816677 0)
(96.73913818 -2.111511163 0)
(95.90789772 -1.966204606 0)
(95.31087187 -1.790368487 0)
(94.85949015 -1.537762109 0)
(94.64931339 -1.308660213 0)
(94.42970827 -0.9535452593 0)
(94.33761553 -0.6970896555 0)
(94.27334893 -0.4174259017 0)
(94.24372838 -0.1404628016 0)
(105.47816 -0.1235837703 0)
(105.4815307 -0.3678983811 0)
(105.4816373 -0.614672276 0)
(105.469781 -0.8430318056 0)
(105.3873794 -1.043265036 0)
(105.3231146 -1.263486447 0)
(105.2080625 -1.473037242 0)
(105.0120158 -1.654042196 0)
(104.6685495 -1.815712971 0)
(104.1206402 -1.946615759 0)
(103.2995109 -2.042581907 0)
(98.63945896 -1.937299073 0)
(100.2551676 -2.119861986 0)
(99.09827584 -2.063697917 0)
(97.73407688 -1.984118015 0)
(96.62381752 -1.88025106 0)
(95.76631082 -1.751355394 0)
(95.1436727 -1.596877188 0)
(94.66757675 -1.375218727 0)
(94.43463507 -1.172707162 0)
(94.19887777 -0.857190231 0)
(94.09712949 -0.627758319 0)
(94.02701152 -0.3761221098 0)
(93.99498034 -0.1267865386 0)
(105.7011186 -0.1152763334 0)
(105.7027279 -0.3425666865 0)
(105.6983996 -0.571892134 0)
(105.6796415 -0.7829776617 0)
(105.5938415 -0.9666153649 0)
(105.5173978 -1.167575361 0)
(105.3845943 -1.356752899 0)
(105.1688379 -1.517961209 0)
(104.796354 -1.660151895 0)
(104.2228724 -1.774399596 0)
(103.3426791 -1.853561365 0)
(98.54405215 -1.744480381 0)
(100.2328413 -1.913845548 0)
(99.03467026 -1.855105803 0)
(97.65095469 -1.778892538 0)
(96.51991468 -1.68351717 0)
(95.64080438 -1.567805928 0)
(94.99620367 -1.430586479 0)
(94.49775174 -1.234533976 0)
(94.24374491 -1.054211758 0)
(93.99232736 -0.7728395617 0)
(93.88107314 -0.5666411942 0)
(93.80516371 -0.339667125 0)
(93.77060075 -0.1146746149 0)
(105.9089544 -0.1077369778 0)
(105.9085468 -0.3196729354 0)
(105.8994596 -0.5332371793 0)
(105.8733465 -0.7291040833 0)
(105.7834015 -0.8978118664 0)
(105.694267 -1.081971264 0)
(105.5434359 -1.253655911 0)
(105.3081968 -1.398101097 0)
(104.9089317 -1.524476653 0)
(104.3117385 -1.625393359 0)
(103.3697144 -1.690684733 0)
(98.50141262 -1.583179583 0)
(100.2042312 -1.738222101 0)
(98.97187745 -1.678229918 0)
(97.57300017 -1.60499965 0)
(96.4252618 -1.516606094 0)
(95.52828871 -1.411603583 0)
(94.86481619 -1.288443756 0)
(94.34622001 -1.113674754 0)
(94.07288863 -0.9518725523 0)
(93.80655577 -0.6998289999 0)
(93.686178 -0.5134250331 0)
(93.604699 -0.3079096842 0)
(93.56758413 -0.1040875642 0)
(106.103234 -0.1010299021 0)
(106.1006295 -0.2993882806 0)
(106.0866 -0.4989721445 0)
(106.0528929 -0.6816808311 0)
(105.9582381 -0.837121061 0)
(105.8561851 -1.006802226 0)
(105.6872475 -1.163324264 0)
(105.4331538 -1.29392991 0)
(105.0093303 -1.40746986 0)
(104.389695 -1.49764177 0)
(103.3835586 -1.55143248 0)
(98.50495378 -1.449585827 0)
(100.1712114 -1.589484571 0)
(98.91000493 -1.52904559 0)
(97.49937289 -1.458389961 0)
(96.3381732 -1.37575137 0)
(95.42635408 -1.279489414 0)
(94.74660672 -1.167819453 0)
(94.20985773 -1.010764537 0)
(93.91886514 -0.8643766641 0)
(93.63844912 -0.6374118877 0)
(93.50944342 -0.4676816029 0)
(93.42269667 -0.2806183538 0)
(93.38307073 -0.09495836497 0)
(106.2856741 -0.09518974461 0)
(106.2807417 -0.2817976149 0)
(106.261679 -0.4692216874 0)
(106.2202913 -0.6407960655 0)
(106.1204247 -0.7846068185 0)
(106.0054224 -0.9419422376 0)
(105.8185856 -1.085340992 0)
(105.5462563 -1.204732839 0)
(105.0999728 -1.307906609 0)
(104.4586894 -1.389375069 0)
(103.3865777 -1.433578229 0)
(98.54877137 -1.340906673 0)
(100.1347968 -1.464679565 0)
(98.84901486 -1.404243033 0)
(97.42934761 -1.33578497 0)
(96.25727801 -1.257885244 0)
(95.33304547 -1.168757258 0)
(94.63917736 -1.066450024 0)
(94.08604193 -0.9241235058 0)
(93.77890142 -0.7904863229 0)
(93.48516932 -0.5848247822 0)
(93.34807043 -0.4289381701 0)
(93.25637935 -0.2575254062 0)
(93.2143099 -0.08720600158 0)
(106.4577705 -0.09023851077 0)
(106.4504326 -0.2669411384 0)
(106.4263145 -0.444018589 0)
(106.3772701 -0.6065069738 0)
(106.2718906 -0.7401926352 0)
(106.1440411 -0.8871229562 0)
(105.9397037 -1.019456605 0)
(105.6497005 -1.129770361 0)
(105.1828138 -1.224645872 0)
(104.5202708 -1.299069682 0)
(103.3806351 -1.335197663 0)
(98.62697202 -1.254021252 0)
(100.0955524 -1.361290818 -3.669691528e-36)
(98.7888517 -1.301092764 0)
(97.36231447 -1.234516145 0)
(96.18144703 -1.160512308 0)
(95.24675225 -1.077192222 0)
(94.54047251 -0.9825102845 0)
(93.97253521 -0.8523461338 0)
(93.6505626 -0.7290718036 0)
(93.34432176 -0.541400266 0)
(93.19964873 -0.3967270009 0)
(93.10333056 -0.2383695645 0)
(93.05890846 -0.08075242086 0)
(106.6219586 -0.08616724791 0)
(106.6121016 -0.2547962311 0)
(106.5828855 -0.4233244741 0)
(106.5262194 -0.5785925326 0)
(106.4145026 -0.7037509473 0)
(106.2739227 -0.8420260995 0)
(106.0528395 -0.9658325083 0)
(105.74538 -1.068229795 0)
(105.2594924 -1.156692175 0)
(104.5757228 -1.225520752 0)
(103.3672213 -1.254878828 0)
(98.73258165 -1.185997808 0)
(100.0539383 -1.277203425 0)
(98.72947811 -1.217352707 0)
(97.29777851 -1.15242028 0)
(96.10974628 -1.081611326 0)
(95.16615853 -1.002985785 0)
(94.44896366 -0.9146861366 0)
(93.8672366 -0.7943762837 0)
(93.53168473 -0.6792028496 0)
(93.21315247 -0.5063891057 0)
(93.0613766 -0.3706165664 0)
(92.96068053 -0.2228847415 0)
(92.91394396 -0.07550919586 0)
(106.7771655 -0.08302998913 0)
(106.7648715 -0.245449067 0)
(106.7306376 -0.4071484436 0)
(106.6665379 -0.5575499625 0)
(106.5499973 -0.6750158998 0)
(106.3967965 -0.8064205696 0)
(106.159271 -0.9242519215 0)
(105.8352187 -1.01954168 0)
(105.3314831 -1.103221638 0)
(104.6262301 -1.167794965 0)
(103.34768 -1.191606927 0)
(98.85758542 -1.134281082 0)
(100.0105143 -1.210444069 0)
(98.67093194 -1.151199974 0)
(97.23533738 -1.08777117 0)
(96.04136533 -1.019554957 0)
(95.09010485 -0.9446143651 0)
(94.36331428 -0.8612071386 0)
(93.76835745 -0.7489666225 0)
(93.42020879 -0.6397993326 0)
(93.09136692 -0.4797303016 0)
(92.93295931 -0.3502447633 0)
(92.8281648 -0.2109302743 0)
(92.77929009 -0.071453692 0)
(106.9353911 -0.08065962522 0)
(106.9201483 -0.2386208023 0)
(106.8805595 -0.3953067784 0)
(106.8079197 -0.5407261327 0)
(106.6807685 -0.654035634 0)
(106.5142122 -0.7804198129 0)
(106.2604805 -0.8938139734 0)
(105.9206697 -0.9832619589 0)
(105.4000815 -1.063532314 0)
(104.67296 -1.125105523 0)
(103.3233917 -1.144727314 0)
(98.99300278 -1.096639184 0)
(99.96630537 -1.159621595 0)
(98.61333819 -1.101379209 0)
(97.17465031 -1.039302769 0)
(95.97557775 -0.973113947 0)
(95.01749213 -0.9009303081 0)
(94.28175203 -0.8209205888 0)
(93.67463151 -0.7150369519 0)
(93.3145113 -0.6109681917 0)
(92.97072346 -0.4589011967 0)
(92.80519121 -0.3352084746 0)
(92.69621142 -0.2021084304 0)
(92.64484475 -0.06838945986 0)
(107.05843 -0.07959484843 0)
(107.0414123 -0.2351731156 0)
(106.9977554 -0.3888469108 0)
(106.920319 -0.5347502069 0)
(106.8053943 -0.6400863552 0)
(106.6273472 -0.7633648827 0)
(106.357794 -0.8741155687 0)
(106.0030256 -0.9588610135 0)
(105.466411 -1.036890741 0)
(104.7170613 -1.096519951 0)
(103.2959063 -1.113335421 0)
(99.13044797 -1.072821476 0)
(99.92238908 -1.124406711 0)
(98.55667339 -1.067198911 0)
(97.11533164 -1.006153927 0)
(95.91169221 -0.9414047675 0)
(94.94735054 -0.8711285398 0)
(94.20319686 -0.7934197492 0)
(93.58472275 -0.6921375512 0)
(93.21338604 -0.5917092218 0)
(92.87484315 -0.4490982399 0)
(92.70508098 -0.3262116796 0)
(92.59297607 -0.1971072893 0)
(92.5401876 -0.06677283947 0)
(107.2975436 -0.07833154239 0)
(107.2763795 -0.232512984 0)
(107.2245357 -0.3842125662 0)
(107.1312405 -0.5245239379 0)
(106.9225685 -0.634411738 0)
(106.7320466 -0.7556513715 0)
(106.4483799 -0.865187962 0)
(106.083305 -0.9459871713 0)
(105.5312404 -1.022539371 0)
(104.7594002 -1.080886529 0)
(103.2668538 -1.096128728 0)
(99.26454424 -1.063407064 0)
(99.87905803 -1.104870748 0)
(98.50072313 -1.048238481 0)
(97.05696622 -0.9877533151 0)