/*--------------------------------*- C++ -*----------------------------------*\
| =========                 |                                                 |
| \\      /  F ield         | OpenFOAM: The Open Source CFD Toolbox           |
|  \\    /   O peration     | Version:  v1912                                 |
|   \\  /    A nd           | Website:  www.openfoam.com                      |
|    \\/     M anipulation  |                                                 |
\*---------------------------------------------------------------------------*/
FoamFile
{
    version     2.0;
    format      ascii;
    class       surfaceVectorField;
    location    "3";
    object      Uf;
}
// * * * * * * * * * * * * * * * * * * * * * * * * * * * * * * * * * * * * * //

dimensions      [0 1 -1 0 0 0 0];


internalField   nonuniform List<vector> 
25162
(
(99.99947025 0.00191291896 -1.848566777e-21)
(99.99820859 0.001536753625 5.471624716e-21)
(99.99891905 0.00568218298 -1.829610809e-21)
(99.99647204 0.006271315162 1.836541885e-21)
(99.99783439 0.01332876957 -3.653344004e-21)
(99.99284447 0.01631338834 1.1000421e-20)
(99.99882495 0.01732854738 1.143327778e-21)
(99.98600191 0.03606473191 -7.285860477e-21)
(99.99354674 0.03925432566 -1.215940292e-21)
(99.99762075 0.03259551715 1.769583703e-21)
(99.99929992 0.01986975724 8.822704723e-22)
(99.99224831 0.05905546764 1.763579824e-21)
(99.99820913 0.0341119447 8.66955347e-22)
(99.9986755 0.02582117445 -8.863090855e-22)
(99.99773636 0.04466534976 8.66919938e-22)
(99.9875761 0.1019118133 1.729120409e-21)
(99.99744607 0.05795237754 0)
(99.99724429 0.0729552202 -3.231760973e-21)
(99.98315159 0.1629396672 -3.231744153e-21)
(99.99681111 0.09097862521 -8.398943572e-22)
(99.99627214 0.1122843135 2.818720057e-21)
(99.97692646 0.2481093875 3.105778618e-21)
(99.99572666 0.1369887425 3.840708346e-22)
(99.99521808 0.1650194668 -2.639379488e-21)
(99.97098942 0.3601460658 3.725835134e-22)
(99.99480318 0.1960693448 -2.762451473e-21)
(99.99455897 0.2294380531 1.578558089e-22)
(99.9678319 0.4930764348 -1.886385786e-21)
(99.9945918 0.2638684188 2.423536879e-21)
(99.99497712 0.2976080253 2.149306957e-21)
(99.97117506 0.6272952162 -9.712182536e-22)
(99.99570356 0.328518598 0)
(99.996726 0.3543723331 0)
(99.98223678 0.7304365551 2.656675437e-22)
(99.99791697 0.3734203382 0)
(99.99916972 0.3842637318 6.203106178e-23)
(99.99799759 0.7741375897 -1.410761843e-24)
(100.000579 0.3864554555 5.96394343e-22)
(100.0019957 0.3793505361 1.335000023e-22)
(100.0143708 0.7462554805 -4.053919791e-22)
(100.0031835 0.36398875 -6.555596851e-22)
(100.0041034 0.3419262576 9.180048083e-23)
(100.0251767 0.6584714049 1.440174525e-21)
(100.0047039 0.3150258702 3.599373413e-22)
(100.0049893 0.2852028496 0)
(100.028897 0.5398623714 0)
(100.0050182 0.254313367 0)
(100.0050101 0.2237057314 6.952995417e-22)
(100.027041 0.418510985 1.443807939e-21)
(100.0052631 0.1948026437 -3.528592539e-21)
(100.005222 0.1662382433 -1.303907698e-21)
(100.0238574 0.3059246089 2.878056976e-21)
(100.0046042 0.1407428971 2.877842211e-21)
(100.0034641 0.1188501211 -8.361099822e-22)
(100.0147121 0.2162329049 -5.951192217e-23)
(100.0007524 0.1031354767 1.616222752e-21)
(100.0100117 0.1038718064 -7.34901353e-21)
(100.0556441 0.2529475447 6.198722635e-22)
(100.0192085 0.2225482329 -2.638656502e-21)
(100.003097 0.1039484706 -1.565354329e-21)
(100.0073644 0.06140758125 -9.347349903e-22)
(100.0397146 0.1584767136 1.479418106e-20)
(100.0062959 0.02909129882 -7.518934946e-21)
(100.0303648 0.08610671261 -1.577601917e-20)
(100.027416 0.02753812028 1.520571308e-21)
(99.99499248 0.00499389865 9.142720838e-21)
(99.9935176 0.001702176054 1.987554947e-22)
(99.98970876 0.01524792517 1.464154771e-20)
(99.98686869 0.008294641622 -1.276462753e-20)
(99.97995321 0.0364166055 7.623431783e-21)
(99.97304059 0.02473256727 -1.98832739e-20)
(99.9736549 0.0679089477 -1.280953724e-21)
(99.95014406 0.05814460577 3.824130418e-20)
(99.95429894 0.08164668349 -8.444761521e-21)
(99.95975446 0.08891035726 -1.808486848e-21)
(99.96880119 0.09109554148 3.582154779e-21)
(99.98144963 0.06342650593 1.780623478e-21)
(99.96873105 0.1150753661 1.750405841e-21)
(99.95887674 0.123364031 1.775167898e-21)
(99.93036134 0.1650268029 -3.575817462e-21)
(99.94766432 0.1643856108 -1.243908204e-23)
(99.94995754 0.1981381661 1.729391773e-21)
(99.93412443 0.2158648491 -1.214229452e-23)
(99.89113309 0.284851859 0)
(99.92709329 0.2602543876 0)
(99.90655233 0.2972797649 -2.164046212e-21)
(99.92871184 0.3092112692 -4.270186566e-21)
(99.92075339 0.3234663241 -4.019571702e-23)
(99.89701414 0.3753724801 -9.606724912e-21)
(99.91331411 0.3573202464 -3.302239708e-21)
(99.88819475 0.5000979947 2.999827984e-23)
(99.90132489 0.4747957407 -2.20205296e-21)
(99.85664518 0.5798213298 -1.20883966e-20)
(99.88085245 0.5478243687 -2.940822259e-21)
(99.85571821 0.7383299744 -5.662208112e-21)
(99.87446144 0.6950386193 -5.302792754e-21)
(99.81663316 0.8534343659 4.014956712e-22)
(99.84970069 0.8000985373 -6.805540539e-21)
(99.83293567 1.031991918 -9.223706858e-23)
(99.85783808 0.9614074132 -4.606390024e-21)
(99.7910074 1.1878871 -3.522017031e-21)
(99.83214532 1.103372528 -3.48037463e-21)
(99.83943997 1.34611636 -4.400679193e-21)
(99.8690847 1.23795468 -5.834760711e-21)
(99.80416666 1.541589928 -3.435432678e-21)
(99.84886037 1.415405525 -1.825816908e-21)
(99.8888625 1.609316531 1.302103672e-21)
(99.91976302 1.459295137 -2.405212351e-22)
(99.87081563 1.828650741 -1.485649591e-21)
(99.90787036 1.661585909 9.147066702e-22)
(99.96924067 1.743690291 -1.323663029e-22)
(99.99527472 1.560243368 -5.107507514e-22)
(99.97218607 1.961472853 1.964983871e-21)
(99.99084814 1.768209506 -2.793373649e-22)
(100.0550947 1.720892589 -1.455768014e-22)
(100.0555405 1.514040661 -1.888363898e-22)
(100.0743172 1.908908473 -9.23549972e-23)
(100.0746367 1.700628914 1.328309405e-21)
(100.121901 1.549142628 1.844966041e-21)
(100.0946173 1.34132888 3.204626438e-21)
(100.1478663 1.693199829 3.220892469e-21)
(100.1316442 1.492042291 4.576984786e-22)
(100.1505043 1.287923125 -5.600356192e-21)
(100.1078689 1.101356776 -5.258751032e-21)
(100.1758578 1.388799031 -1.880429977e-21)
(100.1510498 1.215085161 -1.875021051e-21)
(100.145508 1.009893854 -4.65004946e-21)
(100.0972373 0.8558355377 4.328863594e-22)
(100.1625413 1.074516044 -1.268599958e-21)
(100.1399247 0.9399773961 5.190102765e-21)
(100.0962769 0.606878061 -1.239950564e-20)
(100.1517574 0.8219331638 -1.239854223e-20)
(100.2163801 0.8974176677 1.256344356e-20)
(100.1344133 0.6934133454 -2.556991492e-20)
(100.1160095 0.5806274627 1.105304844e-20)
(100.1624899 0.6247895465 -1.607776149e-20)
(100.0962795 0.4839397177 2.243062235e-20)
(100.0720092 0.4251427365 2.495262853e-20)
(100.0945871 0.303046839 2.192048828e-20)
(100.2114239 0.475052177 -2.492464994e-22)
(100.1590868 0.5227656457 4.534675345e-20)
(100.0936857 0.4149270909 2.501199126e-21)
(100.0708337 0.1797222922 -7.089480378e-22)
(100.1554495 0.2968207263 3.15625626e-20)
(100.0584374 0.08354300067 -7.321461426e-21)
(100.1210457 0.1611295237 -1.674318593e-20)
(100.1062182 0.05132804051 7.519409373e-21)
(99.98734827 0.004019136034 -2.192524531e-20)
(99.98973381 -0.0008296644575 -1.09573932e-20)
(99.97267336 0.01596441471 -4.756110626e-20)
(99.97565523 0.001830601401 1.040669066e-20)
(99.94633354 0.04468321528 1.061288014e-20)
(99.94613899 0.01807715205 -4.027292459e-20)
(99.91508799 0.0974890506 2.434542323e-20)
(99.89849627 0.05498191401 4.384570578e-20)
(99.88662089 0.1025486817 -3.902029398e-20)
(99.92492064 0.1081812182 -7.271369895e-21)
(99.88613841 0.1182590125 -5.36329497e-20)
(99.8945475 0.139000338 -3.624127772e-21)
(99.87855268 0.2057819412 -7.146321575e-21)
(99.86555649 0.1929038682 -3.564167003e-21)
(99.81499605 0.2344089957 2.495698354e-20)
(99.83066954 0.2609928163 7.060401427e-21)
(99.81152796 0.3599719252 -6.205877739e-21)
(99.78925765 0.3460999652 4.545318638e-21)
(99.71259909 0.4194935318 -3.524756879e-20)
(99.76232716 0.4370433342 2.511430575e-21)
(99.72394957 0.4667822848 -1.539128288e-20)
(99.74391708 0.5630581609 -6.449221087e-21)
(99.72564422 0.5574381602 0)
(99.67776214 0.6165896843 6.630555197e-21)
(99.69991255 0.6281604178 -6.442226819e-21)
(99.64279745 0.8849964215 3.180648043e-21)
(99.61454396 0.8842379183 1.250043384e-20)
(99.54943711 0.9760529394 6.206159241e-21)
(99.58464025 0.9840676799 1.555299904e-20)
(99.53790415 1.325103943 -2.239387091e-20)
(99.49563116 1.335731974 -2.301720696e-20)
(99.41383722 1.474799016 -5.492988349e-22)
(99.46785525 1.469665965 4.264158277e-21)
(99.46436788 1.893691675 0)
(99.40218008 1.931247608 0)
(99.31560576 2.138309742 0)
(99.39137963 2.098047727 0)
(99.49711689 2.521203005 4.878786643e-19)
(99.41671009 2.611172078 8.610638267e-20)
(99.35867862 2.874560395 -9.448920067e-19)
(99.44860286 2.772540972 1.968801857e-20)
(99.68814811 3.012775601 2.573630968e-19)
(99.59356086 3.168905989 -9.537689945e-20)
(99.61506153 3.444581708 -6.317332148e-20)
(99.65827196 3.261780007 2.743941477e-20)
(99.94089508 3.241112277 1.656806004e-20)
(99.89772007 3.452342482 1.608249636e-21)
(99.94014009 3.705627792 -2.310530904e-22)
(99.98192204 3.468316276 3.432880852e-20)
(100.2170368 3.137225685 7.098067198e-22)
(100.2171763 3.380817206 4.78553733e-20)
(100.2939305 3.568237502 1.366423326e-21)
(100.2860454 3.308397847 1.375217934e-21)
(100.4097732 2.756658444 2.263342931e-21)
(100.4484482 2.999565248 4.162503048e-21)
(100.5316495 3.119839375 1.466473665e-21)
(100.4853969 2.869594344 4.871493578e-21)
(100.4816857 2.234135709 -5.263581679e-21)
(100.5448016 2.448526957 -1.211111355e-20)
(100.6204568 2.51411646 -4.282778142e-21)
(100.5482529 2.300176763 4.918740783e-21)
(100.523436 1.86883577 -1.580877355e-20)
(100.4546806 1.696813769 -1.070290262e-20)
(100.5830294 1.897099453 -1.071733591e-20)
(100.5101072 1.731451572 5.791435289e-21)
(100.3835644 1.172442256 -4.89692036e-20)
(100.5071434 1.425624833 -2.564685591e-20)
(100.6003993 1.427082435 -7.42133591e-20)
(100.4506468 1.195007282 -3.430699059e-20)
(100.2926275 0.8107301033 -5.730570299e-20)
(100.3936454 0.9931745879 2.2512022e-20)
(100.4563044 0.9772438544 -2.717645686e-20)
(100.3387185 0.8189658332 -2.379825684e-20)
(100.2655158 0.4647742222 1.008410369e-20)
(100.4541433 0.6402442167 -2.470756675e-20)
(100.4145923 0.7671822955 -1.963034655e-22)
(100.3100598 0.6795569906 -1.422607801e-20)
(100.1998621 0.2746452793 1.475076968e-20)
(100.3343552 0.3961404459 2.638052084e-20)
(100.1639914 0.127250323 -1.890353037e-21)
(100.2601105 0.2139628767 -3.828440899e-21)
(100.2262277 0.06773819338 0)
(99.98144319 -0.003704537612 2.20061682e-20)
(99.99324187 -0.007101181061 -3.666351605e-21)
(99.95356946 0.002370523124 1.848708353e-20)
(99.96997453 -0.01652134395 2.568980221e-20)
(99.90370673 0.02866930177 -7.353420844e-21)
(99.92143301 -0.009959125683 -3.661374793e-21)
(99.83739125 0.09659799705 0)
(99.84082955 0.01982389946 5.593088121e-21)
(99.80610037 0.08368065634 1.708271753e-20)
(99.8420666 0.118691999 -5.011279401e-20)
(99.7952775 0.1078402326 1.284346053e-20)
(99.79353724 0.1464538021 0)
(99.74209081 0.2481003748 3.073703146e-22)
(99.73569277 0.2129899145 -2.855864692e-20)
(99.66168471 0.2447170176 -2.853943472e-20)
(99.66618998 0.2991323815 5.797915737e-20)
(99.59957952 0.4577596427 -8.635324734e-20)
(99.58405177 0.4079492081 2.996514162e-20)
(99.47320588 0.4689390975 -5.766361777e-20)
(99.51177737 0.5399964304 -2.867230287e-20)
(99.46027812 0.549501491 -4.717759433e-20)
(99.43847685 0.7387442761 6.857472883e-21)
(99.42106186 0.7070961296 1.365084496e-20)
(99.34686162 0.7646107176 3.440812447e-20)
(99.36499493 0.8050638797 6.802750132e-21)
(99.20547715 1.202759359 2.056726466e-19)
(99.17496473 1.163944307 2.259373465e-19)
(99.0697289 1.26214769 2.083593099e-19)
(99.10455777 1.311602551 -3.837769436e-19)
(98.93526962 1.912126907 4.125709594e-19)
(98.87893884 1.872774543 3.248404431e-20)
(98.7385483 2.050990157 -1.052277824e-18)
(98.8063828 2.099961356 4.162722061e-19)
(98.73874102 2.901756709 -6.158145015e-19)
(98.64197374 2.887759995 4.161457646e-20)
(98.4932999 3.16958585 0)
(98.61325167 3.181812213 1.104776168e-20)
(98.81828484 4.052765268 -4.821893919e-19)
(98.64867016 4.09860489 -4.263064386e-19)
(98.58463833 4.491526143 1.529250967e-19)
(98.71752269 4.393046468 -2.254056878e-19)
(99.33714156 4.950152389 1.28578267e-18)
(99.14477297 5.127709947 -8.687637463e-19)
(99.23756875 5.534563254 6.462293452e-19)
(99.33483971 5.296650818 1.018162778e-18)
(100.03038 5.26109937 -1.505868289e-21)
(99.96035938 5.536334643 -2.152421698e-19)
(100.1084749 5.845102309 1.529729199e-19)
(100.1637618 5.520937633 -1.214542682e-19)
(100.6741675 4.939580945 6.054517162e-19)
(100.6889973 5.246083796 3.431696686e-19)
(100.8714703 5.423914358 5.980444632e-19)
(100.8270494 5.094248075 2.680811499e-19)
(101.0473935 4.228219443 1.988761042e-19)
(101.1216018 4.520217129 -3.162343952e-19)
(101.2842494 4.596658347 -3.111212615e-19)
(101.1819881 4.30006189 4.960505147e-19)
(101.1578301 3.330354297 -5.796637407e-22)
(101.2647538 3.587780318 -1.846763745e-19)
(101.3887195 3.590672884 -8.48346152e-20)
(101.2617812 3.341698309 1.481304015e-19)
(101.1896579 2.656177496 0)
(101.0762368 2.462386461 4.24116345e-20)
(101.2741516 2.631410044 0)
(101.1484873 2.445884656 0)
(100.8662623 1.652645027 2.758084171e-20)
(101.0755941 1.932858742 1.780395929e-20)
(101.1786555 1.839605945 -1.638357617e-20)
(100.9464212 1.599863086 3.468024522e-20)
(100.6545178 1.118048309 -3.195844037e-20)
(100.8219167 1.313448067 -1.427680237e-20)
(100.8847332 1.227730297 -1.441850978e-20)
(100.7057227 1.068138051 -6.859548575e-21)
(100.5077024 0.5663616874 -8.607022135e-21)
(100.7564707 0.7201826549 -1.892110485e-20)
(100.7683721 0.9074132242 -2.487655657e-21)
(100.6283291 0.8680126175 4.546395251e-21)
(100.38208 0.332030953 7.616369603e-21)
(100.5553102 0.4396183166 1.162109803e-20)
(100.3116965 0.1526496603 -1.937745075e-21)
(100.4292984 0.2346142846 -3.432697867e-21)
(100.3701909 0.07361711168 -4.96350278e-22)
(99.9855947 -0.02011829333 0)
(100.0122324 -0.01766147294 0)
(99.94270382 -0.02965341454 3.681790299e-21)
(99.97902748 -0.04833829119 0)
(99.86553102 -0.01824719733 9.263149175e-21)
(99.9107781 -0.06270403418 -3.27068623e-21)
(99.75577591 0.04185242906 1.640665394e-20)
(99.79644619 -0.05263890599 2.056355339e-20)
(99.72480372 0.01627833796 -6.199506774e-21)
(99.75053895 0.08450891069 2.211394881e-20)
(99.69791864 0.04831990134 1.811385031e-21)
(99.68201266 0.09803751222 -8.831530638e-21)
(99.57802946 0.2224001233 0)
(99.58770927 0.1673045132 -1.847311403e-20)
(99.4940758 0.1798599506 -1.512764106e-20)
(99.47494969 0.2570371955 3.768120392e-21)
(99.33738688 0.4513454388 0)
(99.34116319 0.3736651105 3.767716965e-21)
(99.19748301 0.4051365067 -3.869584792e-21)
(99.20846126 0.5325825144 1.895700538e-20)
(99.15249428 0.513375543 4.861130077e-21)
(99.04769707 0.7809805951 2.472215911e-19)
(99.04305921 0.7223861008 2.823291081e-20)
(98.94155788 0.766097961 -6.538933345e-22)
(98.94474532 0.8354595373 -7.7455394e-20)
(98.59828979 1.384562861 2.997834525e-19)
(98.58254256 1.29799194 -1.347308344e-20)
(98.42283713 1.398715938 3.084430159e-19)
(98.43885659 1.50469822 5.07417407e-19)
(98.03351517 2.409310913 0)
(97.97880881 2.30060146 0)
(97.75494108 2.501255062 0)
(97.8206173 2.636644885 -7.620618569e-19)
(97.54106165 3.99584806 2.872371023e-23)
(97.40338835 3.892015406 1.140806666e-20)
(97.1358831 4.261899888 -7.315874268e-19)
(97.31713116 4.387777981 7.226460288e-19)
(97.64998786 5.996372245 0)
(97.39637952 6.009684505 7.616117567e-19)
(97.22884196 6.571252509 0)
(97.57382725 6.548026931 0)
(98.91637585 7.64360441 -2.74169624e-20)
(98.54164543 7.895871261 4.411934836e-19)
(98.79170068 8.498983381 -1.55665865e-19)
(99.01387995 8.144835296 -2.369257639e-20)
(100.5789045 7.865959047 0)
(100.4705814 8.290018985 0)
(100.8408281 8.652467332 0)
(100.8983293 8.145455423 -3.181112807e-19)
(101.7736017 6.94756693 -1.627455195e-18)
(101.8555389 7.362958336 -6.36498247e-19)
(102.2054033 7.465085601 -1.112692088e-18)
(102.0638673 7.036998428 -4.873632013e-19)
(102.260693 5.63414522 -6.757019408e-19)
(102.4278873 5.976397321 0)
(102.6952262 5.946961524 -9.143866985e-19)
(102.4784863 5.616138543 0)
(102.2642185 4.297995387 2.287212882e-19)
(102.4551473 4.572495257 4.367148575e-19)
(102.6187182 4.4893737 4.893657306e-19)
(102.4018697 4.233361636 -2.738377699e-19)
(102.1553981 3.262145938 -1.221439067e-20)
(101.9745509 3.051771119 -3.697559765e-21)
(102.2486036 3.158177907 1.74223533e-20)
(102.0529975 2.970015102 2.147106712e-20)
(101.532853 1.976850828 -9.096178057e-20)
(101.8385877 2.254114935 -5.772983908e-20)
(101.921047 2.052805988 -3.249363481e-20)
(101.6033033 1.840841299 -1.681293203e-20)
(101.1417175 1.301058446 1.122576287e-20)
(101.3814633 1.488683898 3.3714241e-20)
(101.4194682 1.333469768 -3.825165007e-21)
(101.1816392 1.19291495 -3.710259193e-21)
(100.7909296 0.5916495575 1.991233023e-21)
(101.0942304 0.6879538273 0)
(101.1890326 0.9527527631 -1.448277763e-22)
(101.0301853 0.9474871106 -1.016187075e-20)
(100.5902524 0.3395393319 4.394566925e-22)
(100.7930843 0.4137851779 1.991053506e-21)
(100.4768765 0.1540513819 -1.999131249e-21)
(100.6042665 0.2154997289 -2.001737316e-21)
(100.515494 0.06671422581 -2.024354777e-21)
(100.0093174 -0.04571641781 0)
(100.055376 -0.03250818266 1.799425146e-21)
(99.95145941 -0.08126108113 -7.391189388e-21)
(100.012635 -0.09346780236 -1.812062075e-21)
(99.84700823 -0.09678831305 7.586035918e-21)
(99.92557734 -0.1400042997 -3.697183964e-21)
(99.68655741 -0.0538730454 9.986003885e-21)
(99.77836607 -0.1639841394 2.53918002e-21)
(99.66613452 -0.1006027608 1.364779505e-23)
(99.66174263 -0.00242313696 -7.447461215e-21)
(99.6193522 -0.06609436415 -7.469700521e-21)
(99.57976498 -0.008757305058 0)
(99.41438631 0.1162469899 -1.512726762e-20)
(99.44858052 0.04710570276 0)
(99.34279955 0.03158333122 -7.527759445e-23)
(99.2896922 0.1236794157 -4.613227267e-23)
(99.05912402 0.3292240299 7.763611263e-21)
(99.09804519 0.226416355 1.16736345e-20)
(98.9318902 0.2222972874 1.567183649e-20)
(98.89562527 0.3808219851 8.209808759e-21)
(98.84207498 0.3439422066 -2.258571215e-20)
(98.61725577 0.6595840414 -1.153955768e-19)
(98.63932079 0.5774791927 -1.50252018e-20)
(98.50949901 0.6016193914 -1.135810133e-19)
(98.48010691 0.6977680842 0)
(97.85892393 1.340510736 4.207390509e-19)
(97.87883859 1.209820126 1.996107589e-19)
(97.66854994 1.281943291 6.376841426e-19)
(97.64088845 1.438569314 4.238824381e-19)
(96.7930255 2.601528811 1.304750531e-19)
(96.77872281 2.392308032 2.231536644e-19)
(96.4325704 2.564681386 4.28769277e-19)
(96.44807475 2.825291768 -4.176043889e-19)
(95.59156039 4.874462013 0)
(95.44066751 4.579445173 -5.841594869e-20)
(94.95486426 4.95917105 -1.64303498e-20)
(95.15848284 5.338765425 -1.272954397e-19)
(95.34077888 8.397394815 0)
(94.85233133 8.160576232 0)
(94.38932995 8.966202171 0)
(95.07686867 9.243997008 0)
(98.00699265 11.77669214 1.311464099e-19)
(97.2751888 12.12869938 1.289153111e-19)
(97.56567505 13.24320606 5.188142374e-20)
(98.44481942 12.65083942 1.57021278e-19)
(102.1435536 11.49504611 2.470469165e-19)
(101.9716422 12.30648075 -3.855749252e-20)
(102.8178904 12.66245042 1.536568058e-19)
(102.8359573 11.71730896 -2.668484829e-19)
(104.0615346 8.981574779 8.987606332e-19)
(104.3172544 9.577371001 2.89337078e-20)
(104.9077663 9.451177346 6.39581577e-19)
(104.5340955 8.879343258 -2.725681496e-19)
(104.3095648 6.68597159 -1.245288712e-18)
(104.6454699 7.046847526 -4.447742497e-20)
(104.9590168 6.838273029 -1.148245375e-18)
(104.5735253 6.51791533 -1.240720033e-18)
(103.8761493 4.867530354 5.752656565e-19)
(104.1895372 5.117918653 -8.116304372e-19)
(104.3552422 4.908190514 0)
(104.0214481 4.69753525 2.967488672e-19)
(103.4519983 3.540927701 -1.564445112e-20)
(103.1787061 3.345115975 -1.607606363e-20)
(103.5247392 3.348809044 -3.300418411e-20)
(103.2466447 3.183477487 -1.452021856e-20)
(102.3357066 2.056574253 2.639328641e-20)
(102.7445971 2.290324231 -2.635747555e-22)
(102.7633807 1.977674127 1.629815731e-20)
(102.3630082 1.834743135 1.211556381e-20)
(101.7045966 1.316526199 -1.603268035e-20)
(102.0153895 1.461066248 -8.207665291e-21)
(101.9956099 1.243033474 -8.20925541e-21)
(101.7051202 1.151728224 1.263734946e-20)
(101.0803346 0.5163269116 0)
(101.4243334 0.5326025738 1.348322997e-21)
(101.6126435 0.8314296997 -1.11154668e-20)
(101.459814 0.9011427767 2.746453859e-20)
(100.7932007 0.2877231759 -5.070918991e-22)
(101.0086634 0.3083340479 -1.591563197e-21)
(100.6318682 0.1276465003 -2.036685229e-21)
(100.7552298 0.1523530135 -2.319949901e-21)
(100.6358846 0.04599448836 2.582174375e-21)
(100.0618359 -0.07981517144 -1.206398329e-23)
(100.1306774 -0.05110649687 4.906225626e-23)
(99.99064225 -0.1510971981 1.879161515e-21)
(100.0799279 -0.1502014177 -5.921605769e-23)
(99.8620199 -0.2060673767 -9.870561849e-21)
(99.9775581 -0.2386157186 1.469951752e-21)
(99.65374332 -0.2006809059 -9.00542175e-21)
(99.80369916 -0.3091694246 -1.500470432e-20)
(99.65017183 -0.2645710979 -1.272771955e-20)
(99.60363975 -0.1443947231 -7.044535415e-21)
(99.58183175 -0.2339336472 -2.763683871e-21)
(99.51472894 -0.177377349 3.886667235e-23)
(99.28345465 -0.07337026554 1.132753249e-20)
(99.34862902 -0.1485242947 1.148428243e-20)
(99.24007419 -0.1972533061 5.679985155e-21)
(99.14777444 -0.1023659109 1.94892332e-20)
(98.8199576 0.08405295027 1.234236218e-20)
(98.90360958 -0.03368547617 1.629505286e-20)
(98.7295665 -0.08346288536 -2.340423362e-20)
(98.62655919 0.09468423639 4.560205213e-20)
(98.58779263 0.03248862467 -7.411241885e-20)
(98.20943223 0.3569700685 -1.156391371e-19)
(98.26997513 0.2603498303 1.109495054e-19)
(98.12149256 0.2526888323 1.137721317e-19)
(98.04727373 0.3628437677 5.542409566e-19)
(97.12489334 0.9625745485 -4.352403416e-19)
(97.20952112 0.7983539307 2.350674753e-19)
(96.96356858 0.8095405003 -2.193211941e-19)
(96.85028666 1.002696203 9.927128193e-21)
(95.3542301 2.172579943 5.130265151e-19)
(95.45422772 1.88284748 3.296050647e-19)
(95.02454241 1.93143206 3.173489179e-19)
(94.87830756 2.288118041 1.54268674e-19)
(92.79622448 4.527397819 1.4888063e-19)
(92.81661563 3.995188458 0)
(92.08439794 4.095077717 1.744543316e-19)
(92.02341051 4.798860009 0)
(89.98398821 9.7300481 -3.324927709e-19)
(89.44926584 8.63477136 -4.310119735e-20)
(87.76746096 9.623825427 -5.924765322e-20)
(88.05132097 8.983541045 -5.887947424e-20)
(89.07335164 10.94123791 1.798518504e-19)
(88.23970944 10.91579212 -5.859537228e-20)
(92.81934702 19.97032721 1.629897712e-20)
(94.03428631 19.76786915 1.758436683e-19)
(93.06165367 21.58672046 -3.591106138e-19)
(94.60852829 21.04353098 -8.790958444e-20)
(106.2384877 18.49327063 1.154212217e-19)
(106.4487504 16.98560517 -1.15133032e-20)
(107.9494479 16.72336376 2.237355889e-19)
(106.9486781 19.32827821 -4.746100644e-19)
(108.8147525 18.27238298 -1.484882937e-19)
(108.4253783 18.94494512 -1.278691664e-18)
(108.8773195 11.25610273 -4.699342865e-20)
(108.1802827 10.47661759 -7.807706166e-19)
(109.5275515 10.58465474 -3.075524842e-19)
(108.7017097 9.985605295 -2.195852599e-19)
(107.2208487 6.879576227 1.717704309e-18)
(107.8003405 7.181739154 8.818502451e-19)
(108.0596909 6.707705632 1.839244051e-18)
(107.4525886 6.496783503 -9.557585647e-19)
(105.9280634 4.707872779 0)
(106.377257 4.861301123 2.248448377e-19)
(106.4645242 4.508417143 -4.453825432e-19)
(106.0168631 4.411397145 1.992952541e-19)
(104.9431694 3.236020627 1.618778176e-19)
(104.5822452 3.127354212 1.664943075e-19)
(104.9379141 2.968387909 3.439181326e-19)
(104.588446 2.8878602 4.894180437e-20)
(103.1894533 1.807902364 4.34524262e-21)
(103.7051174 1.935647712 -9.170477223e-21)
(103.5930053 1.54083743 -2.602049617e-21)
(103.1287143 1.507238009 -4.6220734e-21)
(102.2729026 1.105830947 4.602037742e-21)
(102.6354104 1.171362588 -1.66101726e-23)
(102.5337596 0.9086715942 -7.379917235e-21)
(102.2086054 0.8947103344 9.32438819e-21)
(101.3295485 0.3325975667 -1.596809971e-22)
(101.6734528 0.2552741892 -3.107295909e-22)
(101.9904842 0.5404319204 8.056353138e-22)
(101.8599559 0.6532759743 6.743065875e-21)
(100.9557052 0.1730027134 -3.415031552e-21)
(101.1590891 0.123600968 -2.373918096e-22)
(100.7479524 0.0716354114 2.528401198e-21)
(100.8507879 0.04701536504 -2.347885287e-21)
(100.7034415 0.01201379455 4.487785333e-22)
(100.1511308 -0.1208296372 1.271756744e-23)
(100.2446595 -0.07245555784 -2.665174137e-21)
(100.0697791 -0.2357440974 -4.831516115e-22)
(100.1883456 -0.2154329916 1.161864109e-21)
(99.92302658 -0.3399562236 -3.821774339e-21)
(100.0759142 -0.3526440908 -2.517875521e-21)
(99.67429409 -0.3863162177 7.853347701e-21)
(99.88449648 -0.478456635 -8.655780221e-22)
(99.69348864 -0.4647482508 8.090096981e-22)
(99.5953747 -0.3352815817 3.810613599e-21)
(99.60492936 -0.4433275764 7.934267712e-21)
(99.50896025 -0.3963618042 5.585388959e-21)
(99.21674818 -0.3365804643 -1.913871347e-21)
(99.31624876 -0.4063810457 2.93938847e-21)
(99.21579617 -0.4885211071 1.944183998e-21)
(99.08274139 -0.4052514284 5.884120376e-21)
(98.66622611 -0.2754269665 -1.778574202e-20)
(98.79886957 -0.3891981902 1.616852398e-20)
(98.63421764 -0.4861287914 -1.91306723e-21)
(98.46147843 -0.3133337348 9.752620351e-21)
(98.44551692 -0.3958228602 8.935039344e-20)
(97.92004117 -0.1250964759 2.433849135e-19)
(98.02427545 -0.2200797751 3.578041347e-19)
(97.87829004 -0.2675461034 1.301276873e-19)
(97.75909041 -0.165246723 1.272185244e-20)
(96.58313585 0.229135492 1.480054363e-20)
(96.74711238 0.06886210868 2.572926562e-19)
(96.50420868 0.005102036325 1.481231364e-20)
(96.29785165 0.1809652739 -6.671224529e-23)
(94.26755782 0.9229662769 -3.316595164e-20)
(94.52757605 0.6406293643 3.817056102e-20)
(94.12189986 0.5263545472 7.094250472e-20)
(93.78208676 0.8322946693 5.705621559e-21)
(90.57815431 1.983312634 -1.86628937e-19)
(90.97778176 1.468226792 2.079287482e-19)
(90.40044962 1.149116451 -1.087593323e-22)
(89.81277702 1.66928753 -2.352584636e-20)
(83.86163328 3.222382916 0)
(84.45322351 2.577471565 2.542954518e-19)
(83.85880358 1.963726702 0)
(83.00791005 2.599409801 0)
(121.2329191 22.71082987 1.175634444e-18)
(119.6300162 21.60910468 5.898606705e-19)
(121.9953853 20.96835797 0)
(120.4005118 20.23659314 0)
(115.6651823 9.960875684 -2.909578654e-19)
(114.2150688 9.516909842 1.552707784e-19)
(115.7454461 8.570056985 -2.831475896e-19)
(114.3697881 8.434280569 -2.766443755e-19)
(110.5589714 5.473032689 -2.694490942e-19)
(111.3661649 5.521175606 3.511077922e-21)
(111.3340119 4.818821984 3.054793395e-19)
(110.5724119 4.886597021 2.220199517e-19)
(108.0125444 3.513994684 -9.359638674e-22)
(108.5608511 3.491845292 5.239479256e-19)
(108.4806437 3.04519993 -2.66533126e-19)
(107.9727891 3.131361207 2.593673226e-19)
(106.3458954 2.210083802 3.853480973e-19)
(105.9319363 2.223148569 2.032193914e-19)
(106.2210675 1.889224811 2.968286074e-19)
(105.8373686 1.942203883 5.885097188e-19)
(103.9475985 1.17817684 -5.085069417e-21)
(104.5306031 1.145850842 -4.579972099e-20)
(104.2321584 0.7307035725 8.265109051e-21)
(103.7591292 0.8435770334 1.204104337e-21)
(102.7467032 0.6551648638 -1.956394993e-21)
(103.1278634 0.6139758881 1.416746677e-20)
(102.91633 0.35209426 5.202241994e-21)
(102.6014279 0.4339087312 1.02791246e-20)
(101.4858243 0.05132926802 -3.44766549e-22)
(101.7942464 -0.1245316923 -1.083429808e-21)
(102.2324053 0.09355546119 -1.10574945e-21)
(102.1607611 0.2656570968 -1.330025329e-21)
(101.0413985 -0.000915123909 1.08924186e-21)
(101.2082686 -0.125120973 1.354544764e-21)
(100.7960064 -0.01131605391 -4.375618039e-21)
(100.8605498 -0.09199091298 1.663002869e-21)
(100.6927527 -0.03276937334 -2.172559374e-21)
(100.283145 -0.1662745211 -1.515993905e-21)
(100.4015071 -0.09520722543 8.399964094e-22)
(100.1959853 -0.3298081325 -8.812401584e-22)
(100.3426278 -0.2849818129 -6.23996339e-22)
(100.0392276 -0.4892614558 4.494038263e-22)
(100.2263588 -0.4743624576 -2.226189647e-22)
(99.76227265 -0.59800807 5.076323903e-22)
(100.0282333 -0.6599812202 7.573807204e-22)
(99.80741353 -0.6851663253 4.480608236e-22)
(99.65436283 -0.5596478992 1.319354962e-21)
(99.70164032 -0.6782031909 -1.211300139e-23)
(99.5791237 -0.6480509906 -1.211472423e-23)
(99.23938976 -0.6497739096 -1.938245833e-21)
(99.37131386 -0.704368327 0)
(99.28861406 -0.8167024295 -9.486544833e-22)
(99.11979859 -0.7564430553 -1.000148604e-21)
(98.63673262 -0.7099891197 8.69479833e-22)
(98.81494222 -0.802838326 1.598651712e-20)
(98.67488964 -0.9409426921 -1.064085584e-21)
(98.43969767 -0.796544099 1.175446064e-20)
(98.45105597 -0.8900056833 1.176421417e-20)
(97.8262816 -0.7264272542 -2.888639262e-20)
(97.96348769 -0.8011285917 -2.526071219e-19)
(97.83599093 -0.8851631811 -2.576598419e-19)
(97.68540945 -0.8089615238 -4.860203673e-19)
(96.39342578 -0.70920776 2.244992226e-20)
(96.61306058 -0.8281961653 -6.557468835e-23)
(96.40216722 -0.9507805393 7.332678151e-21)
(96.13800579 -0.831213705 3.881854694e-20)
(93.98374521 -0.6878683653 3.893639663e-20)
(94.33588462 -0.868791036 3.324134751e-20)
(94.0254991 -1.072256266 2.211713143e-19)
(93.61464279 -0.9105873864 -1.640797779e-19)
(90.65171808 -1.055390929 2.056853427e-19)
(91.17261058 -1.261617361 4.109549851e-19)
(90.88007899 -1.628149377 9.348755382e-21)
(90.31105177 -1.499141468 4.045945162e-19)
(87.09002798 -2.971048305 0)
(87.51735955 -2.909528495 2.249759861e-19)
(87.52708023 -3.224787283 2.176605415e-19)
(87.16464013 -3.367595973 -1.677723678e-19)
(134.8747121 8.15519681 1.907142663e-18)
(133.2107157 8.919671748 5.415774773e-19)
(133.7695364 6.767401296 -5.771599789e-19)
(132.382275 7.574598555 5.315160606e-19)
(120.7579624 3.636247935 -7.678276012e-19)
(119.1924304 4.167479266 -3.849730437e-19)
(119.7943628 2.380326978 8.251403424e-21)
(118.5418555 3.034778785 3.36424817e-20)
(113.0756578 2.193893337 -5.003603057e-19)
(113.868546 1.838094389 -3.48057248e-19)
(113.4078906 1.169845827 -2.507185454e-19)
(112.7337111 1.577581005 -2.438453633e-19)
(109.5121911 1.278834106 -7.078598189e-21)
(110.0239801 1.024723335 -9.777533142e-20)
(109.7137002 0.6062085599 7.370822463e-19)
(109.2704781 0.8870291885 -3.254953171e-19)