/*--------------------------------*- C++ -*----------------------------------*\
| =========                 |                                                 |
| \\      /  F ield         | OpenFOAM: The Open Source CFD Toolbox           |
|  \\    /   O peration     | Version:  v1912                                 |
|   \\  /    A nd           | Website:  www.openfoam.com                      |
|    \\/     M anipulation  |                                                 |
\*---------------------------------------------------------------------------*/
FoamFile
{
    version     2.0;
    format      ascii;
    class       volScalarField;
    location    "0.46";
    object      k;
}
// * * * * * * * * * * * * * * * * * * * * * * * * * * * * * * * * * * * * * //

dimensions      [0 2 -2 0 0 0 0];


internalField   nonuniform List<scalar> 
12556
(
36.90869638
36.90874543
36.90881995
36.90893424
36.95443446
36.95497507
36.95592826
36.95799506
36.96201379
36.9687256
36.9780527
36.98766753
36.99364625
36.99223305
36.98494984
36.97555151
36.96731204
36.96127167
36.95791408
36.95587705
36.90971119
36.90903772
36.90867945
36.90842418
36.72747806
36.72769099
36.72794896
36.72848587
36.77413789
36.7768387
36.78232682
36.8127037
36.83116315
36.86223493
36.9057921
36.95210125
36.98338687
36.98071571
36.94868534
36.9045117
36.86388749
36.83411672
36.79384719
36.78226561
36.73176008
36.72917365
36.72792391
36.72724128
36.54742387
36.54793241
36.54859759
36.54981648
36.59656905
36.60326196
36.61626984
36.65889393
36.70319722
36.77615027
36.87435486
36.96061077
37.00925929
37.00779064
36.95639941
36.87018396
36.77746898
36.71013107
36.64221556
36.6163015
36.55800962
36.55254198
36.54984189
36.54870088
36.36877136
36.36933924
36.37048428
36.37326623
36.42186857
36.4356067
36.46288767
36.52954896
36.62144816
36.76286045
36.91027036
37.03854344
37.11212445
37.10963404
37.03339424
36.90511632
36.75900952
36.62600664
36.51406327
36.46405989
36.39114488
36.38028349
36.3750451
36.37295311
36.19196794
36.19278013
36.19485627
36.20020457
36.25255611
36.27681587
36.32897738
36.43367113
36.60522279
36.81134077
37.03718648
37.24978049
37.37715588
37.36655598
37.23388891
37.02753768
36.80771322
36.61003202
36.42193163
36.33013933
36.23163453
36.21226411
36.20297489
36.19929629
36.01663396
36.01782001
36.02131802
36.03050462
36.08954996
36.13043658
36.2206658
36.38508435
36.62990201
36.93062949
37.30745443
37.742557
38.03385072
37.97680041
37.64948536
37.28505326
36.93826042
36.64620606
36.37409917
36.21892331
36.08310843
36.04829392
36.0329238
36.02681626
35.84356025
35.84555012
35.85149931
35.86582591
35.93369098
35.99684149
36.13910105
36.37591916
36.70084554
37.13916588
37.79402889
38.91013357
39.68432372
39.49210776
38.43983922
37.72272124
37.16353635
36.73627664
36.37324068
36.1347383
35.94385926
35.88877092
35.86454115
35.85499194
35.6733926
35.67642775
35.68542231
35.70675874
35.78739224
35.87766218
36.08332524
36.38478219
36.80624503
37.41573809
38.47463921
40.90402835
42.04962196
39.74428958
38.36207465
37.48175924
36.87639791
36.39805998
36.07521081
35.81589644
35.73437019
35.69839211
35.68437274
35.50799517
35.51273066
35.52619693
35.55755264
35.65030471
35.77350565
36.04542901
36.4065035
36.92701435
37.69460243
39.07623252
42.60610289
46.27338134
41.36881186
39.13991747
37.86981335
37.05343209
36.44122169
36.03711561
35.69945873
35.5868745
35.53649305
35.51706147
35.34839874
35.35494898
35.37313983
35.41552777
35.52227239
35.68268568
36.01758927
36.43596878
37.0458585
37.93393468
39.4945287
43.30742804
49.33540252
42.85636712
39.91896714
38.27076023
37.24555666
36.49660057
36.01413151
35.59579393
35.4487047
35.38197415
35.35620063
35.19649195
35.20557968
35.22993547
35.28572571
35.40419946
35.60288213
35.99581328
36.46780185
37.15575904
38.13956986
39.83678363
43.2618164
50.88187972
43.96380146
40.5760325
38.63212915
37.42901022
36.55453326
36.00051514
35.50398136
35.32211662
35.23796428
35.20521631
35.05205462
35.06337195
35.09318187
35.16159296
35.29528061
35.53088616
35.97765178
36.49980368
37.25885646
38.33179183
40.1705541
42.85030593
51.54714453
44.67999799
41.06368953
38.92303828
37.58746371
36.60651838
35.99004063
35.42417267
35.20736524
35.10619383
35.06615722
34.91584593
34.93006854
34.96757393
35.05020658
35.19302223
35.46247675
35.95806058
36.53105921
37.3560572
38.52320962
40.54164046
42.3123849
48.62389752
51.34657395
45.07835746
41.38087842
39.12552807
37.70800564
36.64568191
35.97528262
35.35139222
35.10394577
34.9863586
34.93945694
34.78597756
34.8028551
34.84716476
34.94102498
35.10418925
35.41611017
35.95790598
36.57845581
37.47201124
38.75522344
40.97536467
41.066174
56.28965885
51.31357736
45.23008349
41.52414773
39.24571712
37.78875006
36.66954122
35.95259946
35.27998883
35.00855614
34.87617393
34.82303036
34.66164411
34.68099048
34.73141927
34.83550553
35.01205166
35.3526749
35.93111782
36.60988366
37.57535579
38.96252809
41.25526331
37.36419559
55.71146251
50.79072811
45.07755534
41.52029309
39.28541246
37.8297703
36.67151781
35.91681566
35.20806482
34.91747502
34.77242585
34.71407421
34.53986814
34.56147673
34.61719351
34.73067245
34.91995328
35.28303824
35.89106959
36.62846029
37.68546322
39.18837015
41.37043567
31.94019883
53.77281332
49.70995658
44.68785191
41.38859976
39.26012468
37.82527244
36.64545127
35.86326315
35.12940243
34.82499017
34.67084046
34.608239
34.42012824
34.44368957
34.50353762
34.62471055
34.82488387
35.20460193
35.83384587
36.61367816
37.77053352
39.39768755
41.04291116
26.49299934
52.02643302
48.40976293
44.07960228
41.15942181
39.18972438
37.77873206
36.58022807
35.79115033
35.04368994
34.73031868
34.56861127
34.50254792
34.29902741
34.32423272
34.38734303
34.51508533
34.72482947
35.11590319
35.75883043
36.55842217
37.77976028
39.46175312
40.22922768
24.95120732
50.48545331
47.19651963
43.46804608
40.88701351
39.05146073
37.67711028
36.48334078
35.69689256
34.9454112
34.62707254
34.46198946
34.39337192
34.1777098
34.20420519
34.26951757
34.40185505
34.6186286
35.01676425
35.66697439
36.47646629
37.70424098
39.33005434
39.03104527
25.01222205
49.10715019
46.2569952
42.98940633
40.61784159
38.86771912
37.53739072
36.36289748
35.58559092
34.83692137
34.51696437
34.35012306
34.2801825
34.05257468
34.08006117
34.14703346
34.28323332
34.50602775
34.90793905
35.56049392
36.37332968
37.59251385
39.08324371
37.99601142
24.40290942
47.8487995
45.56651606
42.57412293
40.33623414
38.6610168
37.37352401
36.22488782
35.46014589
34.7181285
34.39847621
34.23104553
34.16030857
33.92709022
33.95525293
34.02307536
34.16120876
34.38731359
34.79067334
35.44208323
36.25377981
37.45468905
38.78732669
37.02445989
23.82028588
46.66482071
44.92378415
42.17990348
40.05516603
38.44429466
37.19552051
36.07410195
35.32357561
34.59165878
34.27424854
34.10715361
34.03606101
33.79654588
33.82517689
33.89373338
34.03386417
34.26331457
34.66647819
35.3144167
36.12184749
37.29670212
38.45441492
36.11282671
23.39971886
45.56273509
44.31611862
41.8071916
39.78103625
38.22491811
37.01011498
35.91449708
35.17873754
34.45741531
34.14251392
33.9759961
33.90479654
33.66731358
33.69618758
33.76486594
33.90512257
34.13494147
34.53687928
35.17982405
35.98077421
37.12302212
38.09825903
35.26579321
23.04765837
44.52609872
43.73801607
41.45229147
39.51660291
38.00716527
36.82168147
35.74941833
35.02808081
34.31925771
34.00800274
33.84241833
33.77129369
33.53196965
33.56099931
33.63005302
33.77152193
34.00334383
34.40331943
35.04028547
35.83307808
36.93700611
37.7308165
34.48487571
22.71625158
43.54254525
43.18489936
41.11135969
39.26215359
37.79342724
36.63303934
35.58148075
34.87368416
34.17553152
33.86697387
33.70201979
33.63098671
33.40094832
33.42998603
33.49884446
33.63936407
33.86934765
34.26705414
34.89749013
35.68074757
36.7409376
37.35691866
33.76794815
22.38599369
42.60210719
42.65285564
40.7818304
39.01670431
37.58485568
36.44603492
35.41260022
34.71712386
34.03158376
33.72687944
33.56276391
33.49186594
33.26183541
33.29088763
33.36008336
33.50186466
33.73395796
34.12911457
34.75279761
35.52520745
36.53622948
36.98159096
33.11032812
22.05113131
41.69858855
42.13833132
40.46183988
38.77893613
37.38174044
36.26174914
35.2440843
34.55967017
33.88273819
33.579938
33.41606442
33.3451893
33.13153569
33.16049894
33.22937912
33.36944741
33.5976164
33.99032486
34.60722088
35.36738896
36.32420701
36.60907541
32.50755645
21.72749721
40.82911086
41.63836348
40.14983511
38.54765867
37.1839192
36.08075206
35.07681767
34.40215366
33.73753267
33.43851193
33.27518751
33.20433507
32.98915771
33.01809511
33.08740075
33.22929835
33.461183
33.85129417
34.46142165
35.20781889
36.1065125
36.24214145
31.95550636
21.40353365
39.98859548
41.15032469
39.84435102
38.32179791
36.99097159
35.90324392
34.91133494
34.24532021
33.58587793
33.28752776
33.12396572
33.0529618
32.86233691
32.8911695
32.96013442
33.09958151
33.32463263
33.71247177
34.31582831
35.04682833
35.88479951
35.88240613
31.45018631
21.07696905
39.17263558
40.6720366
39.54406101
38.10040396
36.80239026
35.72922686
34.74796077
34.08946416
33.44306987
33.14859531
32.98530089
32.91415606
32.71609046
32.74490787
32.81439614
32.95652517
33.18889225
33.57420743
34.17069554
34.88464924
35.66071869
35.53089136
30.98756212
20.75207081
38.38030085
40.2017978
39.24771841
37.88257095
36.6175958
35.55854671
34.58685893
33.9351143
33.28878311
32.99353272
32.82958745
32.75809872
32.59602812
32.62477047
32.69398637
32.83296548
33.05342621
33.43676573
34.02619125
34.7214968
35.43550585
35.18818347
30.56302868
20.43298685
37.6106988
39.73782551
38.95414683
37.66741025
36.43598073
35.39096362
34.42810139
33.78217404
33.15227115
32.86123797
32.69731344
32.62553375
32.44377527
32.47253955
32.54230729
32.68472739
32.91957761
33.30041325
33.88245983
34.55760964
35.21007036
34.85448569
30.17177631
20.1245824
36.8618654
39.27919884
38.66225824
37.45406873
36.25693246
35.22616911
34.2716983
33.63124114
32.99288853
32.69973821
32.53490509
32.46260291
32.33492838
32.36366785
32.43336405
32.57251409
32.78611936
33.16539915
33.73968909
34.39321625
34.98503251
34.52967441
29.80909179
19.83134817
36.13248532
38.82496824
38.37097642
37.24168056
36.07980694
35.06378687
34.1176823
33.48185436
32.86860788
32.57973711
32.41465828
32.34196942
32.17237079
32.20118369
32.271353
32.4134609
32.65555912
33.03225139
33.59823145
34.22858811
34.76107084
34.21345535
29.47061459
19.55691338
35.42191618
38.37454689
38.07932115
37.02944286
35.90401236
34.90351521
33.96635762
33.3353208
32.69718829
32.40621556
32.24016492
32.16678356
32.08109475
32.10995373
32.18034024
32.32153441
32.52621193
32.90203686
33.45928499
34.06396478
34.53866213
33.90554071
29.15311967
19.30403127
34.7306467
37.92657482
37.78645926
36.81661699
35.72900027
34.74499379
33.81891554
33.19161116
32.59628916
32.30703101
32.14046206
32.06666246
31.87367887
31.9027211
31.97380653
32.11749538
32.40484224
32.77773097
33.32727884
33.89998135
34.3190629
33.6080035
28.85620737
19.07360442
34.0631353
37.48400979
37.49362568
36.60333371
35.55468056
34.58806388
33.67931334
33.05632377
32.37551969
32.08470498
31.91678008
31.8419705
42.47283413
46.72106002
42.39679457
43.26668744
50.13813993
47.15537329
43.29820538
51.80279883
50.43099279
42.91177923
52.48054037
51.91620392
42.3498235
44.34903139
47.69501389
52.77485501
52.51931907
41.48536977
53.9737603
44.7655404
55.99268966
53.2718559
52.79768589
40.59905898
39.60687096
41.98652472
39.43135519
49.66736382
43.74253416
45.7919213
41.75350343
40.24278512
39.40126297
42.45338073
41.7945609
54.69654989
55.34893009
49.04949198
43.62415241
42.25342792
39.75487004
42.76980701
42.52240992
43.36504243
44.82289952
45.69661173
54.17885569
53.64841833
50.75623735
44.98621445
44.01480488
40.09748379
42.6833649
42.77067782
43.12767693
41.64293946
43.3762739
55.2780345
54.67610913
40.4559877
42.43991357
42.66338967
42.63455128
37.44264988
39.58841732
39.7331983
55.9122589
55.69212364
40.89448758
41.96084921
42.3974374
42.01477153
32.40254386
34.54629997
40.13007221
54.99281868
54.27688755
46.27063322
47.78275016
42.87017557
45.93151616
55.19935661
49.97080681
44.80877239
49.14001206
53.89715904
45.80640446
46.49023713
43.03581274
47.03634584
45.87112126
47.82095015
47.17478838
53.69996389
54.55977221
48.82516584
55.23456534
54.77560799
54.1232493
55.275694
48.59229669
43.54390043
44.67644079
43.36175597
44.38996402
42.78604677
45.79600875
44.48938878
54.5638368
54.24451911
51.34058138
55.23682966
55.4277126
54.75406825
55.1908085
51.15534259
39.70745668
41.53412443
43.07787333
40.69958441
38.47174466
42.67796439
40.823204
55.66337584
55.33758532
34.68103183
37.28694767
42.60186814
40.05956624
35.5948151
32.98269669
38.34378475
35.78034523
40.51276067
56.20108872
55.94241008
39.767661
40.13699136
32.34454512
41.97112685
51.0661407
32.16582652
72.10248931
32.90754041
32.16357922
50.44015207
38.94656767
41.67344632
40.31369406
41.72945382
45.07932609
42.51091976
58.51669474
45.86288488
42.94527538
46.57359925
46.76287165
44.42001714
51.50913061
45.84349895
45.24043594
49.02232519
50.54691752
49.25845446
53.24901475
56.46660766
56.27420138
46.6330242
45.34374942
41.95295794
52.41971327
44.57423385
50.67774303
43.39501924
48.279893
44.22814603
48.89636648
45.5368586
52.27895584
55.57834568
55.68637699
55.44120236
55.56293049
52.21010787
40.60041629
44.49402148
47.13606499
41.0988139
40.70975344
42.49238821
43.32073925
41.18382925
41.16643799
62.31171746
46.96194454
58.15620314
45.16648486
55.24759028
46.19623008
55.60733037
55.65426859
53.86892031
53.8352341
41.38809896
43.11980024
55.06903741
41.70885029
44.07914106
44.33165622
41.69843331
55.0003108
38.60743516
42.21015553
41.89593043
52.8955326
51.23215547
45.42127244
33.67611616
40.24086405
39.79063853
40.81248851
40.40164093
33.82854985
56.01598069
52.80723571
47.03636056
53.07096687
53.99991888
49.37251086
52.78693053
47.2444126
44.27008408
48.68227867
44.0335366
53.3801012
49.33581454
44.74967767
51.26173878
55.86099498
53.13037327
52.75691537
46.48501719
43.10454846
46.40991536
47.65034324
46.07573349
48.90319435
43.44955579
45.70011551
47.54669946
54.20481049
54.28531492
55.00297471
52.46309574
51.85708278
53.08334736
52.63481485
54.96715713
55.17951053
50.53864048
49.5517392
51.62752121
50.83331811
55.26081548
43.6604189
43.55663187
45.22835391
45.14558553
54.66466175
44.81904481
54.61494849
39.81618209
39.66361969
41.81230584
41.68614296
44.61041034
48.23496868
55.49669752
44.87410098
41.51638271
36.28051223
41.32832678
40.94687596
41.78758875
41.44756992
36.40940518
40.10664247
34.80052387
34.6933712
37.44679317
37.31712929
50.03026531
42.12003692
54.42728458
53.34719943
39.61867112
39.19930775
32.06987184
33.56012476
41.96203075
41.24036497
32.52689346
61.57018359
41.35284665
54.76852339
32.46250232
48.0756002
42.79482499
40.79957323
56.71073238
40.05198195
40.17908133
41.19560573
41.56829073
41.880306
40.61379951
33.14459173
41.12344923
56.19879748
52.74191568
53.20352639
49.88630358
40.34173637
42.07092367
55.41234397
54.71165212
43.00142813
56.56519704
56.50577092
53.69807184
42.61655832
42.10289374
44.22844756
45.19529853
42.40154867
42.60840969
55.16297292
57.29894329
56.47346336
55.63407855
53.99468907
46.17019461
46.72354187
48.44855082
47.71105686
53.59253762
42.42059394
43.60761021
43.37315097
43.90245221
43.68324533
42.54616624
42.59989761
42.3094733
38.73260922
32.70996783
37.14984632
36.7628664
64.4789365
48.79177673
54.6659029
54.47000309
58.13315907
57.50294854
51.43067164
47.58086267
46.2407519
49.18800222
48.00451607
51.77133632
53.88707354
49.57964867
48.75577682
54.35549841
44.05060553
44.16563697
43.97174926
39.59011011
40.04947747
43.12251888
46.99180884
47.33846419
54.40264302
55.34370568
53.9704819
53.85044869
54.81640365
53.51666357
53.20503746
53.80224089
53.5971939
54.83300289
40.63214084
42.95885976
42.69221466
43.29262632
43.04449874
40.75481701
40.32962804
35.57280162
35.85051875
33.60158714
33.7830469
38.90680556
42.31752316
38.863631
39.45814156
35.95855131
36.26279583
41.19327901
55.53730684
48.71107701
51.83687669
53.35496743
39.64911752
35.21760549
33.63760323
37.96252011
33.33683778
33.5411131
32.88717635
36.63815526
45.99540303
39.43284629
38.01984009
37.30194822
36.63781764
36.26840854
32.23485897
40.91774111
42.89416488
52.7554404
32.19742377
79.93637725
43.62562928
42.19241167
47.24874906
32.74255311
32.21220803
52.88125563
51.69142585
51.93890091
44.74502921
44.854613
41.17181581
40.18100604
49.20477155
50.70763953
50.61422592
46.81346139
54.53269883
46.84462943
54.92864003
47.5625065
41.92048864
40.48195646
47.16839151
43.78674751
46.59035231
44.42095852
40.36785411
41.9676991
45.64419431
53.64868426
40.39557449
43.76825879
58.88429872
39.8049912
40.02898017
40.29642023
39.84456089
52.77908539
62.96243339
52.9502576
49.73800632
56.44753265
53.66774852
49.12139164
46.4334907
50.82649221
54.96282349
54.45340723
55.3422358
55.67632451
56.20767353
55.29298531
46.81926312
46.26607661
53.93778192
46.54846057
47.06760794
45.42283801
46.27795562
47.256623
53.6379067
47.59957938
46.99399763
41.28711551
41.49924316
42.19574275
51.55491681
50.8380564
42.7873442
49.39585537
48.21046955
50.55733823
49.75891111
42.38165148
40.78940777
43.51282832
41.81222833
37.69457095
37.26587786
32.95676615
34.12772266
38.17239628
37.81574936
54.85103586
54.37627152
54.00799206
49.60943231
50.10785706
48.69490227
49.40516788
54.27830975
51.45640744
50.21655551
50.01842805
50.20389072
50.24271889
51.69616317
51.92807354
47.60998319
48.45422605
54.45848223
54.84719937
57.79792144
57.53023595
54.14158502
58.75591686
59.37975186
59.50830166
58.37513945
57.28493234
59.55710509
58.29040412
51.56766603
56.56895965
57.82017085
41.88889274
46.57225283
45.80362636
47.30040664
46.78093867
42.38409026
44.73280302
44.19949494
45.53597957
44.91620508
47.21368708
49.30162995
48.81778253
49.8949034
49.45757862
47.6184697
44.35190789
47.98663978
47.47511581
48.65335996
48.15498909
44.67952943
50.65264879
49.7772288
53.96288897
54.36923471
51.8847383
50.96774039
39.20665664
38.75453948
39.9900713
39.36556319
38.03504098
37.59879012
38.61179183
38.166538
43.34156349
42.83238037
44.02689401
43.51578866
41.81619504
40.38729124
42.64617686
42.1340927
46.03491206
45.19043953
47.85898638
46.53412445
45.36930085
44.58280306
45.20085519
44.90025815
44.44251811
35.17492644
35.46952438
40.20541296
34.02571721
33.81153769
34.30996246
34.10454894
33.71167169
39.09239201
33.85624968
34.97354247
36.93553353
38.60612005
42.19535185
36.62268795
35.21007536
37.50646301
36.89740335
34.67629858
34.4035391
35.10885198
34.78397161
41.31610094
36.36928696
36.72461411
46.60930758
43.20344997
45.98252121
43.4227931
45.83272482
42.68017531
55.16053139
39.66618042
53.41061884
48.28411533
35.11277518
34.10273203
33.0901621
33.275097
37.83468191
36.85740049
32.92500414
33.03994
49.84774038
32.19531426
36.1022262
35.40678801
62.50254157
69.07242322
32.13834347
72.71857934
54.20408007
41.33389215
32.6791623
61.42600286
42.85670223
71.01850906
44.14172485
32.31393984
41.67936928
39.78387426
38.65303997
48.33716212
48.04545978
51.96117681
46.31920712
45.99150746
48.2407135
42.55244367
40.00186649
39.68019696
55.69149058
55.53235704
52.6530867
44.15503229
43.73231626
45.89828454
50.08086561
44.1334374
44.25469954
40.69639435
41.01182028
43.06371098
48.41531803
51.41451666
53.89607288
45.22607049
44.55120076
44.43180863
44.66541871
44.58425263
45.35002202
45.8895615
44.15155204
40.15989489
52.37009226
53.59591655
55.82343694
38.62623357
38.28505821
34.23749858
54.61359163
56.28173959
51.20281632
44.38457835
44.2245358
44.21227511
44.07860278
41.44288101
42.01598877
42.29148326
43.13614971
44.7870272
35.42938237
39.09384489
38.73824309
43.81725884
42.30046572
39.85112289
32.47312282
32.4923011
33.09274517
41.44434215
50.8067064
46.75248095
40.3025432
48.32186044
46.4047045
32.16787004
32.85054451
32.45489221
32.46555901
32.16702922
58.89506148
44.44663765
40.65828467
41.43338494
48.57050771
40.73521236
41.90442037
50.68673097
51.77968281
45.77794467
44.34939547
46.01583994
47.64474284
40.33732009
40.47305826
56.40355172
58.2409279
59.65123081
51.36554109
57.13763812
42.14959059
42.40307776
44.6774582
59.96214791
56.09805387
53.95134369
62.91326966
60.6958837
41.29700364
41.98654143
41.54275799
45.3859577
44.74139707
42.2276859
52.43219486
51.80327864
42.5365223
44.36495756
42.49379328
42.58195761
42.93569345
39.95740389
40.15346985
55.75594255
56.43512388
53.36921002
53.40189831
52.5094787
52.3533613
49.86620573
50.73602804
50.40334966
52.19288658
51.9978774
52.41441706
46.33040954
47.33713768
51.46221406
52.55881119
57.02887347
53.97139289
57.341729
57.65229087
55.36011045
40.49366253
42.34762794
41.87611943
45.55175769
45.34344476
42.894109
40.02570688
39.8166323
41.49282933
41.18854657
46.45270115
48.34030026
48.05148476
50.09458685
49.79836737
48.45944624
43.71019663
46.09245104
45.84709679
47.76048745
47.47705485
45.35208601
40.81463704
41.28186558
43.9775171
43.22889989
40.1979846
40.66172092
43.97683248
44.42735794
45.47882847
38.56066565
38.42971525
39.6286084
39.46060406
36.62462774
38.22915338
38.11916815
44.8767115
43.3456199
43.82019451
45.24010392
45.30401148
42.85726899
43.09930755
44.79960406
45.45072223
45.78928077
54.45145971
47.51210373
48.76202466
39.538369
39.20791696
35.71863124
36.77808427
39.93467845
39.63722522
33.2098559
33.27644522
34.91056932
34.55036655
33.06108037
33.15499459
50.1709218
32.18974779
32.78438467
32.28107452
107.4894843
32.7135684
41.45938748
50.4627386
46.45606706
32.292172
32.31409584
32.5641652
60.5929101
65.23622863
63.33097532
49.34689151
32.44250676
32.26963766
32.28570768
40.84780955
41.98874597
40.63452026
48.21682171
47.84446819
42.29868446
41.45341047
40.03935836
51.68395079
51.31064064
55.11729918
40.64403977
46.99355815
44.23365004
47.27572992
46.61630105
41.185524
43.43720988
43.91153208
47.16416508
53.41431331
53.6987421
52.97546586
53.20421755
57.05440246
56.43985182
56.63413246
56.04076347
56.24314263
56.74647754
48.17817265
48.83240505
49.0185425
48.5475072
48.645224
48.03054954
57.8827868
57.02049331
56.9912892
56.81087041
56.95748779
57.69258555
49.20346947
49.65817493
49.86955693
49.23041798
49.43468871
48.97647256
52.38971463
52.55778959
51.83066395
51.99249208
35.6517365
37.64068076
37.52488941
33.67367949
34.77243106
34.68321646
35.04743348
34.87815701
33.72634855
51.27306659
52.26481457
47.39522629
51.86836914
32.83183533
32.80252524
32.90038257
32.86765161
32.78412845
33.2860717
32.526517
32.63115247
33.40986666
34.45599424
34.3743405
34.60783743
34.53092229
33.47263104
33.00458632
32.94874016
33.42847167
33.14417736
33.08396673
51.67359769
50.27385256
42.95593229
52.15533836
33.95108579
33.29132238
39.97198203
32.26026517
33.45960238
33.32771455
32.14764651
77.50136146
78.46499893
61.97878027
68.86327593
58.91734303
32.40362551
32.43198752
32.79893484
32.18519127
56.11500458
61.1157889
56.53024727
57.63065635
54.48757198
47.97412425
59.93734778
55.07340692
44.8877227
45.24310917
49.27027999
42.57586804
44.88038248
51.47139579
49.09441113
51.78431519
48.07609898
50.64454643
56.3417841
57.78262434
51.44638593
55.27222618
58.50405954
46.26376955
47.25528876
45.95687453
49.27406979
55.98157466
56.10906375
54.38028582
41.05526663
50.23901838
45.78838878
55.03751279
55.78713367
42.28802127
44.17430141
46.72984782
57.94205622
48.54293205
41.44408266
42.42971255
59.50497065
56.52572697
59.68251767
55.38150278
57.70970766
59.94153856
61.01031662
60.32207369
54.55075983
54.7222708
54.94188217
54.2102441
54.35218464
54.32827361
55.88774923
55.62106752
55.8356907
55.17898493
55.39691319
55.59364186
46.62169603
49.37178714
49.37041559
46.69217243
46.96069551
45.69596058
46.52428715
46.31780691
46.18176829
47.60519684
47.91018676
47.24298491
48.77023214
48.55308806
49.3106851
49.10958728
47.13035617
44.593785
43.06116246
41.23432464
45.67224416
45.35966537
45.26241978
41.84929595
44.81170868
44.49707497
42.66812189
42.52037858
43.35990133
55.35094215
53.82450085
51.41937897
51.08301304
50.34174089
52.14816926
51.82837368
51.58925484
58.1509651
57.81388372
53.67990759
58.19000075
60.13329684
55.20722053
58.02326219
58.14568293
57.72247996
56.5350345
56.40929265
56.79707838
56.74802767
57.65145962
59.04477437
59.17421444
58.08355231
60.60330907
60.56641404
60.3874789
60.56023965
57.87243656
59.65317943
60.22082075
61.54686984
59.63804772
44.33365572
44.19197794
41.80998289
42.52776733
45.00739131
44.85898565
40.45996052
40.23607107
40.93032082
40.68873928
48.92004395
48.62792924
46.81782871
48.03586443
49.50591446
49.21288853
46.64077307
46.37920131
44.06097399
44.9922668
47.19109293
46.91917452
50.41264424
50.54687809
50.77297363
50.0948937
50.31970742
50.06341617
51.55350659
51.36587373
51.50318219
50.99821712
51.20095894
51.31064584
39.05029051
36.65625391
36.78711168
36.4170493
36.5417455
38.90358113
39.73278052
37.2203714
37.41847677
36.9153183
37.06205689
39.53852314
37.87810605
35.71984117
35.84529732
35.51687921
35.64095599
37.76254732
38.46183619
36.17695532
36.30517072
35.93916931
36.06945784
38.32174919
38.90730571
38.7570828
43.17347119
41.35207514
41.52185825
40.99920042
41.15411233
42.99562088
39.26568994
39.10081304
37.56241576
37.39546398
41.57443223
39.79534901
39.85808436
37.71040645
38.13735835
40.9568301
42.49267899
40.6576758
40.78631704
40.31021302
40.40434265
42.28073292
37.90855831
37.81588294
44.67892968
44.95371728
45.04355264
43.47704757
43.9354765
44.76822152
45.81063606
45.7384847
46.1015577
46.0665557
44.98998357
44.58551576
44.64639144
44.26176338
45.46824288
45.26785407
44.45260769
35.26936067
37.13508152
37.01112903
37.39535536
37.28473246
35.39411877
33.96513914
33.87786987
34.24134949
34.1593266
33.68095613
33.74651306
34.02185796
35.93617616
35.36333537
36.77182017
36.53487742
34.66955874
35.54312294
35.00851254
35.06785492
35.33164915
37.30903285
35.31874444
35.44813544
35.13049367
35.2552183
37.22593671
34.585801
34.48410487
34.9981222
34.88346073
45.42420583
40.94160486
41.36220456
40.51120813
40.69061023
45.67886924
45.12070046
44.97716713
41.92433044
43.23219323
46.19937189
52.53256652
42.6046107
44.24098167
40.47038225
41.41174848
53.16298703
32.71366586
32.67423904
32.7763984
32.74840597
32.76442955
32.99697152
34.38638832
32.52989516
32.44442606
32.62618312
32.57059829
33.15014743
34.13460553
34.05173567
34.29625618
34.21249074
33.20682485
32.95540403
33.79622271
33.68726704
33.97270337
33.89096904
32.99878914
49.42388558
33.26269704
32.99952291
32.15785216
60.28745801
87.15703277
92.81400606
85.52420815
87.16441456
65.05524463
32.35938706
64.11414268
47.77179659
50.57497563
32.6230734
32.33170058
32.37087348
61.62216325
68.05997506
66.62495953
53.95974192
60.17601203
72.74998875
68.3249296
46.4306279
64.42572565
57.15767779
32.65586099
32.16364342
32.28491255
36.69551092
36.72103065
36.82523674
36.73171437
36.77514534
36.85272695
36.79175173
36.85284317
36.89348267
36.87363936
36.93734604
36.94077305
36.95344107
36.99101884
36.9775013
36.99751448
37.0005624
36.98498474
36.99612672
36.96410742
36.95891259
36.9495726
36.8914178
36.91629931
36.87076353
36.81101276
36.87360673
36.79420409
36.74904382
36.840771
36.55912141
36.61253962
36.68993951
36.63607513
36.72546594
36.75563738
36.76044936
36.86150951
36.84923152
36.89436679
36.98473073
36.9421166
37.0099824
37.0656836
37.00195375
37.07613526
37.08148747
37.01273878
37.07459765
37.02748531
36.97294765
37.00500644
36.92085867
36.89318401
36.88927954
36.79058172
36.79807852
36.7571707
36.66638223
36.72348774
36.45443704
36.56051657
36.59335229
36.60462235
36.74376039
36.72608418
36.79255023
36.94365074
36.87396169
36.99422314
37.13787162
37.01027992
37.17914091
37.27242519
37.10080692
37.29129279
37.29990258
37.11719892
37.28447644
37.20317426
37.05879731
37.16749169
37.03613341
36.94002365
36.98683556
36.83704376
36.79561228
36.78834248
36.65154796
36.65487402
36.39285512
36.55872981
36.55569333
36.61884104
36.81892423
36.75743777
36.89326536
37.13632285
36.98009042
37.22352241
37.49608566
37.20030087
37.57749073
37.7792154
37.35897285
37.81943039
37.82293421
37.37538547
37.75914586
37.5884724
37.27720348
37.5174902
37.28558025
37.0828512
37.20547222
36.97120537
36.86159467
36.89732107
36.69500505
36.65703805
36.37566259
36.59632935
36.56468106
36.67918325
36.96705791
36.84907702
37.07937643
37.48413665
37.20603253
37.64768731
38.27155877
37.62751782
38.50308751
39.35249575
37.99660862
39.3661057
39.15046039
37.9862469
38.85186321
38.36963577
37.73709451
38.19932408
37.73465085
37.37723736
37.59419527
37.21188973
37.02073268
37.09808383
36.79668542
36.71433589
36.380799
36.66541658
36.61105321
36.77642473
37.17711985
37.01527551
37.34190089
37.99552259
37.60012165
38.29828816
40.05776184
38.54976032
39.47646154
40.10466237
39.18158568
40.70772347
40.76680265
39.68967925
40.23247299
39.60004584
39.1800633
39.37177045
38.43132245
37.88587805
38.18353223
37.56767185
37.29044675
37.39544054
36.95871231
36.83175315
36.39994422
36.756137
36.68755326
36.89655411
37.41161246
37.23713617
37.62796834
38.51713826
38.13570685
38.64480934
39.11566189
38.900934
41.19874384
41.84252647
41.47026174
43.6291219
42.41864913
41.24853831
40.96206485
39.3287013
38.64398845
38.9348339
38.01349595
37.6714847
37.76870295
37.16913539
37.00792778
36.4283511
36.85097363
36.77987399
37.0170085
37.62422773
37.4674853
37.87807384
38.91050211
38.62732739
39.19393814
39.78768116
39.64926739
42.72682099
43.71763313
43.58742075
47.62404437
45.20573061
44.18997725
42.51865037
40.2596889
39.57021639
39.72202416
38.4910745
38.13435535
38.17129217
37.40218538
37.22672568
36.45999816
36.94155815
36.87409055
37.12923844
37.80907922
37.67260557
38.09028183
39.21959619
38.99253889
39.58387449
40.23658921
40.13350205
43.33800646
44.23810024
44.28040352
50.06534324
47.21119512
46.57416208
43.73026726
41.06565012
40.48428588
40.4196597
38.93081634
38.60943897
38.54684207
37.62804506
37.46034767
36.49289046
37.02710779
36.96311723
37.23412232
37.97861202
37.85212364
38.28455715
39.51050382
39.29117862
39.92395665
40.6335865
40.5319133
43.22046232
43.61750819
43.77721445
51.21795211
48.33729053
48.02656489
44.5419319