/*--------------------------------*- C++ -*----------------------------------*\
| =========                 |                                                 |
| \\      /  F ield         | OpenFOAM: The Open Source CFD Toolbox           |
|  \\    /   O peration     | Version:  v1912                                 |
|   \\  /    A nd           | Website:  www.openfoam.com                      |
|    \\/     M anipulation  |                                                 |
\*---------------------------------------------------------------------------*/
FoamFile
{
    version     2.0;
    format      ascii;
    class       volScalarField;
    location    "0.46";
    object      omega;
}
// * * * * * * * * * * * * * * * * * * * * * * * * * * * * * * * * * * * * * //

dimensions      [0 0 -1 0 0 0 0];


internalField   nonuniform List<scalar> 
12556
(
31.93120301
31.93206415
31.93293886
31.93368401
31.96679888
31.96733728
31.96783216
31.96883831
31.97079673
31.97402906
31.97852241
31.98318658
31.98601833
31.98541702
31.98182644
31.97730523
31.97333776
31.97013159
31.96876013
31.96753881
31.93381084
31.93274043
31.93170552
31.93071691
31.7952267
31.79787181
31.80044984
31.80251733
31.83607977
31.83795652
31.8406698
31.86074225
31.86957742
31.88444442
31.90531701
31.92751019
31.94181648
31.94085418
31.92565327
31.90444831
31.88505464
31.87095663
31.84612729
31.8400477
31.80345666
31.80019635
31.79709328
31.79431771
31.66114742
31.66563548
31.66986808
31.67301249
31.70709855
31.71094895
31.71721632
31.74278456
31.76364242
31.79807224
31.84435514
31.89096343
31.92208519
31.92091345
31.8877704
31.84311518
31.79960195
31.76727418
31.72958132
31.71648798
31.67618671
31.67053925
31.66514472
31.66040056
31.52840645
31.53435741
31.5399692
31.54435268
31.57953976
31.58666609
31.59955917
31.63634529
31.67939172
31.74742428
31.83881146
31.93548596
31.99435877
31.9901041
31.92138833
31.83143476
31.74644618
31.68274594
31.62422847
31.59984678
31.55234822
31.5434448
31.53555941
31.52892851
31.39793205
31.40536492
31.4123024
31.41819515
31.45479401
31.4665534
31.48995645
31.54498542
31.62696622
31.75765901
31.95859409
32.21715718
32.36774205
32.34976562
32.14646871
31.92776005
31.74831743
31.63048169
31.53633874
31.49214644
31.43299746
31.41946458
31.40849046
31.39944175
31.26839155
31.27707919
31.28537241
31.29326913
31.33315107
31.35244556
31.39342047
31.47584243
31.61160373
31.87053007
32.36654511
33.28927568
34.02121569
33.76177042
32.88940656
32.26543346
31.8564891
31.62233052
31.46956488
31.39554945
31.31802253
31.29742141
31.28266357
31.27122673
31.14100737
31.15114207
31.16120885
31.17163126
31.21477452
31.24408786
31.30877462
31.42669846
31.64909963
32.13780071
33.37110239
37.67205495
43.61874733
40.56824083
35.04290456
33.06384877
32.13055414
31.6749912
31.4253857
31.31200197
31.2085482
31.17826394
31.15857766
31.1443698
31.01511512
31.0265243
31.03840959
31.05206499
31.10064333
31.1422752
31.23580542
31.39241416
31.73140875
32.53494085
34.99850183
48.38526373
63.45747703
40.17003595
34.56363005
32.61425532
31.8054051
31.40561045
31.24032299
31.10439964
31.0613668
31.0355622
31.01829317
30.89232164
30.9054713
30.919939
30.93766429
30.99177494
31.04744416
31.17139899
31.36936881
31.83014179
32.91637823
36.2487891
56.07052719
114.767265
47.85091736
36.67970207
33.28633776
32.00061395
31.40875309
31.17896387
31.00600015
30.94831311
30.91517391
30.8944578
30.77214903
30.78679877
30.80375748
30.82615739
30.88814603
30.95873443
31.11202647
31.35234787
31.9203586
33.20064475
36.93652517
62.42376077
142.8772812
54.58043711
38.84394134
34.01270585
32.22872643
31.42586907
31.12562785
30.91337625
30.83919635
30.79791101
30.77346366
30.65679039
30.67343072
30.693542
30.72176662
30.78885391
30.87517523
31.05570906
31.33640814
31.99392153
33.41626717
37.51273037
70.22219316
143.2770273
58.40360836
40.47936522
34.64096302
32.44678438
31.44866421
31.07794892
30.82673729
30.73624345
30.68614215
30.65752464
30.54451807
30.56271566
30.58553494
30.61947715
30.69359814
30.79546459
31.00100753
31.31954355
32.05635518
33.60983452
38.23481421
80.42510077
132.8522622
59.60216712
41.40649479
35.08358203
32.62236857
31.46554747
31.03273272
30.74522188
30.63797285
30.57942283
30.54671113
30.43763516
30.45786336
30.48433181
30.52449698
30.60131929
30.71803832
30.94567311
31.30242125
32.11104156
33.80729952
39.26995804
90.54255702
571.9909041
114.8212499
59.12118959
41.7140985
35.30831935
32.73318848
31.46605608
30.98610198
30.66770121
30.54594842
30.47872885
30.44166471
30.333074
30.35504437
30.38481412
30.42998344
30.51522273
30.65109575
30.90571246
31.29637844
32.18795817
34.09175379
41.05443048
139.2915881
359.6296341
106.8296581
57.92110054
41.56106444
35.36016389
32.78046738
31.45117229
30.93541733
30.58999092
30.45644804
30.3816807
30.34100465
30.23251686
30.25624666
30.28896222
30.33812324
30.42787955
30.57614953
30.84951984
31.27995097
32.25104113
34.35786574
43.097316
486.3385197
257.2744959
98.79092234
55.88588721
41.10162485
35.28216961
32.77198318
31.41377514
30.87792057
30.51261238
30.36989462
30.2877141
30.24334931
30.13191707
30.15727011
30.19269033
30.24600005
30.34084436
30.49858588
30.78744853
31.25985639
32.32770804
34.74337929
46.980237
784.5941687
220.5056892
90.74599065
53.63994558
40.46375868
35.11960272
32.70947494
31.35767874
30.81164561
30.43102504
30.28111035
30.19372879
30.14638648
30.03375777
30.06079587
30.09845269
30.1545161
30.2526986
30.41720449
30.71758992
31.2228515
32.40722581
35.37199755
55.53975941
906.819443
183.9968284
82.64363641
51.34261497
39.816476
34.94897624
32.61934302
31.28336699
30.7366436
30.34676631
30.19209444
30.09967674
30.04967951
29.93303914
29.96156686
30.00130714
30.06041733
30.16254921
30.33133655
30.63982055
31.16274557
32.4424256
36.21895725
73.49844034
788.4840197
156.454312
75.99467157
49.52222555
39.33176139
34.7744322
32.50776512
31.19429692
30.65059099
30.25535855
30.09723603
30.00204274
29.94994911
29.8338795
29.86388289
29.90535854
29.96605731
30.06979982
30.24091867
30.55460014
31.08985088
32.41178315
36.96800608
94.07841205
665.1636304
140.9532133
72.2131344
48.55531935
39.00634135
34.59215864
32.3830296
31.09509207
30.55639151
30.15963387
29.99976579
29.90253836
29.84928549
29.73027592
29.76141167
29.8045991
29.86769815
29.97434448
30.14633645
30.46295838
31.00710959
32.37130925
37.57055129
102.4807049
582.8046765
135.103054
70.98713647
47.96887245
38.71177141
34.41179118
32.25164006
30.98868963
30.4554
30.05739097
29.89603144
29.79746918
29.74358468
29.6286592
29.66075409
29.70524652
29.76920877
29.87609297
30.04814995
30.36615301
30.91707336
32.32962742
38.24862088
107.105732
519.722621
130.9950225
70.10352567
47.51287906
38.44898597
34.23835002
32.11803647
30.87725273
30.34892297
29.95211176
29.79063733
29.69144108
29.63727487
29.52129044
29.55389403
29.59964428
29.66569696
29.77522451
29.94689955
30.26536354
30.8219472
32.29123875
39.06993281
109.5759967
468.3714847
127.5032099
69.36321528
47.19324513
38.22156993
34.07477567
31.98517022
30.76251258
30.2382275
29.84104546
29.67893742
29.57937919
29.5253178
29.41763197
29.45051941
29.49694417
29.5630737
29.67174414
29.84298743
30.1614747
30.72351953
32.26062908
40.08721529
110.5955383
425.7502768
124.4626333
68.71595296
46.9812495
38.03511232
33.92376917
31.85521706
30.64605543
30.124476
29.72926862
29.56785471
29.46840092
29.41464173
29.30683457
29.33962178
29.38675067
29.45464742
29.56608092
29.73678811
30.05521356
30.62347335
32.2467008
41.17505524
110.5838975
389.8948025
121.7638461
68.14589499
46.83782975
37.89081494
33.78781948
31.72998181
30.52929842
30.00881199
29.61246815
29.45042488
29.3509612
29.29770369
29.20256707
29.23510651
29.28228924
29.34934012
29.45844697
29.62876039
29.94734926
30.52376038
32.26249529
42.15949045
109.8092998
359.4430202
119.3337234
67.64439739
46.73787894
37.7840559
33.6682387
31.61090796
30.41349386
29.89224141
29.49779204
29.33670533
29.23760522
29.18491486
29.0888988
29.12094468
29.16842382
29.23714362
29.34959371
29.51944696
29.83872713
30.42656397
32.31955297
42.97221981
108.4771154
333.3975948
117.1252825
67.20611436
46.66984072
37.70847974
33.56506922
31.49897491
30.29966545
29.77572272
29.37797754
29.21560215
29.11642549
29.06433044
28.98585046
29.01735316
29.06446656
29.13151393
29.23971322
29.40943301
29.73022712
30.33419718
32.41555204
43.6157336
106.7150105
310.9715834
115.1143512
66.82780954
46.62888231
37.65896664
33.47782952
31.39485121
30.18863104
29.65997591
29.26369884
29.1022363
29.0033762
28.95185739
28.86948598
28.90030591
28.94749945
29.01647843
29.12968059
29.2992614
29.62270442
30.24892783
32.53832977
44.11212847
104.6387231
291.5356581
113.2822589
66.50582726
46.61365759
37.63247338
33.40614779
31.29907299
30.08107853
29.54574906
29.14255585
28.97860358
28.87931089
28.82826349
28.76965403
28.79982379
28.84644867
28.91308786
29.01937071
29.18944228
29.5170384
30.17271298
32.67436047
44.48613444
102.3588613
274.5661666
111.6102456
66.23702216
46.62192882
37.62773304
33.35010081
31.21225085
29.97769497
29.43351655
29.03168043
28.86842883
28.76917976
28.71855284
28.65000643
28.67943713
28.72605003
28.79514378
28.90982319
29.08045951
29.41413669
30.10695439
32.81385929
44.76160221
99.97468032
259.6359537
110.0840533
66.02038095
46.65650732
37.64400012
33.31027052
31.13512855
29.87914113
29.32395981
28.9096023
28.7422167
28.64197652
28.59156091
28.55570882
28.5845142
28.63056448
28.69692689
28.80048159
28.97278343
29.31492035
30.05228575
32.95127266
44.95930737
97.5642521
246.3967401
108.6944777
65.85659497
46.71986007
37.68342267
33.28745531
31.06846653
29.78598817
29.21730469
28.80544257
28.63842326
28.53778828
28.48754652
28.4312559
28.45934178
28.50533891
28.57462562
28.69281124
28.86689998
29.22026301
30.00874284
33.0840982
45.09696128
95.18835874
234.5522519
107.4329773
65.7482922
46.81538558
37.74712153
33.28226402
31.01278716
29.6986381
29.1141992
28.68112741
28.50819446
28.40592886
28.35556521
28.34554823
28.37312532
28.41877103
28.48564062
28.585677
28.76331033
29.13092803
29.97577818
33.21123083
45.18877971
92.89135552
223.8728498
106.2946848
65.69961617
46.94599362
37.83613874
33.29448367
30.96817364
29.61729374
29.01451469
28.58823111
28.41499436
28.31181421
28.26134573
28.21357943
28.24048978
28.28605363
28.35545431
28.48153078
28.6626594
29.04754179
29.95222222
33.33150579
45.24268504
90.69007103
214.1929831
105.2808152
65.70696406
47.11332571
37.95037496
33.32413174
30.93422172
29.54201022
28.91910707
28.45746518
28.27732878
28.1719245
28.12099612
28.14066977
28.16726487
28.21282966
28.28200422
28.3787457
28.56587607
28.97081896
29.93661231
33.44312757
45.2604608
88.57553427
205.3990507
104.3955846
65.78025118
47.31672463
38.08799292
33.3692051
30.90979071
29.47288759
28.82782804
28.38314728
28.20057508
28.09375782
28.04245833
27.97319076
27.99916505
28.0449626
28.11696276
28.28251964
28.47477393
28.90237407
29.92704801
33.54331401
45.24273881
86.53823546
197.3838786
103.6459961
65.90752541
47.54975286
38.24385393
33.42648619
30.89341585
29.41069437
28.74331301
28.2188326
28.02715458
27.91679431
27.86450037
55.57114071
133.3558009
70.64670475
61.50487477
170.0510506
138.3618144
69.17864209
168.8612189
171.493818
79.15147115
153.2927345
167.0053843
89.47529044
701.3043974
598.2506611
138.1318081
150.9903349
118.6831966
443.7373646
687.2898757
374.9685989
134.1969222
136.6477961
46.6977778
42.61666141
65.45980539
40.49201327
357.8984947
133.7860866
108.9832455
51.55733633
43.1527867
36.79487777
53.04318446
49.72882365
1150.871256
807.7620111
141.2615239
61.70232248
54.4116109
37.38433288
58.67539636
53.67081606
65.26748832
191.4131093
167.2999045
693.0907322
923.6063847
144.2122917
67.2458879
63.56665216
38.08886274
65.53309155
59.43033318
73.6319103
297.3922217
228.3039929
410.2702412
531.7562321
39.04905913
75.15499898
66.45675567
82.60992145
490.0891424
378.010371
1543.731187
269.1327116
313.3729304
40.75915786
95.90141252
76.66973163
99.12539984
1158.994926
734.7682636
146.9394083
340.0344354
437.0345461
127.3495994
155.0407208
83.47081875
122.8897699
784.9498799
375.3756462
105.5083884
308.5002433
562.7061505
164.326056
144.8671701
58.59098523
192.7526104
210.4134971
160.3693535
189.413145
932.5424236
1152.807803
156.5150903
823.1197103
735.3403865
580.8960105
819.4719617
154.3582189
224.7581759
195.396069
66.22175491
256.1616641
303.5741644
212.6660909
252.7608795
553.73139
679.3209313
172.0881989
528.6898862
423.2262831
728.8022785
546.0630586
172.6131815
373.2257359
301.0328717
74.87588606
376.3856898
487.8110049
306.7273735
371.9078313
322.6519717
396.3105588
722.5034533
500.8231819
83.03119144
2300.358946
701.5509194
1109.785974
493.6777015
683.2093976
2707.676266
248.2761113
264.7450823
1364.564135
8570.092571
1171.095564
100.5732223
506.9214856
1851.860039
7738.364875
1120.185176
1817.353046
520.650233
36.01330935
49.33933775
43.92422298
52.53973445
101.8427454
73.74754581
1933.099165
339.6381442
58.00374017
142.507533
123.409126
4524.155725
134.5433221
68.74535044
67.95835735
4966.14503
584.992891
649.8019989
455.1143171
221.3405317
240.140881
119.9573268
104.3754002
53.47743261
1201.213025
173.9039888
409.7410793
113.6357733
274.6050559
97.77446956
664.6159509
844.1674891
159.2046874
327.1478554
279.0475991
410.0305791
336.0953158
161.4471169
961.4899022
3814.728802
607.1319861
64.01097369
53.10813036
77.40896487
118.7768879
61.86460144
65.51668266
2563.817679
253.906974
1826.826824
265.1162844
1352.779553
229.4742279
938.6760091
925.7606145
787.0805596
803.0158009
1578.444802
3687.763589
456.3364994
1882.983058
1048.03654
4186.065357
2229.612941
474.0576505
418.7985106
148.0635265
156.0343371
491.658637
557.6819176
4377.872923
802.9502533
203.0332887
217.76386
185.6915376
197.5613779
799.1378884
1006.10808
1199.714962
137.3965106
723.8976792
552.724225
1205.014731
727.324674
140.662841
102.7527658
286.5176542
141.1624069
476.7457224
311.987448
109.1620325
432.6858127
703.7809527
558.8660984
531.5409485
195.8300683
1427.049198
196.5207687
172.87979
1329.187591
1230.13788
1414.981412
1342.033376
176.8819115
978.685604
987.1922517
770.9110418
280.5378355
273.3242797
282.6648229
281.732978
766.4988416
690.2141649
249.9683183
229.8962565
269.8478817
255.8332941
704.0529148
277.6800724
280.7397022
229.703081
232.1740653
585.4802978
4353.805967
595.8397713
410.2887524
417.7285355
338.0545883
342.552402
991.3706615
732.6475995
360.6903042
892.4489464
1466.134334
560.9780629
171.2065717
181.6827895
158.9212971
167.982881
551.0184411
1050.879769
755.250127
770.0204095
536.5241881
541.8922546
5220.687174
817.0108162
425.3039847
472.5960044
224.1925369
237.5635538
1468.985578
2975.383466
1122.736278
1940.190383
1166.065301
6047.48902
2214.136857
5110.835386
1162.150675
579.4903782
3393.854605
1404.125161
2272.193199
1495.545166
2028.441261
42.53744315
106.6387788
99.10728286
159.1019022
4191.394787
7778.472497
269.1833079
122.4817416
131.3707392
687.2029218
2370.056692
3504.159273
376.7470036
410.5534408
768.5046757
204.3776483
215.2996812
443.3732182
117.5477205
85.44372682
160.5777001
279.9260254
106.3807833
121.5908594
1082.735057
2510.555577
2629.171371
866.3317902
734.3485558
2006.381806
1484.966345
3340.701991
3331.693349
886.3275921
269.2996355
116.8294666
121.7045493
110.8502181
115.2799762
263.4036653
138.81935
145.7130048
413.5597396
1061.421894
393.9339527
415.6585766
6434.559315
2974.242312
407.2997197
681.9728756
2266.870801
2496.50306
403.644124
186.8972193
158.4233305
221.8217255
196.5307811
420.5115493
954.2503164
3255.240684
3341.022031
1102.168824
211.3365786
105.402093
109.4553554
668.251997
651.6071261
293.4244083
1407.377224
1300.617152
643.9381174
480.7875416
257.3273397
266.0324208
660.6779251
278.2752624
282.1438291
269.0856342
276.114883
649.9997647
332.6919592
130.6611693
136.707304
123.402289
128.7620565
327.9211064
389.8649197
1023.14443
1010.108815
1686.21489
1631.841151
464.2289687
318.813628
710.9149603
671.094219
1004.399772
994.3373988
359.1369823
349.7449541
706.8163725
570.6108584
5494.542625
1547.928001
728.7030964
925.4393525
511.4277825
1725.339021
1694.775121
1738.994518
590.6395552
4257.964858
8926.411431
309.2282391
365.0387943
423.9519187
444.0769925
1184.834498
1283.417013
849.0839118
470.1338354
1875.896492
7686.38088
1216.975083
1065.666332
16219.66423
1134.260538
1725.187856
1145.149847
1353.7413
1029.909824
4478.165345
4559.522115
1025.634213
1332.712519
5182.157586
1279.686209
1213.356337
263.1488355
934.5078601
381.4364433
936.1544693
286.3220778
3426.399758
2243.285681
747.9860436
4158.792054
4908.909677
3983.634175
2576.040649
818.0445458
4165.155317
5357.940917
2537.731019
3924.503784
5748.000651
1430.695265
2179.034471
1015.965895
1278.301953
5131.411323
2623.716065
785.246187
497.5739134
1256.678992
860.7237853
451.7028274
291.301365
770.0434075
2770.363352
3516.168905
1031.610331
880.524127
2658.744293
2775.700822
2189.060743
2081.595709
750.4606203
3715.242161
3622.620827
2633.865121
3623.446418
3578.767853
864.858611
3461.139374
2250.826213
2348.713195
2684.011788
1423.940807
672.4197631
724.6658876
3023.930235
841.549456
949.5861936
745.994128
810.6438348
2809.886711
2988.254447
803.7912489
947.0535679
363.3589076
386.4276193
959.2784931
766.3294869
341.0128284
357.5481643
1124.188485
1142.904673
701.9029798
235.379374
258.4391317
210.0381253
228.9154343
693.0550327
788.104923
298.5735964
330.998331
266.5639235
290.2754373
792.7163768
413.9785576
188.0683324
204.6352298
611.5742531
644.016135
1642.778588
1717.813447
647.5400336
2400.864182
2420.379004
3031.299276
1672.167658
1393.992441
2344.671856
1655.25863
455.186496
1184.337614
1570.464027
1485.884105
449.1898475
515.3580766
421.649082
437.6969925
1440.524346
570.9771135
585.2568977
537.6947777
565.9355854
1292.692981
362.9217657
377.8590436
339.5374784
357.7248239
1278.115421
1384.474937
402.1013982
416.234773
382.774526
397.2582609
1377.214233
3108.982864
3200.963285
960.7540874
1060.919751
3184.746798
3081.100474
935.1692301
943.6076211
902.9213544
932.4375177
962.1492586
979.1707407
946.5464441
958.4648549
607.795204
621.4705117
589.7489992
603.0773312
669.0382688
855.3164617
627.9567213
643.8324452
1232.519294
1434.079704
987.5076225
1148.433847
4596.117657
2254.304923
2452.220272
1528.832555
2153.645549
1041.10257
1030.749179
394.7466198
1711.145847
1717.88278
1670.271786
1699.050748
1770.736129
452.1882864
1591.023943
1101.824302
956.5386823
733.8328158
323.2456662
1037.034405
1551.657255
980.5876632
1047.84381
1625.281106
1655.300055
1574.945146
1612.616495
354.984099
991.0357601
977.5521235
4980.357576
1056.946619
4820.212861
4079.256858
4802.266168
1129.932452
5745.818137
1375.643127
5414.955604
4546.666425
736.8979609
830.7989976
1765.959331
1731.474292
516.9736224
572.7103869
1841.617534
1769.592948
5169.473951
1232.685886
458.2133627
508.8712695
5547.191653
6363.796228
1962.848486
6940.201491
4826.102609
1445.377809
1136.608961
6043.665645
3152.345243
6694.07007
3637.120906
1659.987341
59.55632569
40.79487471
35.86097496
5031.85912
5007.640052
125.5455268
67.9271078
68.69864706
5255.283437
784.3922533
2252.285204
1490.659738
272.2596467
230.8025462
145.3549422
239.598508
177.2566361
337.7618406
1181.128163
239.8590557
261.1323698
50.31075079
58.10990425
103.5515852
313.6845523
573.0810615
825.2296734
180.2836829
95.72948202
99.1852788
91.41403013
94.6218888
176.8879584
691.0153961
767.7681976
2531.464516
545.0473715
480.7352848
292.3780333
321.2654233
336.0971231
760.2660412
894.4704428
1138.451878
431.26488
100.3806661
104.1141367
207.3198595
265.5091375
609.1889751
580.0268344
556.5129783
487.1111642
242.988585
634.3893089
301.320488
316.4126366
3942.943929
3646.0746
2008.973297
1756.420313
1731.927779
1083.907751
3210.259401
5178.050646
4550.021896
1038.736644
609.6116691
673.1056269
1854.906416
1126.853188
1794.599936
1780.08023
1817.199686
2039.41291
4353.439814
2938.213902
3350.989086
4899.332432
1227.706757
993.4490423
592.2760332
1234.190378
148.2501327
118.76342
198.8618822
723.015911
1905.723849
1354.98665
5549.65548
5920.260085
6045.881567
4869.664213
5718.242162
82.50316931
102.4093127
229.6540731
2102.636302
1383.576263
1075.06099
2730.68207
2157.387485
1726.506674
3277.60738
2957.361144
4873.055702
4576.332095
3154.7647
611.3718335
656.8228965
1312.690868
4348.702673
2153.946466
2411.47081
3726.601765
2063.197499
2450.936814
1052.32908
1423.572973
1178.48441
715.2606109
477.6304794
485.6383055
1163.709517
693.5409809
735.4456716
491.1580298
502.9536299
744.303124
165.1622652
183.3413057
387.8427547
495.0456886
895.4716989
634.0292231
1089.725386
1136.833315
704.6532654
1813.959624
1285.422958
1342.210057
850.4164928
853.7702478
1433.536818
1468.484531
1485.254491
1377.929358
1403.329596
1314.871495
786.2756241
792.1222134
753.9540854
761.5257227
1248.026979
1405.861139
836.1361628
841.5375454
798.3510973
804.6019794
1354.081378
628.2422024
614.3564092
268.5469025
290.3183573
647.0388072
632.7260424
453.4859032
439.9321062
222.190643
1535.38541
1538.675332
1492.60798
1499.144766
1931.128905
1548.862705
1550.418624
240.1754986
475.1514384
458.9214891
4209.507964
4157.741567
2538.095504
2687.662761
4324.826274
4201.92534
4388.262158
632.1096699
1255.733495
1052.492985
283.8380465
296.6151736
603.7799251
530.9748607
269.9228923
280.2490286
1112.166771
1111.755981
751.4961632
772.9800225
1121.684576
1126.180901
5166.439037
1550.909229
999.5096918
985.5272183
12683.38955
2448.304428
1318.311998
4245.744082
3330.488479
1871.929934
1847.83433
1149.093062
5820.706429
6366.56578
6058.387459
4651.802176
1226.711765
1922.219317
1859.948842
2259.87907
827.153411
955.1584958
4936.71529
4851.481368
3632.058464
3343.395002
1820.717659
938.1667912
951.8098112
1068.484553
2795.293729
4922.136287
4137.649672
4977.942672
4746.706324
3227.288787
161.4322917
213.9271233
628.8680971
2711.056604
2641.50075
2792.389638
2766.77993
2567.141933
1693.434816
1677.132239
1711.665253
1696.774991
2576.156103
3387.416844
1903.897422
1916.206794
1832.483433
1884.389599
3447.926788
2364.753027
1537.55911
1392.431585
1664.321065
1620.372234
2428.616076
3248.048896
1941.559059
1952.945312
1928.292109
1933.797441
3290.875927
2874.054313
2815.205926
2938.38513
2823.813112
1020.760343
690.1372409
694.3852392
1669.537856
1038.118946
1043.124566
1007.665894
1030.589709
1656.732013
5116.250304
5349.49978
4585.560032
5200.685991
1750.138176
1765.273909
1718.291257
1734.62036
2236.372355
1024.682997
1682.475623
1613.992247
1713.60416
1051.14205
1055.687919
1045.521046
1048.934073
1706.085694
1649.499151
1695.03996
1139.769459
1582.276615
2206.01718
5524.852705
5114.604122
3732.852851
5402.898017
862.6719312
1232.947254
12983.68871
1186.045458
800.5917852
804.851173
1878.531041
7278.774419
7515.850305
9235.942048
5628.828467
5121.631224
1811.870044
1799.175292
1128.262278
1777.351436
1750.343192
2489.782568
1726.390948
2287.506828
1713.112256
673.0847648
2446.322551
1705.704933
4528.947733
4742.193855
5124.661002
3679.294257
4317.018241
1234.634204
1577.458953
771.2748591
404.4899431
560.0188022
898.2112831
1009.108085
587.8951981
872.4324864
1157.30834
4759.955109
5053.436248
4675.064019
4817.114713
5676.766429
5613.741619
5418.538919
3017.547117
4718.068051
4227.593671
5399.680056
5615.685674
3467.5703
3831.754175
4310.535309
5677.186481
4490.690986
2965.065308
3332.759828
1979.406324
1431.601577
2008.860468
1072.405609
1542.880034
2056.121656
2255.120074
2078.9138
2887.944645
1843.260729
1745.947674
2497.015412
1821.765902
2709.499376
2698.979384
1730.672735
1715.034597
1754.356006
1730.771334
2716.169178
2154.772853
1300.507196
1320.247083
3668.271962
3653.527221
3097.481065
4085.760198
3932.103958
3758.473128
3624.725276
3795.495605
2838.569546
1540.694747
1714.263246
1352.485466
1416.704176
2414.998598
4619.707311
3806.665879
1969.981024
4968.559627
4724.709095
4709.131169
2841.133182
4593.423019
4434.038603
1639.852803
1842.754658
3595.078433
1094.548051
1168.14792
551.1308097
623.1593682
1115.995743
744.5558774
507.9827025
531.6121475
1008.345144
969.72011
573.0022799
964.9488087
1290.24778
649.9218123
1072.513515
1052.089804
1645.018748
1141.23594
1121.83563
1254.994603
1214.363217
1736.553832
2532.609189
2387.175297
1564.198917
2292.538374
2400.872314
2155.583315
2268.514695
1535.34795
2293.159818
2265.739359
2877.571727
2153.704657
918.6641075
911.3303288
1403.701954
1448.073522
867.9010632
865.1940598
1444.366049
1458.95524
1418.284572
1433.06137
776.345307
781.6527687
1307.473601
1262.874212
766.5086771
771.3266312
822.984841
828.6489663
1393.355989
1367.273603
811.2098746
817.1151961
3163.664641
1979.432013
1989.614815
1958.314511
1967.31727
3161.681622
3075.176971
2179.076889
2506.35444
2011.953162
2059.953637
3082.735039
938.1415998
1541.651404
1529.472119
1558.880529
1550.79699
940.7323224
922.0150624
1489.292786
1469.757465
1518.182855
1504.763355
928.7796767
968.3652872
1612.892133
1601.048606
1630.546242
1619.026917
971.5095045
950.0202953
1574.76786
1567.564659
1593.807633
1582.903389
953.4565582
1521.38314
1526.431934
612.2011124
909.1914086
905.6595402
917.6272481
914.7019701
617.4227527
1507.693409
1513.554618
1601.113726
1511.753381
691.0300939
980.8592943
990.6578304
1431.698389
1374.856879
772.203082
630.8199731
926.5524616
924.8772818
935.9454452
939.4920014
641.7983767
1564.026966
1556.418089
4186.500342
4043.49445
4412.825861
2893.172872
3442.259944
2313.935962
3943.819467
3999.03923
3927.449467
3939.522594
2372.055802
1699.733688
3300.976904
2771.377425
3878.503434
4020.426018
1957.389065
1045.426395
716.9222766
719.0472945
701.7311012
704.6798229
1031.719371
1711.732858
1727.636485
1676.92232
1695.879371
1668.835776
2134.964591
1521.153962
859.8428386
954.0081858
747.2525954
771.4205555
1090.224095
1449.60409
2033.947209
1591.715969
1512.378152
994.0899747
1647.294769
1631.708418
1687.653595
1639.169162
990.223642
1633.958044
1647.454301
1588.985256
1602.458276
4621.546467
2854.443605
3056.71399
2075.873194
2516.021471
4722.153582
4726.31946
4551.455909
3371.339301
3927.086547
5068.958408
5207.849782
3706.074121
3952.173167
2785.33141
3264.912372
5405.985973
1799.905806
1801.004028
1781.507119
1785.045898
1171.45983
1184.076254
804.7564727
1867.006328
1763.539204
1820.407766
1810.340772
1749.552095
1066.722305
1075.66361
1058.114334
1064.512315
1745.271795
1790.399931
1091.067465
1152.557618
1077.644385
1094.00582
1793.874029
4951.91327
836.1570729
842.5049912
1237.151903
5362.922142
8489.491112
8877.076175
8187.457452
8263.886063
6007.922394
1910.32505
5948.198801
4074.013586
4480.982579
1146.25158
1838.230847
1820.495829
6002.009828
6590.036958
6322.41207
5082.543645
5574.848841
6987.648357
6607.639966
4063.000995
6274.61385
5337.459269
2283.119792
1830.296915
1214.859885
31.77143918
31.78351747
31.86657432
31.78846613
31.80913848
31.87960745
31.81685359
31.84619865
31.89901523
31.85574907
31.88725869
31.92158037
31.89522305
31.91680253
31.93919278
31.920747
31.92275255
31.94273182
31.91984196
31.90075604
31.9309897
31.89361132
31.86442904
31.91049592
31.85535638
31.8265408
31.89001628
31.81869363
31.79707649
31.87424655
31.66173557
31.68677484
31.75750025
31.6977478
31.73993137
31.78854286
31.75602696
31.81252191
31.83277811
31.83294368
31.89312301
31.87990454
31.91044748
31.9518215
31.91770324
31.96192014
31.96583871
31.92419502
31.9578466
31.92008327
31.89794161
31.90333044
31.84668175
31.85432593
31.8276337
31.77214996
31.80921098
31.75592526
31.71316655
31.77365704
31.56654628
31.61616198
31.66627038
31.63695153
31.71573445
31.72854915
31.74771959
31.86409569
31.81515637
31.90946075
32.06124967
31.91042463
32.09321121
32.19840405
31.9894169
32.23663173
32.23631079
31.99509324
32.20095198
32.10934583
31.94166167
32.06522948
31.92972323
31.85376329
31.88644472
31.77237144
31.76491655
31.74102198
31.66216301
31.69631391
31.4909999
31.57344126
31.6028454
31.61025854
31.76121826
31.71957644
31.83030608
32.10449511
31.90224174
32.22486209
32.7034792
32.13473162
32.81487404
33.24915269
32.36947336
33.39978958
33.33087027
32.35463695
33.13562888
32.77447281
32.19729478
32.62623611
32.25055644
31.98141958
32.14413888
31.88488469
31.78726773
31.81657082
31.6592597
31.65545217
31.43752649
31.5705415
31.56891826
31.63441022
31.91781188
31.78927595
32.05588768
32.70303455
32.2125141
33.04054032
34.93252442
32.95292755
35.70034414
40.81541226
33.98718456
40.83673531
38.83480184
33.83602746
37.16925429
34.88301853
33.07240616
34.29503193
33.07883337
32.40181602
32.79693928
32.18821535
31.94030883
32.04335299
31.72848593
31.66835578
31.39928569
31.60436093
31.57596566
31.70641333
32.18065016
31.97623472
32.42740809
33.751796
32.93131611
34.58098565
42.7293119
35.77802565
40.41948978
46.19978173
39.22993514
56.82720142
55.09568304
43.24293276
45.5322914
40.70292118
38.50273561
38.54439522
34.80615415
33.42320687
34.10009956
32.76068804
32.30566928
32.47406152
31.89217094
31.76034312
31.37420658
31.66242813
31.61852253
31.80572421
32.4764622
32.25862209
32.82970808
34.76975676
34.0427307
35.38928018
37.01839562
36.46031958
49.96419178
56.29764332
54.03473226
82.73929529
60.75442018
51.58288185
45.8892702
37.50048209
35.42130185
36.08879288
33.59915479
32.94999712
33.10456937
32.1469465
31.94900068
31.35652425
31.72156748
31.67758426
31.89958953
32.71667674
32.54257733
33.13838739
35.38805928
34.95412686
36.45550082
38.50107909
38.22737675
56.70552957
66.69316518
65.70159986
129.381139
82.55213114
74.72925432
53.14906829
40.43195915
38.27565133
38.28772005
34.55694374
33.84314055
33.83212635
32.4540127
32.22124968
31.34082394
31.7717269
31.73488545
31.97750976
32.9001634
32.76642163
33.36691329
35.82192835
35.50033381
37.09045271
39.38040204
39.15653166
63.36600149
82.58620283
80.18944164
145.4017243
94.36816847
91.28531024
57.73393917
42.74318279
41.12243972
40.10488606
35.41302548
34.79775834
34.49801421
32.75392848
32.53103359
31.32533611
31.81320956
31.78209084
32.04281283
33.05634995
32.93957887
33.56403647
36.26128168
35.91697016
37.70873663
40.45389008
40.09495427
71.30729259
97.83556955
94.58243293
140.1031622
96.16291227
96.34943831