/*--------------------------------*- C++ -*----------------------------------*\
| =========                 |                                                 |
| \\      /  F ield         | OpenFOAM: The Open Source CFD Toolbox           |
|  \\    /   O peration     | Version:  v1912                                 |
|   \\  /    A nd           | Website:  www.openfoam.com                      |
|    \\/     M anipulation  |                                                 |
\*---------------------------------------------------------------------------*/
FoamFile
{
    version     2.0;
    format      ascii;
    class       surfaceVectorField;
    location    "0.46";
    object      Uf;
}
// * * * * * * * * * * * * * * * * * * * * * * * * * * * * * * * * * * * * * //

dimensions      [0 1 -1 0 0 0 0];


internalField   nonuniform List<vector> 
25162
(
(99.99857178 0.006028877865 -1.911908703e-21)
(99.99435384 0.005455219241 5.668812195e-21)
(99.99786735 0.01436010802 -1.885245639e-21)
(99.99220115 0.01838761085 1.920148852e-21)
(99.99648541 0.02792339576 -3.757771937e-21)
(99.98730602 0.03852987406 1.135963503e-20)
(99.99840175 0.03155195844 1.156557106e-21)
(99.97864319 0.07044495079 -7.453745896e-21)
(99.9908572 0.06994634086 -1.248270727e-21)
(99.99755144 0.05716168773 1.803756242e-21)
(99.99917819 0.0341647506 8.897599441e-22)
(99.98936734 0.09456834179 1.790576098e-21)
(99.99756329 0.0536596282 8.730091329e-22)
(99.99819778 0.04228831913 -9.050735677e-22)
(99.99699312 0.06786512138 8.729734766e-22)
(99.98364982 0.1521739023 1.735746615e-21)
(99.99673222 0.08534903894 0)
(99.99656333 0.1044767432 -3.149221246e-21)
(99.97881437 0.2302073094 -3.149204855e-21)
(99.99609892 0.1271368512 -8.155761363e-22)
(99.99559635 0.1530406639 2.743306323e-21)
(99.97291308 0.3336570204 2.976128372e-21)
(99.99514746 0.1820395481 3.661622889e-22)
(99.99481533 0.2135691178 -2.369582727e-21)
(99.96899093 0.4593199067 3.413446232e-22)
(99.99466081 0.246749086 -2.374225033e-21)
(99.99476115 0.2802401458 3.372295305e-22)
(99.97014513 0.5922904489 -1.555722457e-21)
(99.99517737 0.312178568 2.140349443e-21)
(99.99593271 0.3405487318 1.774379785e-21)
(99.97885287 0.7049811918 -7.693465093e-22)
(99.99701407 0.3632255648 0)
(99.99834777 0.378299757 0)
(99.99414267 0.7652332659 1.347849517e-22)
(99.99990788 0.3845798958 0)
(100.0014618 0.3811570172 5.600323111e-22)
(100.0113576 0.7523070939 -1.074642564e-23)
(100.0027703 0.3690212029 1.042372765e-21)
(100.0038154 0.3494805991 -3.4038076e-22)
(100.0235742 0.6748324574 -6.44628541e-22)
(100.0045445 0.3242493086 -1.17127727e-21)
(100.0049618 0.2953633484 7.855678325e-23)
(100.0287272 0.5601318099 1.734830448e-21)
(100.0050979 0.2646472002 4.492526605e-22)
(100.0049941 0.2336828317 0)
(100.0279532 0.4369594572 0)
(100.0047275 0.2037923374 0)
(100.004477 0.1757625704 7.173443074e-22)
(100.0236922 0.3257471428 1.485996443e-21)
(100.0045246 0.1504341197 -3.631894111e-21)
(100.004366 0.1261471794 -1.356553893e-21)
(100.0196265 0.2301615728 2.943127748e-21)
(100.003743 0.1051707984 2.942908128e-21)
(100.0027968 0.08757071623 -8.214720823e-22)
(100.0117752 0.1582321334 -4.272268025e-23)
(100.0008057 0.07499137558 1.603983153e-21)
(100.00737 0.07295252486 -7.136517897e-21)
(100.0418713 0.1787120312 3.602528814e-22)
(100.0150685 0.1609506055 -2.539547008e-21)
(100.0025248 0.07433429147 -1.478151556e-21)
(100.0052023 0.042317146 -8.953317914e-22)
(100.0286504 0.1103063068 1.419633863e-20)
(100.0043153 0.01988517259 -7.189337872e-21)
(100.0210766 0.05888504656 -1.513694811e-20)
(100.0187397 0.01859942395 1.280388147e-21)
(99.98679774 0.01676267449 9.46101607e-21)
(99.97859873 0.008978575936 2.523839227e-22)
(99.97986105 0.04027681805 1.509008098e-20)
(99.9701579 0.03080623283 -1.324296267e-20)
(99.96682923 0.07818570647 7.855932227e-21)
(99.95182756 0.06583205827 -2.050362393e-20)
(99.96046798 0.1239365791 -1.341679621e-21)
(99.92062593 0.1225049262 3.944536469e-20)
(99.93297415 0.1565319411 -8.675084618e-21)
(99.94149564 0.1589204693 -1.861764184e-21)
(99.95537164 0.157115256 3.654995727e-21)
(99.97254528 0.1118082332 1.817546229e-21)
(99.95699255 0.1847999765 1.768513441e-21)
(99.94282154 0.2024704568 1.802527765e-21)
(99.90411538 0.2668691349 -3.649499538e-21)
(99.9287935 0.2589951456 -2.303982219e-23)
(99.93417806 0.2963861383 1.736019019e-21)
(99.91237803 0.328375057 -1.851198603e-23)
(99.85664706 0.4284513424 0)
(99.90373072 0.3832614267 0)
(99.87805274 0.4392799267 -2.153594026e-21)
(99.91054056 0.4402686522 -4.226301993e-21)
(99.89863462 0.4646381757 -5.831951394e-23)
(99.87032584 0.5366947827 -9.504344041e-21)
(99.8907783 0.5075731911 -3.267559119e-21)
(99.86549878 0.6818959335 2.803907313e-23)
(99.88429944 0.6427118331 -2.129142373e-21)
(99.82976032 0.7880831809 -1.163943737e-20)
(99.85919068 0.7401323457 -2.838981276e-21)
(99.84058569 0.9565811201 -5.227258426e-21)
(99.86659629 0.8934095413 -4.939337074e-21)
(99.80093902 1.1022334 5.565673055e-22)
(99.83843186 1.026675271 -6.263691705e-21)
(99.83827962 1.261252508 -3.20707384e-23)
(99.87099063 1.164957133 -4.006884609e-21)
(99.80193089 1.446942036 2.014424941e-21)
(99.84430155 1.334954959 -2.996166881e-21)
(99.87355663 1.538895009 -2.100694144e-21)
(99.90878743 1.402634145 -3.349171632e-21)
(99.85065584 1.75353077 -1.33917828e-21)
(99.88964509 1.600840786 -2.754849657e-21)
(99.94816158 1.711461169 3.366932769e-22)
(99.97715942 1.537280783 -1.233588137e-21)
(99.94637918 1.930015408 -6.063787176e-21)
(99.97065458 1.744178588 -1.705881982e-22)
(100.0373065 1.724923387 1.369802733e-22)
(100.0431345 1.522851653 -1.537635831e-22)
(100.0539367 1.918261507 2.704299521e-23)
(100.0582271 1.713110194 -7.919056175e-22)
(100.1108739 1.581005829 -2.633404973e-22)
(100.087443 1.372720826 -2.190025286e-22)
(100.1359318 1.732037509 -7.158062741e-23)
(100.1227027 1.528910151 2.089896786e-21)
(100.1473532 1.332669965 2.305182819e-21)
(100.1062864 1.141758102 4.008409391e-21)
(100.1733418 1.439775338 4.00395884e-21)
(100.1496724 1.260790773 5.087582738e-22)
(100.1500343 1.051016838 -6.352719053e-21)
(100.1034902 0.8912903074 -5.912228368e-21)
(100.1722485 1.122319616 -2.142094475e-21)
(100.1457037 0.9773642013 -2.103178885e-21)
(100.1300851 0.790332911 -4.982854228e-21)
(100.0850313 0.6655790459 4.553088919e-22)
(100.1442078 0.8343309504 -1.328467358e-21)
(100.1224444 0.7269808408 5.407783443e-21)
(100.0789984 0.4551897897 -1.245223589e-20)
(100.1264064 0.6205919209 -1.245126837e-20)
(100.1766846 0.6697778584 1.258331057e-20)
(100.1087821 0.5160422541 -2.54630318e-20)
(100.0918048 0.4263672151 1.099636026e-20)
(100.1271934 0.4543420286 -1.549244877e-20)
(100.0749006 0.3504851841 2.229877519e-20)
(100.0562104 0.310381556 2.476894945e-20)
(100.0695502 0.2119414796 2.111472909e-20)
(100.15779 0.3328002746 -1.754935417e-22)
(100.1212812 0.374941063 4.440946129e-20)
(100.0714929 0.2957489695 2.405069686e-21)
(100.050072 0.123635686 -7.011883242e-22)
(100.1115091 0.204357057 3.028739553e-20)
(100.0401712 0.05687429303 -7.05289535e-21)
(100.0840165 0.109169301 -1.605839966e-20)
(100.0723861 0.03441135925 7.18834191e-21)
(99.9645147 0.02187063738 -2.272255239e-20)
(99.95794926 0.008850991263 -1.135657276e-20)
(99.94545831 0.05393594675 -4.916430701e-20)
(99.93995246 0.03185860688 1.056316799e-20)
(99.91059811 0.10723861 1.003528786e-20)
(99.9017883 0.07254250458 -4.161447084e-20)
(99.87449409 0.1856483655 2.511566113e-20)
(99.83925379 0.140992491 4.521847519e-20)
(99.831896 0.2028713218 -3.929967233e-20)
(99.89310978 0.1980227219 -7.445035735e-21)
(99.83526489 0.2246592398 -5.523375365e-20)
(99.84996938 0.2475216235 -3.731598344e-21)
(99.83242592 0.3367134347 -7.27067322e-21)
(99.81238459 0.3250016976 -3.62361779e-21)
(99.74369603 0.3905590893 2.542639434e-20)
(99.76869617 0.420027144 7.146309505e-21)
(99.75075889 0.5463150081 -6.288139614e-21)
(99.71820265 0.536265596 4.640088879e-21)
(99.61851575 0.6438146529 -3.58218678e-20)
(99.68837182 0.6539001101 2.487730794e-21)
(99.63767279 0.7014745124 -1.55528816e-20)
(99.67451783 0.8125434462 -6.392256266e-21)
(99.64877613 0.8110210693 0)
(99.58916493 0.8938827054 6.627540807e-21)
(99.62056412 0.9022482217 -6.364417101e-21)
(99.57128716 1.216202997 3.099765503e-21)
(99.53293305 1.224542295 1.213980093e-20)
(99.45689017 1.347797189 6.012194308e-21)
(99.50516878 1.346834095 1.507450004e-20)
(99.49056309 1.73351292 0)
(99.43541892 1.762582012 0)
(99.3502679 1.936078319 -4.366563686e-20)
(99.4201603 1.91237291 5.399174752e-21)
(99.48467097 2.317084406 -4.139703806e-21)
(99.41408268 2.383495097 -8.519207256e-22)
(99.34024037 2.602953588 1.8026677e-20)
(99.42920767 2.536879264 8.677726142e-21)
(99.60936421 2.845953728 -4.970629952e-20)
(99.53379751 2.968435126 -7.68822109e-22)
(99.49442893 3.223067399 -3.196544357e-21)
(99.58834939 3.089866207 3.813504754e-20)
(99.8605615 3.167359124 -5.66506277e-20)
(99.80279271 3.356282963 1.479317628e-20)
(99.81813162 3.608643927 -5.969247252e-21)
(99.88580464 3.399870371 -2.654545058e-20)
(100.1551091 3.153810511 1.469032004e-20)
(100.1391191 3.391120669 1.272859889e-20)
(100.2029275 3.594390054 3.435512913e-20)
(100.2171559 3.33797141 2.855642863e-20)
(100.3771433 2.823318354 0)
(100.4065729 3.068058474 -2.78067183e-20)
(100.4893645 3.201334678 -4.095883907e-20)
(100.4518794 2.946552981 -3.481359478e-22)
(100.4748228 2.321185837 -8.046950139e-22)
(100.5335153 2.540460196 5.222133835e-21)
(100.6112273 2.614294518 -1.458759945e-20)
(100.5435408 2.394488284 2.350502152e-21)
(100.4643114 1.783265177 -5.871748486e-21)
(100.5330322 1.961866204 -1.370264083e-20)
(100.5949981 1.997058212 -4.755268323e-21)
(100.5191826 1.822130338 5.247673989e-21)
(100.4604902 1.438367477 -1.647399914e-20)
(100.3967606 1.303008216 -1.109646584e-20)
(100.5060948 1.449798564 -1.111142987e-20)
(100.439845 1.321305576 5.904023502e-21)
(100.3114823 0.8690941164 -4.920780565e-20)
(100.4164553 1.061269813 -2.576094369e-20)
(100.4836603 1.048614985 -7.463527453e-20)
(100.3607512 0.8779323137 -3.526216324e-20)
(100.227269 0.5861552439 -5.624993434e-20)
(100.3083841 0.7205793684 2.23829219e-20)
(100.3525548 0.7007039059 -2.669273092e-20)
(100.2599217 0.5871775358 -2.334655827e-20)
(100.1933825 0.3217582681 9.51281084e-21)
(100.3327372 0.4403789082 -2.408432612e-20)
(100.3120384 0.5337007366 -1.475101713e-22)
(100.2331146 0.4827020399 -1.37860296e-20)
(100.1408199 0.1869451746 1.418763478e-20)
(100.2383404 0.2678096387 2.523549419e-20)
(100.1124278 0.0855454256 -1.805704181e-21)
(100.179681 0.1422224105 -3.644605282e-21)
(100.1530628 0.04457816396 0)
(99.93814329 0.01796041231 2.281635667e-20)
(99.94102538 0.003728540423 -3.808168089e-21)
(99.90213175 0.04848721572 1.919860338e-20)
(99.91119475 0.01720203111 2.665147809e-20)
(99.83744745 0.1054304001 -7.631979797e-21)
(99.84816413 0.05142486078 -3.767461541e-21)
(99.75463211 0.2070309355 0)
(99.74556363 0.1150834809 5.821969248e-21)
(99.7050837 0.2033596314 1.767562882e-20)
(99.76775949 0.2384473363 -5.16055408e-20)
(99.69480626 0.2369086508 1.328923461e-20)
(99.70003139 0.2846770886 0)
(99.6408113 0.4249819158 2.008184969e-22)
(99.62687701 0.3821921771 -2.928815616e-20)
(99.52689226 0.4373173721 -2.92684532e-20)
(99.53987678 0.5040130757 5.934734036e-20)
(99.46343083 0.7151148707 -8.814508993e-20)
(99.43759008 0.654579271 3.248108375e-20)
(99.29136171 0.7519425364 -5.897209312e-20)
(99.35503419 0.8335876675 -2.938104025e-20)
(99.2851477 0.8474074254 -4.819050551e-20)
(99.27674329 1.090912082 6.932852894e-21)
(99.24962343 1.05502538 1.377038885e-20)
(99.15542138 1.137641077 3.484807672e-20)
(99.18526124 1.184732366 6.874256811e-21)
(99.02724585 1.689772022 1.857227944e-20)
(98.97994858 1.650741103 3.346535641e-20)
(98.85645356 1.780295581 -8.901379222e-20)
(98.9115615 1.832973868 7.224990383e-20)
(98.81445473 2.484506618 -1.232927093e-19)
(98.73498608 2.453508477 -9.232843798e-22)
(98.59805753 2.637914544 -1.004536332e-19)
(98.69259173 2.682582282 -7.198986804e-21)
(98.75763011 3.435554661 3.306692176e-19)
(98.63674639 3.437607185 -1.729561593e-19)
(98.50406376 3.701690352 1.745048629e-19)
(98.65169115 3.704735912 1.747647636e-19)
(98.99890861 4.414417779 -3.400097292e-21)
(98.84109718 4.496842368 8.150349587e-21)
(98.76945496 4.836079019 1.654766066e-20)
(98.95957533 4.736501955 1.246617141e-20)
(99.62037415 5.070811577 -6.381179022e-20)
(99.4738593 5.277249612 -1.17685279e-19)
(99.52308325 5.62134366 -1.466478867e-19)
(99.68426752 5.373741926 -5.654044361e-20)
(100.3964328 5.057098494 -1.397896786e-20)
(100.3342138 5.364035572 -1.995136038e-21)
(100.4836947 5.60803263 1.818380353e-20)
(100.5315559 5.262320162 1.820249095e-20)
(100.9499991 4.411853761 7.973872112e-20)
(100.9896008 4.734825732 1.649973917e-21)
(101.1560529 4.847272208 -2.293523063e-21)
(101.0901838 4.50726785 2.503212589e-21)
(101.1458029 3.492305558 -3.4501776e-20)
(101.2447746 3.764980602 0)
(101.3757437 3.786642812 -5.629732562e-20)
(101.2554374 3.515154353 -3.364992215e-20)
(101.0924961 2.602194552 4.236502437e-20)
(101.2056221 2.807353441 -2.498788183e-21)
(101.2950444 2.782330478 0)
(101.168936 2.588963153 1.979323294e-19)
(101.0230314 1.998213516 0)
(100.9175118 1.848460355 4.428419777e-20)
(101.0813636 1.964225798 0)
(100.9685355 1.823934163 0)
(100.6913669 1.201572134 2.71359348e-20)
(100.8657305 1.407343725 1.746998781e-20)
(100.931347 1.320991356 -1.544843949e-20)
(100.7453146 1.151425166 3.405818841e-20)
(100.5034425 0.7939489748 -3.106259559e-20)
(100.6356696 0.9344468373 -1.386642598e-20)
(100.675162 0.8627993357 -1.399375333e-20)
(100.5377933 0.7514064056 -6.77569354e-21)
(100.3664871 0.3836524175 -8.638140072e-21)
(100.5503463 0.480732201 -1.809156555e-20)
(100.5728576 0.6272541398 -2.408631666e-21)
(100.4704583 0.6028132469 5.266654909e-21)
(100.2673846 0.2205665722 7.262078001e-21)
(100.3920953 0.288248241 1.103592229e-20)
(100.2121035 0.1000260515 -1.838575731e-21)
(100.2933649 0.1504434798 -3.246188698e-21)
(100.2473952 0.04666837455 -4.668859598e-22)
(99.91915634 0.00263732678 0)
(99.93855445 -0.00707153278 0)
(99.86360873 0.01883134659 3.853853467e-21)
(99.89597801 -0.015416848 0)
(99.76380781 0.06284805924 9.784802461e-21)
(99.80675043 -0.002251827418 -3.220457404e-21)
(99.62466842 0.1730255534 1.629005491e-20)
(99.65775356 0.03986000498 2.153848906e-20)
(99.57789051 0.1395044458 -6.470474423e-21)
(99.62284244 0.2189394184 2.287965508e-20)
(99.54890304 0.183462768 1.845578764e-21)
(99.53181059 0.2519407334 -9.333455903e-21)
(99.40661136 0.4246533939 0)
(99.41202743 0.3539378377 -1.920126041e-20)
(99.28490487 0.3844662595 -1.576829982e-20)
(99.26885032 0.4839355211 3.915565915e-21)
(99.10446633 0.7495268944 0)
(99.10039368 0.6491341288 3.915146702e-21)
(98.91030967 0.7070597493 -4.044496949e-21)
(98.93715137 0.8620563298 1.950539504e-20)
(98.85895677 0.8504726703 5.044178367e-21)
(98.75179559 1.200001214 2.23941746e-19)
(98.73720486 1.126678628 0)
(98.60586932 1.193067892 0)
(98.62018801 1.28170523 -2.27531291e-19)
(98.27884899 1.946787247 -2.376289298e-19)
(98.23935082 1.850647771 -4.701115643e-19)
(98.07167086 1.953778729 -1.531981763e-21)
(98.1127593 2.073617436 6.564110918e-20)
(97.82016353 2.984247363 1.260207711e-19)
(97.73551557 2.872106464 -1.199126209e-19)
(97.51845532 3.05035181 3.048938359e-19)
(97.61743871 3.19024001 2.40866454e-19)
(97.51995937 4.427562235 -1.576190115e-20)
(97.35117608 4.32248798 2.278417075e-19)
(97.10554436 4.629234722 -2.387017067e-19)
(97.3157408 4.75839058 2.133953023e-19)
(97.7952049 6.188435366 -1.804146827e-20)
(97.50636932 6.181834441 1.335192961e-19)
(97.34123183 6.668387461 -1.805139694e-20)
(97.70374462 6.657021325 -3.716520861e-19)
(99.0825732 7.569116134 -1.365399709e-19)
(98.75646552 7.809640938 1.606205818e-20)
(98.8656963 8.356194995 1.609250045e-20)
(99.23052707 8.027125993 -1.273832979e-20)
(100.8604322 7.544483485 3.005735029e-20)
(100.7149099 8.000271608 -5.276715526e-21)
(101.0464816 8.315852899 -5.509396331e-21)
(101.1496165 7.78342868 3.012387176e-20)
(102.0004739 6.268565607 1.020886035e-20)
(102.0758469 6.727637526 -1.455975038e-22)
(102.3827914 6.7773958 4.451013915e-20)
(102.2504453 6.302546599 4.875035517e-20)
(102.2655551 4.641501382 -7.228047755e-20)
(102.4446852 4.990749087 8.151279277e-20)
(102.6459778 4.914140481 -1.004382334e-20)
(102.4267062 4.578652478 4.131704403e-20)
(102.0316158 3.260456049 -3.762478263e-20)
(102.2181952 3.491108414 -2.563152962e-20)
(102.3213176 3.390425575 -9.734723711e-22)
(102.1195177 3.178591688 -3.803480014e-20)
(101.8046886 2.384975145 -2.675847434e-20)
(101.6489928 2.233707857 -3.524165063e-21)
(101.8602394 2.292377841 1.7034362e-20)
(101.6977568 2.159673553 2.076243747e-20)
(101.1991949 1.400734995 -8.736926498e-20)
(101.4511143 1.600930478 -5.530567323e-20)
(101.4916628 1.434629863 -3.094496897e-20)
(101.2389902 1.289333237 -1.587661681e-20)
(100.8635829 0.9024180644 1.075957472e-20)
(101.0497596 1.030730747 3.243845412e-20)
(101.0647224 0.9093015344 -3.64262689e-21)
(100.8845936 0.8164446759 -3.557519848e-21)
(100.5648758 0.3856899415 1.87445404e-21)
(100.7855985 0.4372497665 0)
(100.8720055 0.6311893349 -8.843886568e-23)
(100.7592439 0.6396560881 -9.686476476e-21)
(100.4083794 0.215938372 4.182122108e-22)
(100.55217 0.2559687881 1.874285051e-21)
(100.3202619 0.09613996165 -1.878709562e-21)
(100.4063588 0.1285327783 -1.880939803e-21)
(100.3380729 0.03911629839 -1.888364474e-21)
(99.92022255 -0.0249838554 0)
(99.96214025 -0.02352615581 1.889293518e-21)
(99.84521794 -0.03696702054 -7.716661107e-21)
(99.90735181 -0.06579123018 -1.903842048e-21)
(99.709599 -0.02359582702 8.006948964e-21)
(99.79428107 -0.08901034847 -3.831059424e-21)
(99.50843177 0.05942566484 1.048364506e-20)
(99.60373628 -0.08591464807 2.949759676e-21)
(99.47055056 0.008744790672 -4.805796847e-24)
(99.48614853 0.1289447978 -7.765184672e-21)
(99.41583534 0.05709378537 -7.856277299e-21)
(99.37320481 0.1341820534 0)
(99.1671835 0.3153282257 -1.576791056e-20)
(99.20349173 0.2236266942 0)
(99.05868749 0.2176001542 -1.016536482e-22)
(98.999131 0.3395646413 -7.14941465e-23)
(98.71533108 0.6230627399 8.143001088e-21)
(98.75429606 0.4904555288 1.221311055e-20)
(98.53089151 0.4973366983 1.647370632e-20)
(98.49930437 0.7129986987 -2.363050057e-20)
(98.42524376 0.6618223915 -2.869174278e-21)
(98.1664973 1.079659671 9.838497497e-20)
(98.18247448 0.9762531264 1.223445541e-19)
(98.02408537 1.007898825 6.462055743e-20)
(98.00197635 1.128085677 6.328604711e-20)
(97.4204401 1.827924192 6.570145577e-20)
(97.41760822 1.68087347 -6.83080436e-20)
(97.20404406 1.736106541 0)
(97.19847472 1.910064242 2.133089033e-19)
(96.5146354 3.008438943 5.234750654e-19)
(96.46391659 2.792069497 -1.393505393e-19)
(96.14636503 2.911040771 2.629635649e-19)
(96.20156848 3.178662138 -6.71370376e-21)
(95.56445125 4.982336499 -4.964096524e-19)
(95.39707991 4.686051205 -1.415339575e-19)
(94.95177369 4.9666223 5.118572293e-19)
(95.1611904 5.342303492 3.621610258e-20)
(95.36267311 8.146651248 -2.585787476e-19)
(94.87966513 7.882811337 -3.21593901e-20)
(94.40847489 8.60369244 -3.522063421e-20)
(95.06992046 8.902978591 -1.34172991e-19)
(97.86457212 11.42841262 0)
(97.10441473 11.73362129 -4.992958313e-21)
(97.35307137 12.8244902 -3.564893468e-20)
(98.23543463 12.28001654 1.237068975e-20)
(102.0132568 11.17930655 -2.6990312e-20)
(101.7606058 12.00147883 -9.955225619e-21)
(102.5688187 12.36958144 7.961964916e-20)
(102.662022 11.40220211 1.720855513e-20)
(104.0110868 8.357509147 9.444722734e-20)
(104.2251377 9.035625477 -7.909855232e-20)
(104.7694849 8.884212084 3.193814515e-20)
(104.4276454 8.220683376 -3.122734439e-20)
(104.046573 5.622422839 6.81367644e-20)
(104.3801588 6.041180916 1.051514854e-19)
(104.6106794 5.794957508 -1.471309737e-19)
(104.2312469 5.421374024 -5.922864995e-20)
(103.3283462 3.648279524 1.178826324e-19)
(103.6236449 3.886621679 5.990961278e-20)
(103.7067555 3.675516445 2.401764242e-19)
(103.4012049 3.474853852 1.175519742e-19)
(102.7656707 2.484245901 -7.681210082e-21)
(102.5454658 2.353487315 -7.613860049e-21)
(102.7923888 2.330397848 -3.11925692e-22)
(102.5741377 2.221761574 -3.79588259e-20)
(101.7998397 1.415182665 2.536832609e-20)
(102.1249632 1.573038295 -2.008829269e-22)
(102.1109599 1.334468505 1.540748181e-20)
(101.7982105 1.241416305 1.147108151e-20)
(101.2684367 0.8787126577 -1.510026146e-20)
(101.506639 0.9717110363 -7.693070856e-21)
(101.4733346 0.8070701877 -7.69456128e-21)
(101.256277 0.7538333531 1.171435113e-20)
(100.7608273 0.3125474857 0)
(101.0078407 0.3037516831 1.243387264e-21)
(101.1650002 0.5163798247 -1.035240792e-20)
(101.0603009 0.5800473592 2.567640329e-20)
(100.5397312 0.1668407126 -4.736182715e-22)
(100.6895449 0.1645146755 -1.471204072e-21)
(100.4158934 0.07140600508 -1.898126236e-21)
(100.4963475 0.07408711429 -2.149592727e-21)
(100.4054157 0.02135284768 2.439234684e-21)
(99.95352699 -0.0637671708 -1.394650031e-23)
(100.0223041 -0.04488608615 6.683013798e-23)
(99.86162949 -0.1169397027 1.978844685e-21)
(99.95756267 -0.1312995386 -8.037423638e-23)
(99.69508364 -0.1498787408 -1.035405615e-20)
(99.82548202 -0.2038444708 1.562854127e-21)
(99.43178415 -0.109826791 -9.350714866e-21)
(99.6013769 -0.2562851142 -1.574334315e-20)
(99.41597037 -0.1843616433 -1.342225451e-20)
(99.37815457 -0.03399487723 -7.367834837e-21)
(99.33392173 -0.139928679 -2.929478303e-21)
(99.25544924 -0.06280043462 3.037007737e-23)
(98.96573358 0.09257330489 1.192021139e-20)
(99.04147332 -0.00782172426 1.213028616e-20)
(98.89346619 -0.05761297758 5.983435002e-21)
(98.78268381 0.0688766309 2.065589092e-20)
(98.36944127 0.3295846349 -1.653239801e-20)
(98.46824326 0.1742669738 -1.236451679e-20)
(98.23683827 0.1217743965 -5.541316286e-20)
(98.11587312 0.3556572928 -7.995138066e-20)
(98.06036535 0.2778511131 3.060397662e-20)
(97.64083171 0.6895028455 6.697354881e-20)
(97.69648348 0.570658305 -6.851729296e-20)
(97.53467027 0.5522306893 6.888313894e-20)
(97.46681493 0.6845714762 -1.951957824e-21)
(96.59840161 1.297420086 -1.538376505e-19)
(96.66026665 1.117939284 2.276400652e-19)
(96.42388216 1.099001776 1.561440813e-19)
(96.33835324 1.303765859 -1.621248001e-19)
(95.10401934 2.328984714 -1.630230505e-19)
(95.16847868 2.041202678 -4.117578607e-20)
(94.79458308 2.033044026 4.179796028e-20)
(94.69546937 2.369443585 2.061411982e-19)
(92.92592151 4.295718447 1.501480427e-19)
(92.93867111 3.779963425 -1.844474648e-19)
(92.27307943 3.819593166 -1.851262976e-19)
(92.21461659 4.477620199 -8.128442682e-21)
(90.13138796 9.139762239 -3.787241295e-19)
(89.64735505 8.064699673 1.333145487e-19)
(87.98613458 8.953172784 -2.53961995e-19)
(88.28822532 8.345943769 3.026986924e-20)
(89.20855936 10.30426463 -4.986587246e-19)
(88.40486266 10.23072942 -2.511660266e-19)
(92.52817422 19.17780143 -3.988103138e-21)
(93.71456503 19.02491672 -5.387621704e-20)
(92.70883517 20.75632564 -5.402493636e-20)
(94.23152688 20.28346691 -5.483322841e-20)
(105.661795 18.18563305 0)
(105.9143816 16.72475614 1.048289562e-19)
(107.3922292 16.51601074 0)
(106.3306476 19.0220284 0)
(108.1847114 18.05187768 0)
(107.7846362 18.69339745 0)
(108.4725848 11.03928144 -2.513508359e-19)
(107.8104382 10.15288855 -3.940458915e-19)
(109.117407 10.34647693 -1.679929463e-19)
(108.3003988 9.626260889 3.704039094e-20)
(106.6015189 5.965046666 7.661582047e-20)
(107.190201 6.369193398 -1.756004424e-19)
(107.3493655 5.858120811 -2.545472524e-19)
(106.7338673 5.553743546 7.70326457e-20)
(104.9386414 3.514206287 0)
(105.3664183 3.700146856 0)
(105.3629923 3.368170432 -7.35227448e-20)
(104.9426945 3.238459079 0)
(103.8274908 2.184720866 -6.925630034e-20)
(103.5371192 2.105834565 -6.886738043e-20)
(103.7872181 1.974307713 -1.14580961e-21)
(103.5090902 1.91618452 -6.852045206e-20)
(102.4115728 1.186821215 4.038455041e-21)
(102.7952961 1.254832906 -2.71866313e-20)
(102.6861814 0.9708706054 -2.322416314e-21)
(102.3421412 0.963158631 -4.209330487e-21)
(101.6665601 0.6908324929 4.19067309e-21)
(101.9452756 0.7269942572 -1.553786786e-23)
(101.8472377 0.5339658319 -6.849918135e-21)
(101.6036606 0.5353062792 8.470325907e-21)
(100.9198093 0.1608243991 -1.819970081e-22)
(101.1623664 0.08221512588 -2.732568321e-22)
(101.4170289 0.2796365819 7.844910172e-22)
(101.3300437 0.3699344021 6.206458381e-21)
(100.6354562 0.07157725215 -3.153483771e-21)
(100.7736303 0.01557095971 -2.298917701e-22)
(100.477606 0.02475421119 2.356408404e-21)
(100.5404663 -0.01098767702 -2.10055517e-21)
(100.4287526 -0.006098857082 3.87062737e-22)
(100.0295441 -0.111512294 1.463212175e-23)
(100.1274981 -0.06974948972 -2.801571339e-21)
(99.92530683 -0.2160200183 -5.126437222e-22)
(100.0561659 -0.2075302113 1.218159636e-21)
(99.73663294 -0.3080062411 -4.027587755e-21)
(99.91231253 -0.3382316894 -2.651449149e-21)
(99.42354526 -0.331566543 8.27027145e-21)
(99.66749884 -0.4572903892 -9.129981119e-22)
(99.43654059 -0.424462986 8.701875619e-22)
(99.33373713 -0.261235146 4.052553015e-21)
(99.32919712 -0.3912628329 8.403919225e-21)
(99.21448288 -0.3266549507 5.934264188e-21)
(98.84755469 -0.2280876415 -2.016758337e-21)
(98.96729072 -0.3219113762 3.134490439e-21)
(98.83104469 -0.414673713 2.068374398e-21)
(98.66806765 -0.304262794 6.274179256e-21)
(98.14189107 -0.1190233441 -5.647759137e-24)
(98.30473281 -0.2692249419 3.687865263e-20)
(98.09056511 -0.383897892 2.597024947e-20)
(97.87980797 -0.1603235016 2.299187986e-20)
(97.85797197 -0.2666745393 -3.505179002e-20)
(97.30080737 0.06194081715 -3.567105587e-20)
(97.39866456 -0.05162494537 7.134222827e-20)
(97.25380156 -0.1204236623 1.094836616e-19)
(97.1351664 0.0001832540855 3.590641297e-20)
(96.03316455 0.3772222975 0)
(96.17201912 0.2049070861 0)
(95.95316241 0.1086030664 -8.446129179e-20)
(95.78087531 0.2922097795 0)
(94.11639169 0.891361256 -1.004796424e-19)
(94.32773338 0.6186658499 -4.850879782e-20)
(93.99457258 0.463982034 -8.275342282e-20)
(93.72139013 0.7503662863 -9.911525145e-22)
(90.93238017 1.686228448 1.021575188e-19)
(91.32011334 1.201764879 -1.557072542e-19)
(90.79586423 0.8717953596 -1.081131339e-19)
(90.23293965 1.351181872 2.716290896e-20)
(84.48267527 2.63023586 0)
(85.07675513 2.033808042 -1.260702972e-19)
(84.53504506 1.419593751 0)
(83.69065345 1.995427358 8.919752609e-21)
(120.2250001 22.77309833 0)
(118.6875788 21.6435938 0)
(121.0322266 21.0882471 -9.1439116e-20)
(119.4888733 20.31811039 3.409781686e-19)
(115.1611669 10.08077003 1.515084044e-19)
(113.7142237 9.535937015 -9.344894519e-20)
(115.2410831 8.667018754 -3.138550879e-19)
(113.8597463 8.454575351 1.389195615e-19)
(109.6353629 4.9085672 -2.361607795e-20)
(110.4981425 5.085587544 2.456949938e-19)
(110.3446119 4.357411505 -1.526728183e-19)
(109.5414628 4.313356371 2.450526266e-20)
(106.5817952 2.609450551 -8.06560415e-20)
(107.1192122 2.654401108 8.159754292e-20)
(106.9428955 2.248211497 -8.762549556e-20)
(106.4499774 2.261629994 1.597494718e-19)
(104.8035062 1.400192527 -1.124743244e-19)
(104.4646862 1.405132872 1.00992403e-20)
(104.6675679 1.160049312 1.053738168e-21)
(104.3571732 1.186156591 3.695539384e-21)
(102.9202445 0.6907902448 -4.542324578e-21)
(103.3350927 0.6445775043 1.621984422e-20)
(103.1026579 0.3539828239 7.230570472e-21)
(102.7651376 0.4507142086 1.080873395e-21)
(101.9931604 0.3387869472 -1.86523249e-21)
(102.2828401 0.2990326107 1.27873757e-20)
(102.1069472 0.1092942496 4.724865721e-21)
(101.867942 0.1782152778 9.356536229e-21)
(101.0048645 -0.05941675297 -3.178859124e-22)
(101.2202704 -0.2125747743 -9.96352904e-22)
(101.566212 -0.06437376673 -1.010832009e-21)
(101.522672 0.06869018386 -1.125181684e-21)
(100.6697155 -0.06521460922 1.011330239e-21)
(100.7790071 -0.1789275152 1.241653115e-21)
(100.4844341 -0.04068071411 -4.031601731e-21)
(100.5172779 -0.1202985949 1.566039465e-21)
(100.390364 -0.0414280085 -1.990605436e-21)
(100.155847 -0.1647191126 -1.598008325e-21)
(100.2828793 -0.09628060445 8.84887308e-22)
(100.0451937 -0.3267291576 -9.308265356e-22)
(100.2090144 -0.2888251271 -6.589962284e-22)
(99.8455887 -0.4851420325 4.772748439e-22)
(100.0617807 -0.4815769394 -2.349173621e-22)
(99.49988532 -0.5857004014 5.334389929e-22)
(99.81114655 -0.6724826741 8.007693481e-22)
(99.5455715 -0.6890313196 4.748431385e-22)
(99.37436934 -0.5315191058 1.39026224e-21)
(99.41762937 -0.6740692498 -1.305394988e-23)
(99.27048203 -0.6314698731 -1.305580656e-23)
(98.84670412 -0.6125411147 -2.065717811e-21)
(99.00690282 -0.686060132 0)
(98.89546766 -0.8164990014 -1.015437436e-21)
(98.68859721 -0.737623524 -1.075433304e-21)
(98.08620053 -0.6642141729 1.08863862e-21)
(98.30503266 -0.7851846285 8.76992909e-21)
(98.12998293 -0.9513146 1.181433312e-21)
(97.84776689 -0.7716331863 -5.273448518e-21)
(97.86435548 -0.8903559401 6.485544567e-21)
(97.21562157 -0.6974502299 1.852473017e-20)
(97.3505677 -0.7867640244 2.42647796e-20)
(97.23624607 -0.8934393961 1.867209912e-20)
(97.07743426 -0.8043611358 2.962624907e-21)
(95.8824776 -0.7269137813 0)
(96.07895784 -0.8557681621 -8.197949405e-20)
(95.91028934 -1.002057176 -8.443827401e-20)
(95.68082064 -0.8763252575 0)
(93.94763661 -0.8070382004 -9.861811756e-20)
(94.2468504 -0.981921323 7.457903346e-20)
(94.01702393 -1.200147589 -1.201705419e-20)
(93.67434764 -1.045047451 -8.697271915e-20)
(91.11461097 -1.247014923 -1.040795845e-19)
(91.61175793 -1.433171354 2.066924169e-19)
(91.35077228 -1.794156078 1.034587209e-19)
(90.81109953 -1.680107914 3.448135121e-19)
(87.82357672 -3.157284441 -1.145181364e-19)
(88.22258524 -3.086039783 -1.11821536e-19)
(88.24382859 -3.382501177 1.095665792e-19)
(87.9109734 -3.528008228 -2.337055445e-22)
(134.127883 8.819913484 -1.865230662e-19)
(132.4589341 9.52867368 -2.640424484e-19)
(133.0756656 7.41243624 -5.644673125e-19)
(131.6821338 8.174448379 5.048733662e-19)
(120.3483884 3.982229107 -1.859599875e-19)
(118.7560363 4.449558595 -1.672792688e-19)
(119.3967511 2.704274212 4.406766294e-21)
(118.1199298 3.312130423 1.599860541e-19)
(112.0082731 2.076720463 7.61977021e-21)
(112.925172 1.830734309 1.632882662e-19)
(112.3440236 1.163185884 -1.818204883e-19)
(111.5712215 1.479200248 -2.579194244e-20)
(107.7807248 0.8843873341 8.863583281e-20)
(108.3322176 0.7253700231 -2.852264643e-19)