/*--------------------------------*- C++ -*----------------------------------*\
| =========                 |                                                 |
| \\      /  F ield         | OpenFOAM: The Open Source CFD Toolbox           |
|  \\    /   O peration     | Version:  v1912                                 |
|   \\  /    A nd           | Website:  www.openfoam.com                      |
|    \\/     M anipulation  |                                                 |
\*---------------------------------------------------------------------------*/
FoamFile
{
    version     2.0;
    format      ascii;
    class       volScalarField;
    location    "0.26";
    object      p;
}
// * * * * * * * * * * * * * * * * * * * * * * * * * * * * * * * * * * * * * //

dimensions      [0 2 -2 0 0 0 0];


internalField   nonuniform List<scalar> 
12556
(
903.5154331
902.6743325
900.5014413
895.8361107
888.7566386
873.5256495
848.100522
806.9175329
744.451709
653.7643476
529.2904127
370.0231114
182.4399034
-17.97474292
-212.7571067
-385.0079153
-526.3390423
-635.5157179
-715.725613
-771.6930886
-818.3339327
-839.1931259
-851.2216635
-856.7670831
904.0499215
903.581844
902.1484069
898.8844607
891.8339741
879.0659108
856.7516748
823.4747546
767.6643407
684.0711832
565.2870023
407.1922981
215.1237744
6.996884219
-198.6617828
-381.0676756
-527.962362
-639.665273
-728.7657528
-781.1528043
-826.7931527
-844.9285043
-855.4852004
-860.3047839
905.2657279
905.6269644
905.9376296
905.4818538
901.1750543
893.6795287
878.8353125
850.7683726
804.940728
730.6595908
611.6299892
436.3130122
219.9523338
-14.5211493
-234.5532951
-424.8637661
-573.8298348
-679.360264
-764.709457
-807.8536921
-846.2314808
-858.6306531
-865.8484776
-868.9971472
906.5037333
908.0364998
910.8918194
914.423664
914.3380036
914.6749776
911.1452696
894.4635594
866.3238947
804.2480309
683.0666697
484.1221542
205.2673767
-89.444752
-338.4487378
-523.6559289
-659.8065183
-752.388058
-820.910796
-848.4309349
-873.9894056
-878.6789485
-880.8568739
-881.5792856
906.5804236
909.4491887
915.2011112
923.6047477
928.276335
939.0053487
949.7648608
951.0562825
947.2057426
912.588504
809.4379267
575.362914
186.0277359
-240.2225599
-539.7451207
-710.8687182
-803.5614667
-856.6572715
-894.6139948
-900.088634
-906.3471764
-901.4285095
-897.4502184
-895.2802133
904.1706429
908.3677171
916.9326971
930.198092
941.2231967
962.5250548
989.5248016
1011.793523
1045.667976
1071.617648
1044.063979
829.1308975
192.9879903
-544.579785
-895.4095208
-995.4292358
-1004.175994
-991.51161
-980.8875217
-956.7530525
-938.9990272
-923.264085
-912.4771073
-907.2281818
898.0124084
903.3599248
914.3402237
931.8377783
949.2204528
980.3113828
1022.377445
1067.276267
1145.913086
1258.970012
1411.534448
1508.136773
386.2308474
-1325.480863
-1469.849593
-1363.578781
-1242.009458
-1140.894037
-1068.586867
-1010.438155
-967.258875
-940.0135345
-922.7580921
-914.6344753
887.0208363
893.1880142
905.8811882
926.324652
949.4187032
987.5966788
1040.360528
1104.83934
1219.535641
1404.381752
1721.028132
2333.885302
-3249.823986
-2228.064777
-1745.27532
-1463.188226
-1275.383496
-1139.156719
-1051.62235
-983.4945476
-947.3047385
-925.1667355
-914.7004345
870.3850497
876.9292729
890.3926553
912.1419342
939.3792661
980.9889708
1038.475295
1113.939954
1243.132615
1438.429276
1721.230169
2073.45148
-4602.002751
-2717.542714
-1985.040707
-1599.961361
-1356.663008
-1175.456027
-1069.236317
-982.9753459
-941.7710413
-916.9533121
-905.1471574
847.6798116
854.1157078
867.3170366
888.5725463
918.123351
959.13399
1015.178637
1091.805571
1212.818095
1379.729448
1573.595435
1745.621479
-4107.250584
-2640.7619
-1973.74503
-1596.978678
-1358.51005
-1166.267377
-1057.39089
-962.9888895
-921.591809
-896.6305698
-884.7035534
818.9259332
824.8066039
836.7939233
855.8081358
886.0109347
922.8341866
972.32931
1042.869502
1145.251131
1274.01912
1405.234985
1514.34496
-3015.863529
-2189.423038
-1752.656042
-1479.102978
-1285.21535
-1111.807288
-1015.524116
-923.9048542
-886.8158356
-864.1764198
-853.2823923
784.5552673
789.5109467
799.6040173
814.7872033
844.6882807
874.3052165
913.7151095
973.38639
1052.438475
1144.874024
1234.675272
1330.690021
-1934.332353
-1615.493803
-1424.365037
-1278.046442
-1154.593629
-1022.026443
-948.9297297
-868.5528937
-839.3922667
-820.9199108
-811.9455617
745.3716094
749.1578116
757.0020826
768.1228595
794.3809813
816.2956021
843.548516
890.3180928
944.2678639
1001.259636
1049.855904
1125.239957
-705.8683937
-981.9053906
-1078.586194
-1081.943887
-1049.949959
-997.1032708
-912.530019
-865.6233218
-802.6297606
-782.622895
-769.1914444
-762.6449281
702.3548374
704.8817708
710.2945843
717.6107313
739.1620777
753.0666774
768.2045378
800.5171012
829.6433425
851.0701321
852.0000709
858.7279016
276.5198202
-401.2330403
-669.8730121
-789.3087855
-836.6360533
-836.6978661
-797.8070865
-774.8521854
-731.5936768
-720.0657619
-711.7951027
-707.8105271
656.6200499
657.8184694
660.4867445
663.7662852
680.8456377
686.1365919
689.9379632
705.8563652
711.3227952
702.1604864
659.375184
545.1821772
252.0083607
-154.2195806
-417.3503798
-572.2698766
-657.9866085
-692.4448493
-687.1543607
-684.659379
-658.8857199
-654.9339383
-651.5235744
-649.9237431
609.287784
609.2581775
609.3010979
608.8015541
621.5884516
619.4746862
613.8462085
614.8478461
601.5211063
570.4552639
505.5149347
384.914535
192.2413953
-65.59531714
-275.4927067
-424.9791387
-519.5803492
-570.8961075
-587.7448763
-599.7101555
-587.8980411
-590.1062615
-590.8198764
-591.2175298
561.4525169
560.3924337
558.2246197
554.5555241
563.2927351
555.2018875
542.1824081
532.3217339
504.0944981
460.0355101
389.6792307
285.846878
141.5607207
-36.5886891
-197.8346163
-325.1529085
-414.5653406
-472.1913983
-501.2887332
-522.2443606
-520.9746107
-527.7686917
-531.6419336
-533.5184032
514.0952553
512.2175284
508.2981358
502.1586412
507.3900003
494.8660939
476.589004
460.3232892
423.3024713
372.671211
304.4111072
216.8516246
103.0551413
-28.65409713
-152.6153752
-255.6866335
-334.3046699
-391.8029626
-427.0024081
-453.1190478
-459.3125861
-469.2045752
-475.3272249
-478.2218592
467.9977579
465.5069796
460.2745533
452.3413835
454.8104163
439.3138352
417.8497752
397.9152059
358.695282
307.0910986
243.1661544
168.2468258
76.39092304
-25.22756257
-121.4202024
-205.332231
-274.0911221
-327.887223
-364.6162022
-392.6977966
-403.4420559
-415.154938
-422.6729268
-426.2557769
423.7483175
420.8419767
414.7171445
405.6134589
406.0396179
388.8298469
365.7030631
344.3065693
305.4560043
256.9093795
199.2716889
134.8857178
60.37204901
-21.08277102
-98.74812492
-168.4772549
-227.894672
-276.5292673
-312.4216134
-340.303905
-353.4711052
-365.9781641
-374.1875197
-378.1047604
381.7616851
378.6189292
371.9838304
362.2417704
361.2793503
343.3421247
319.7381506
298.3142259
261.2625685
216.7471074
165.7885588
110.7697916
48.52579798
-18.17208765
-82.10243283
-140.5015451
-191.6148764
-234.7865302
-268.4572343
-294.975933
-309.102102
-321.6470825
-330.0138565
-334.0164076
342.2984267
339.0673945
332.2436563
322.3063043
320.444138
302.5481875
279.3928727
258.7568157
224.2809056
184.1176499
139.2543232
92.06063679
39.49586566
-15.99555705
-69.30721576
-118.5645551
-162.4896461
-200.4560195
-231.1723582
-255.7401327
-269.8319934
-281.9128641
-290.0721304
-293.9834415
305.4812703
302.276779
295.5141106
285.7284808
283.3533398
266.0458218
243.9807339
224.5772845
193.0460273
157.1967313
117.8029105
77.19357495
32.45589301
-14.21404555
-59.09630974
-100.8804817
-138.6344919
-171.8228525
-199.3708868
-221.6908033
-235.11566
-246.4249772
-254.1420446
-257.8462134
271.32063
268.2284337
261.7096196
252.3282742
249.7422456
233.3897024
212.874392
194.8895409
166.4170286
134.6557605
100.1510999
65.13674997
26.86696705
-12.66673494
-50.70007301
-86.28841521
-118.7448979
-147.6320307
-172.0416446
-192.0360613
-204.4228241
-214.7895047
-221.9224266
-225.3487189
239.7448888
236.8268451
230.6804078
221.8764159
219.307896
204.1404238
185.3499612
168.9704066
143.511723
115.5339244
85.39640625
55.18951463
22.36143738
-11.27404863
-43.63182574
-74.01324534
-101.9054965
-126.9579037
-148.3828687
-166.0985435
-177.2517607
-186.5988462
-193.0727455
-196.1833759
210.6255274
207.9239356
202.2361328
194.1209651
191.7378684
177.8864964
160.9015905
146.1960918
123.6308858
99.11931914
72.88341667
46.85685837
18.6778576
-9.994689209
-37.56907298
-63.51868501
-87.45607476
-109.1023033
-127.750775
-143.3025227
-153.1405533
-161.4535248
-167.2409358
-170.0214942
183.7922822
181.3338863
176.1586329
168.7979768
166.7249648
154.2482753
139.0789797
126.0511331
106.2209032
84.87604884
62.14744673
39.78067547
15.62570056
-8.806366491
-32.29015259
-54.42350198
-74.91126921
-93.53248124
-109.6298161
-123.1639994
-131.6712934
-138.9741447
-144.0784421
-146.5298455
159.0461634
156.8459466
152.2129678
145.6397019
143.9670792
132.8775254
119.4918915
108.1025093
90.83622483
72.38783985
52.82390565
33.690005
13.06202753
-7.696197607
-27.63530363
-46.44572274
-63.9019992
-79.8301168
-93.59607482
-105.2683336
-112.4689707
-118.8071962
-123.2501244
-125.3824386
136.17195
134.236657
130.1585339
124.3825108
123.1787101
113.45921
101.8251263
91.98308114
77.11782195
61.32713017
44.633014
28.38033749
10.87829514
-6.65609067
-23.48568888
-39.37152233
-54.1419969
-67.66218571
-79.30028294
-89.26215657
-95.19868341
-100.6282086
-104.4412042
-106.2693137
114.9471977
113.2779013
109.755633
104.7715561
104.0880189
95.70240289
85.78850323
77.39409396
64.77231887
51.42908673
37.35277993
23.69050922
8.990203427
-5.67993974
-19.74883397
-33.03247924
-45.40098695
-56.75218081
-66.45017911
-74.83964701
-79.56138656
-84.14063337
-87.35912039
-88.90003531
95.1393574
93.73480898
90.76319138
86.55324191
86.44867613
79.34244021
71.07914748
64.08618082
53.55623153
42.47588391
30.80238032
19.49221134
7.331349907
-4.76234004
-16.35070551
-27.29337535
-37.49199184
-46.85742022
-54.79680285
-61.73374978
-65.28313494
-69.07017992
-71.72934557
-72.99947655
76.54570857
75.40065701
72.97149779
69.51642145
70.01064209
64.13804173
57.37100638
51.84544984
43.2586866
34.2830098
24.8324685
15.6807434
5.848658491
-3.898046679
-13.23029651
-22.04335307
-30.26569791
-37.82325211
-44.09465334
-49.70412137
-52.13644786
-55.18154329
-57.31462395
-58.33103084
58.84968664
57.96935323
56.08283153
53.35107178
54.60356168
49.86764427
44.52104601
40.43140047
33.68546071
26.68682273
19.313186
12.16670935
4.498607822
-3.081613018
-10.33461058
-17.18541353
-23.58778415
-29.50461954
-34.15275671
-38.53536231
-39.83167539
-42.19597124
-43.82702982
-44.5963563
42.174447
41.53127896
40.17508226
38.2194661
39.72816222
36.31914596
32.36039168
29.65933488
24.665524
19.54017888
14.12805072
8.871823307
3.244280703
-2.307471317
-7.616247439
-12.63172156
-17.32930944
-21.69025652
-24.83372437
-28.00695614
-28.43878435
-30.10894035
-31.26357265
-31.81599106
25.07040522
24.76158872
23.95691017
22.78025091
25.52281104
23.31809596
20.69306883
19.35952754
16.04486965
12.70301658
9.165348747
5.724082021
2.052559369
-1.569545035
-5.030635787
-8.30118706
-11.37484665
-14.25441278
-15.95708022
-18.03862169
-16.96533169
-17.96446429
-18.6419129
-18.90459922
12.68131338
12.38369114
11.96849311
11.3147833
11.64820351
10.51524108
9.273493096
9.380213724
7.689854818
6.027715545
4.312458104
2.653796314
0.8964172361
-0.8586114624
-2.532647611
-4.117580295
-5.617262497
-7.047609903
-7.278061294
-8.233800625
-8.518175559
-9.010570365
-9.337294871
-9.582998685
2126.273823
-4960.691656
-3471.182978
1779.537544
-4484.00489
-4988.784919
1539.293649
-3282.4956
-4351.908963
1353.798732
-2106.108403
-3127.707513
1141.044362
-752.4142818
-799.2563147
-1090.472782
-1968.900083
885.524987
360.7344017
-704.9474273
224.9849141
-407.4420184
-978.6972607
2276.991362
648.7627002
-3088.162524
-1125.473098
-6849.947319
-4674.100889
-4563.759786
-2931.801465
-2411.232995
1614.543755
1761.183909
2028.641221
-6416.688918
-6945.232473
-4219.724786
-2975.644342
-3012.017098
1447.406634
1529.248079
1728.86652
1650.596763
1682.592037
1806.469386
-4580.222589
-5504.689238
-3157.055716
-2496.44764
-2889.709448
1278.106765
1341.208095
1504.240114
1443.995775
1477.831404
1555.57859
-2952.922762
-3634.981329
1097.512079
1138.002979
1317.907618
1249.049213
1302.973607
1388.890999
-1565.882442
-1559.614333
-2146.426117
901.678857
889.9436184
1109.101255
1016.548485
1046.931455
1182.874852
614.1389663
368.0614259
374.6680656
2686.220471
2237.420464
3115.905055
2769.772454
-6972.565175
-6892.892825
-4626.367381
-6573.483012
-6795.121215
1823.86754
1954.116485
1891.135857
1959.228722
1827.038423
2193.648989
1981.056533
-5562.043595
-6373.404391
-4751.531967
-6239.320357
-5470.627859
-6771.695754
-6281.459907
-4798.458936
1567.955874
1666.250481
1621.011981
1674.293638
1568.9746
1817.814539
1683.376245
-3737.196099
-4516.460056
-3749.901339
-4409.390724
-3666.839658
-5414.485452
-4526.420418
-3905.442046
1394.74317
1473.141324
1421.488107
1476.299719
1398.748437
1562.289226
1480.76857
-2233.075186
-2859.754592
1190.647645
1296.905387
1235.614858
-1516.223342
1301.859892
1195.469478
1392.761534
1307.987735
-1557.483755
-979.3956986
-1480.683503
-1514.494685
980.0826486
1036.167804
998.6998449
-2.681377138
1041.245156
904.8124882
1187.733576
1051.211476
-73.70725265
1744.052836
2072.680902
2207.819344
2325.300311
2709.314631
2961.176065
-9069.436985
-6120.599334
1932.413543
1976.381976
2190.721759
-3531.569741
-2063.784108
-1838.717644
-2338.405541
-1983.463923
-1949.120505
-2258.2416
-131.6125323
-460.7878738
-836.8246657
2232.790796
2638.419055
2284.073449
2394.979176
3994.050029
3636.488778
-4414.111314
-6453.855431
-4413.004778
-2309.615051
-2644.619863
-2531.970945
-2817.814809
-2209.239173
-3568.530399
-2908.233894
-2677.915952
-1102.367477
-221.5037448
-398.1133397
984.7941633
2104.754577
3049.381239
-4151.272269
-1452.600565
616.7542523
-9142.927569
-6327.363879
-8727.345515
-5791.86468
-8585.31267
-5993.886227
-6659.83159
-6697.291282
-5014.26544
-5077.097386
-3106.019027
-3447.595765
-3237.958809
-3432.893242
-3078.645439
-3885.048279
-3486.93507
-3335.590184
1343.391056
1315.230635
1278.502238
-1575.539203
-1855.520009
-1896.397605
1117.291422
1086.819786
1031.139998
1152.018567
1103.863501
1125.525568
2777.532754
2436.023112
2459.987227
2441.574125
2794.767546
2205.110257
2403.197061
2396.441356
3084.968482
3559.345121
3845.852111
2861.353312
3466.365548
3018.469462
3523.584232
2860.004089
-7050.26193
-7053.103959
1895.822716
1974.438765
1886.379058
2085.946608
2069.257789
2187.569055
1982.066831
2056.440689
2056.277146
-5938.317569
-5989.926317
-5888.465037
-5280.564835
-5485.621325
-4958.292218
-5204.661003
-5838.148072
-6560.750369
-5735.984959
-5807.342985
-5545.26563
-5696.9647
-6525.168076
1621.434454
1613.822524
1755.023936
1745.135796
-4058.632685
-3930.562774
-4114.667007
1440.88795
1435.450668
1520.593242
1515.281809
-3023.753455
-2674.201756
-2586.096858
-2691.564206
-3043.517879
1238.787734
1210.892154
1167.124095
1265.626617
1225.090489
1247.066095
-1152.420776
1250.889224
1242.126201
1352.29713
1347.230216
-1901.636009
-1158.124235
-1212.230678
-1483.736582
1011.005252
950.5482086
880.2007909
901.8689848
489.8820208
221.4263579
1131.000584
-208.7870052
183.3587134
-125.0098361
1123.403788
-311.1572022
-160.6542905
151.955907
-7928.52206
-2148.349193
-2311.951184
704.3799937
649.4839466
856.904026
752.5209132
784.1449872
943.6528241
262.9199594
-98.44121855
-292.6779032
4797.835324
-2343.409914
-2526.051823
-869.1974222
-1123.595082
-1109.392504
-112.5800693
-356.9413869
-63.19189907
1488.409345
2758.107187
3911.193615
-5425.69794
-1925.256987
477.4746085
-6531.385182
-7501.123283
-7340.130108
-6846.904003
-4763.177633
-4955.132612
-4744.298639
-5775.411101
-5587.400067
-5326.542561
1513.108206
1493.818129
1460.776867
1540.956296
1505.231168
1518.754536
1361.820089
1327.021151
1348.705411
1078.41553
1066.386652
1035.158688
862.165155
677.583698
418.9891801
-7016.839792
-7574.407922
-7563.702124
-6851.491028
-5715.478912
-5473.098967
-5812.881796
-5760.144975
-6844.436329
-5728.996011
-6016.130204
-5841.160286
-6221.397592
1606.969713
1592.558622
1553.396797
1574.756706
1592.134948
1587.182734
-4678.775635
-4475.919101
-4339.788064
-4077.343594
-3831.113868
-4114.227451
-5004.689936
-4594.003793
-4870.171029
-4210.158654
-4498.958451
-4944.588304
1432.145132
1406.626028
1373.212209
1450.00347
1417.598507
1437.522486
1462.37197
1475.295433
1485.713478
1410.50386
1432.409054
1415.810609
1544.313575
1548.90899
1568.509993
1488.828969
1500.232715
1494.671344
-2496.952514
-2626.71645
-2306.60657
-1338.360087
-1357.859125
1282.593173
1208.850845
1374.39008
1381.598353
1405.044843
1343.263362
1325.150045
-1693.288763
725.2156975
931.5539457
895.3370122
1023.907517
985.8394634
992.988204
190.5285115
404.6846709
179.7949871
999.6596116
438.9185883
708.3328178
527.153373
518.0385712
1159.257882
1082.658943
-8361.503866
-7634.553222
-7985.143717
-3684.130445
-3753.336966
-1955.886554
-2099.292116
-2098.687064
2305.421242
2277.233763
4003.579654
4542.221015
4568.627225
4391.044722
3938.206358
-2715.759614
-2529.845244
-2497.156339
-2527.740675
-2731.401114
-1100.741157
-923.8651974
-949.7712059
-925.1165276
-1098.262498
-703.0622179
-876.467444
-459.9688591
-497.3181408
-655.8743603
-297.3989516
-446.2414313
-360.9682683
-8976.527961
-7771.806061
-7344.686115
-8023.25613
-7865.091322
-7162.600339
-6433.227475
-7766.710457
-7054.72236
-6927.780018
-6562.090458
-6811.049017
-7280.087301
-7109.493559
-5231.805539
-5026.237456
-4826.20158
-5084.748778
-5296.789131
-4808.716216
-5020.813645
-5369.903155
-5264.924604
-5528.3524
-5306.763567
-3248.546162
-3317.09595
-3287.729648
-3210.033376
-3358.196508
-3728.756663
-3619.722321
-3779.319925
-3407.70777
-3567.26743
-3670.938287
-1768.885548
-1756.75984
-1903.444186
1103.813748
1076.757168
1085.565122
1147.509475
1137.137146
1112.912154
2610.642879
2562.705912
2569.248415
2578.623067
2456.009642
2775.970953
2624.082174
2619.119145
2280.522421
2295.354873
2221.477665
2419.477707
2323.35911
2309.303596
3097.45146
3012.032269
2835.075157
3215.771466
3114.868774
-7717.481963
-7592.375751
-7027.595574
-7788.066436
-7975.10052
-7736.386077
-8023.347793
-8082.6814
-8047.685333
-7997.036462
-7023.171334
-7746.636783
-7767.055146
1931.929975
1931.130818
1905.997313
1971.138054
1940.936878
1943.518126
1869.157882
1847.040247
1899.011121
1876.404064
2113.845731
2125.329099
2078.726398
2200.370946
2142.606241
2129.453519
2014.124596
2014.993473
1981.383824
2064.728486
2026.942943
2026.77273
-6231.490799
-6072.80487
-5782.804728
-6161.84414
-6469.706753
-6277.731987
1648.152581
1626.801417
1680.8164
1654.62406
1593.266964
1576.936837
1618.948074
1598.586466
1799.234286
1768.543079
1838.843135
1809.492634
1717.832419
1688.981325
1758.365558
1728.071758
-4046.21957
-4228.502135
-3835.830398
-3995.194164
-4080.446231
-4525.864287
-4735.099161
-4283.646666
-4463.986259
1450.195776
1469.87918
1457.286313
1475.191381
1452.455296
1488.500429
1481.093353
1447.434464
1420.408922
1434.730108
1444.706394
1527.099553
1542.507046
1537.787794
1545.1576
1529.132962
1570.59013
1550.895319
1501.013182
1490.788112
1521.19785
1505.267338
1499.588594
1504.703008
1520.959223
-2730.071287
-2846.207748
-2907.43805
-2719.439207
-2961.234603
-2892.503822
-1106.801509
-1311.18117
-1327.750615
-1108.747984
1275.977495
1217.909229
1360.922749
1375.178656
1368.478672
1331.128998
1349.724456
1357.712916
-1783.255895
973.1360068
971.7725462
929.1413332
599.985978
526.7776304
981.5998259
289.8294018
424.0534679
337.6271844
1149.262169
-352.7556819
48.13686152
242.1092128
8.8238777
1083.944973
-2934.803394
-2172.945712
-1479.174454
-2291.922833
-2347.490749
-1116.620379
-1206.123312
-1672.679854
-2349.538426
-900.2307686
-876.819996
-713.9562915
-2125.16519
-1593.858843
-1571.765999
1558.304925
3271.854643
4443.492232
-6571.964162
-2541.385466
368.2288146
-2041.519488
-1740.411197
-3978.083512
-6622.570392
-7499.073185
-7693.133391
1734.805473
1712.861983
1664.911351
1780.840485
1729.548506
1752.781046
-1560.622229
-1706.786037
-1704.875129
-2213.38447
-1934.9006
-1889.951934
1169.127858
1145.860337
1156.57178
-7736.227459
-7754.657558
-7015.776651
1649.667868
1606.2982
1620.950487
1650.851015
1654.347138
1679.72192
1688.104469
1715.906381
1708.762153
1208.026493
1198.231512
1177.085157
-1526.504851
-1479.81628
-1471.498216
1199.907727
1208.088582
1202.2825
-1631.30138
-1639.017863
-1535.700467
-1361.183466
-1363.93148
-1511.940113
1029.566937
1179.937247
1186.218868
1192.791842
1058.195574
-8978.136046
-3569.285072
-1967.429902
-2040.887452
-2043.273559
-2295.990432
-2142.247818
-2115.998238
2359.312513
-5348.543899
-4836.906047
-5853.15003
-2450.409969
-2498.873276
-2340.298137
-696.3866799
-709.3172239
-531.8402884
-538.8112585
-640.0754962
-2712.989742
-2268.662048
-5220.102828
-8896.635761
-8398.367622
-8243.758992
-8650.745355
-8688.536866
-3154.379244
-3187.412351
-3136.433738
-3461.975729
-3465.299645
-3440.499266
-3010.039056
-3157.10676
-3226.822959
-3847.512149
-3791.017034
-3847.632268
-1894.846874
-1874.936984
-1906.353696
2714.518395
2795.039552
2477.220335
2481.942022
2488.357682
2448.409145
2222.805384
2234.595322
2212.659625
2410.853793
2376.180185
2368.213643
3263.707694
3079.852107
3188.19961
3415.306744
3434.663143
3580.866232
2862.049493
2932.311472
2936.605632
1913.746348
1911.814584
1910.295868
1972.856844
1963.334898
1965.214273
1865.623947
1859.937174
1905.261958
1896.943602
2084.690241
2087.64558
2072.994252
2192.110862
2172.150677
2168.038942
1989.989219
1991.26574
1981.829137
2059.758845
2048.208997
2046.945101
1625.586407
1647.141547
1642.673382
1594.162616
1597.994867
1618.207366
1765.206931
1794.954668
1781.956712
1785.226809
1774.462581
1853.164178
1843.029668
1698.988292
1763.813218
1753.272296
1718.468174
1725.73809
1755.291312
-4226.658035
-4301.183106
-3906.155382
-3975.40304
-3996.929967
-4369.961362
-4380.791522
-4280.023909
-4414.83881
-4240.151239
1227.657307
1206.001468
1215.317462
1270.614774
1256.573118
1235.534019
1254.420222
1264.676831
1259.889211
1233.829274
1236.871597
1245.081468
-1904.592029
905.9220387
919.7400322
891.2516372
635.7056878
912.4355811
375.9969074
484.5606497
586.6221124
1136.695283
1140.684025
1136.963914
-270.7472359
-118.3114506
-100.8842481
-116.526724
1113.653162
1120.011445
1129.897045
-26.55942368
-111.3611105
-248.454583
-2179.493261
-2226.662253
-2335.113501
-2286.461155
-2267.601617
4948.368149
5022.348456
4887.808921
-2404.054892
-2428.003772
-2339.20936
-2541.409194
-2484.40761
-2476.324835
-3627.19661
-2930.798001
-6209.681825
-6790.429862
-6806.347851
-6698.905925
-6748.057378
-7444.60488
-7260.398516
-7308.320373
-7168.25787
-7214.879191
-7392.733715
-5716.845898
-5631.942235
-5692.638438
-5500.205721
-5569.017099
-5655.921198
-7618.957402
-7402.780861
-7404.934871
-7356.499016
-7392.22345
-7611.659531
-5954.338637
-5867.746426
-5925.044007
-5753.481142
-5811.139425
-5900.278706
-6611.72309
-6655.091035
-6491.390647
-6552.839559
1479.305413
1474.910411
1470.460618
1416.387817
1413.141261
1406.907396
1425.85815
1420.014823
1424.189467
-1476.120402
-1531.52252
-1335.084153
-1420.188539
1297.353165
1293.774821
1308.521142
1301.670185
1211.315354
1205.826552
1211.301845
1206.417496
1389.387789
1387.011559
1379.990464
1400.941043
1394.301433
1397.882961
1321.525377
1317.126145
1336.141921
1319.306678
1326.550648
-1697.521156
-1693.767481
-1687.226915
-1535.21039
913.9981179
938.9271008
1019.272974
1009.502311
1004.367724
988.4683967
1016.43999
391.7713575
382.8139574
986.8734441
884.56866
687.9240775
1160.372464
1175.283983
1170.448128
1070.051665
-8900.07556
-9187.978662
-8695.356442
-8476.266176
-7996.49494
-7105.311346
-8821.386424
-8489.263458
-3619.10741
-3768.392482
-2100.635309
-2092.834079
-2095.642315
2331.075587
2246.192999
4620.728652
4430.544851
4357.224305
3906.885589
3768.528855
4221.297168
4049.876191
4190.313559
-2615.966993
-2538.332341
-2672.650537
-937.2478743
-931.9687834
-921.2669647
-1040.764122
-739.1437733
-712.8663818
-703.6427575
-862.3391216
-801.2221435
-803.3168087
-469.5736201
-523.3656065
-516.9049542
-346.2122693
-354.5038831
-398.6058028
-8598.847477
-8513.059326
-8952.20974
-7977.477252
-8340.410892
-8354.738949
-8732.994876
-8716.425524
-6997.626282
-6881.690425
-6924.37805
-6826.123658
-6841.252008
-6945.290872
-7218.149394
-7067.343589
-7118.699799
-6970.684123
-7017.849051
-7162.894724
-5164.1427
-5089.792778
-5157.045484
-5150.96617
-5224.994127
-4851.819791
-4881.467068
-4857.073979
-4957.91163
-5449.133097
-5482.734775
-5437.180683
-5354.894232
-5427.798397
-5227.246818
-5294.469959
-5382.149365
-3287.297572
-3192.699586
-3190.430737
-3206.601492
-3146.674753
-3205.944385
-3389.588043
-3411.432495
-3342.153291
-3687.528762
-3729.837535
-3750.853806
2661.565087
2518.446194
2286.825
2258.735466
2246.286446
2337.614735
2344.651057
2315.32616
3214.91621
3317.437645
3316.064118
3627.946926
3494.284357
3020.253933
3015.604175
3112.289433
-7665.695242
-7457.541482
-7485.762604
-7413.588899
-7432.315108
-7624.116355
-7847.03603
-7906.870864
-8067.91796
-8399.795845
-8320.11445
-8470.755181
-8477.417357
-8099.621008
-8066.805095
-8271.508871
-8238.972314
-7990.924742
1932.336576
1923.327711
1922.896089
1954.818048
1953.196265
1942.743257
1876.708674
1871.045897
1889.152041
1882.654544
2117.820316
2102.565168
2099.542943
2147.827891
2152.615909
2134.348943
2014.131189
2002.113153
2000.95846
2037.634783
2037.225661
2025.958113
-6183.55736
-6088.705186
-6137.737741
-5980.227121
-6034.913081
-6125.933903
-6414.638489
-6320.828291
-6404.514966
-6186.848645
-6247.02184
-6341.323029
1641.575627
1643.058508
1648.681551
1628.146349
1636.236906
1634.450351
1671.231859
1669.461686
1680.990063
1653.641081
1659.975156
1662.10032
1588.146941
1589.93396
1594.187711
1579.58058
1585.138268
1582.764216
1611.456835
1611.31676
1619.458743
1598.545537
1604.217053
1604.564714
1807.08271
1796.187976
1789.024914
1792.861943
1803.379713
1771.737091
1782.270635
1778.778533
1830.198077
1818.043909
1722.435262
1712.96559
1707.80846
1710.243727
1720.108244
1689.637024
1693.854146
1697.021081
1748.24022
1750.953595
1761.304305
1730.516996
1740.705746
1738.155797
1742.967177
1732.760694
-4135.235926
-4171.248112
-4066.643155
-4035.257741
-4056.66987
-4584.638106
-4614.555111
-4564.362208
-4771.748713
-4681.91332
-4653.110179
-4328.932198
-4359.521822
-4335.377661
-4509.90181
-4456.196716
-4395.828783
1456.171949
1453.131249
1447.210425
1465.263779
1459.318524
1463.066643
1466.714601
1458.609862
1486.457132
1484.163989
1443.853082
1434.147138
1429.239574
1429.882437
1428.295162
1441.448677
1436.288029
1440.590418
1532.143095
1536.475417
1547.800269
1533.400929
1563.909873
1565.787416
1572.928101
1553.155438
1559.234548
1557.392144
1497.019131
1493.574801
1514.501536
1509.560052
-2845.592433
-2831.407435
-2898.834296
-2718.174435
-2770.375066
-2804.290892
-3032.80784
-3079.779251
-2946.172758
-2947.060889
-2957.100241
-1263.460093
-1271.815393
-1325.550592
-1129.452137
-1194.909929
-1199.406174
1269.377412
1257.163146
1289.154438
1281.116169
1222.01278
1228.797757
1225.576197
1231.212714
1224.779706
1247.066443
1238.907353
1365.033762
1363.287269
1358.746242
1373.776865
1368.277107
1369.7709
1353.193999
1347.188074
1342.160373
1354.690023
1350.996245
1355.416886
-1845.76877
969.9406441
949.2492475
950.5608599
567.063133
573.6196412
618.2920809
527.3158279
530.5973815
519.5134009
961.333264
377.8934795
333.2713492
272.6783551
1142.332056
1143.5689
1148.852656
-334.2415813
128.635834
76.72847932
228.7078194
222.3921968
230.688578
63.09819792
-61.63947202
-43.21288507
53.42336265
1096.210297
1110.893924
1104.001779
842.1914023
807.8792517
784.6307814
793.1572643
738.6015468
708.8318776
715.7894235
632.5305704
599.402993
597.9749254
475.7180228
450.864278
428.1977121
273.303486
264.7375759
219.1713385
51.94665834
57.38456651
-4.881733359
-168.2926337
-150.1522634
-220.8887779
-365.945909
-338.8603903
-410.2407447
-525.5027022
-494.3831348
-558.8798168
-642.4766967
-614.1557651
882.1695298
859.3346772
818.7345593
848.9340036
804.2623622
752.7092594
783.3729817
698.416349
646.7968657
661.6953277
524.1770671
485.4879728
468.4342254
278.1415689
276.2038413
209.965986
2.23850352
43.77006664
-64.77601454
-249.4911131
-181.7506864
-304.5582423
-449.4435702
-380.4308947
-491.5723275
-601.9993414
-540.7043661
-633.4986584
-710.816924
-656.3752934
936.1178195
929.9000579
875.4605222
925.0676106
896.9022852
824.3926373
881.270351
806.7097518
720.2176628
770.0240306
612.7666199
542.3490041
543.4678239
288.6270473
279.0407066
190.2073901
-103.3177859
-18.13367676
-193.1279529
-418.5669317
-282.2997906
-478.2099698
-617.4489868
-482.7323616
-653.9698839
-740.1323713
-629.2758615
-762.2139768
-814.350452
-733.5298103
996.7599184
1014.913559
950.0919248
1020.14484
1028.333168
925.7411593
1026.938743
995.5560355
844.7319518
972.2627145
825.1389698
649.850846
740.6173671
350.7874137
297.2182056
187.8175863
-308.172913
-141.7905652
-444.1472686
-727.7705817
-479.2288292
-787.8086936
-897.6775994
-676.3374127
-916.1532059
-945.0755421
-785.5425673
-949.3570684
-954.9040486
-846.011041
1054.502792
1103.234575
1037.255836
1122.159423
1187.669047
1067.147314
1212.417545
1289.783721
1060.487248
1312.467201
1322.409315
914.487659
1275.869654
582.085801
390.8916901
367.8568562
-838.3171187
-392.1058347
-1041.008783
-1288.454479
-838.0822846
-1305.067753
-1283.134255
-983.9011277
-1265.303605
-1202.765067
-1005.519554
-1181.541636
-1121.965415
-995.1469592
1097.908486
1173.873461
1123.342746
1205.454169
1325.873815
1226.990396
1376.987712
1579.207658
1370.799038
1669.420266
2160.564513
1509.436309
1833.704914
1863.205748
1315.311364
428.9890093
-1052.538477
-420.9713185
-1810.314009
-1733.835666
-1423.71494
-2039.993394
-1735.199786
-1394.522382
-1656.372092
-1465.021922
-1271.109289
-1412.852328
-1281.873888
-1164.034017
1114.703106
1204.133724
1185.737435
1241.457544
1382.187235
1349.152491
1440.557202
1657.012202