/*--------------------------------*- C++ -*----------------------------------*\
| =========                 |                                                 |
| \\      /  F ield         | OpenFOAM: The Open Source CFD Toolbox           |
|  \\    /   O peration     | Version:  v1912                                 |
|   \\  /    A nd           | Website:  www.openfoam.com                      |
|    \\/     M anipulation  |                                                 |
\*---------------------------------------------------------------------------*/
FoamFile
{
    version     2.0;
    format      ascii;
    class       surfaceVectorField;
    location    "0.26";
    object      Uf;
}
// * * * * * * * * * * * * * * * * * * * * * * * * * * * * * * * * * * * * * //

dimensions      [0 1 -1 0 0 0 0];


internalField   nonuniform List<vector> 
25162
(
(99.99891604 0.004308576352 -2.119587262e-21)
(99.995965 0.00370200743 6.274646294e-21)
(99.99815195 0.01120412106 -2.093771354e-21)
(99.99354548 0.01342477967 2.114357743e-21)
(99.99661125 0.02358314628 -4.178020455e-21)
(99.98841523 0.03063351708 1.260317217e-20)
(99.99832428 0.02870739683 1.303072899e-21)
(99.97864901 0.06181891741 -8.320189755e-21)
(99.99067496 0.06410085111 -1.389561578e-21)
(99.99708988 0.0527497674 2.019627284e-21)
(99.99908125 0.03181428149 1.002223958e-21)
(99.98884011 0.09130832539 2.009155748e-21)
(99.99743639 0.05228343474 9.844979146e-22)
(99.99810605 0.04034780038 -1.012379809e-21)
(99.99679554 0.06734721729 9.844577048e-22)
(99.98245407 0.1525271025 1.96048195e-21)
(99.99644909 0.08611107773 0)
(99.99620567 0.1069686806 -3.618617063e-21)
(99.97672248 0.2375941828 -3.618598229e-21)
(99.99564063 0.1318680664 -9.425104338e-22)
(99.99498895 0.1608009621 3.154419564e-21)
(99.96919862 0.3533358458 3.448849884e-21)
(99.99436249 0.1937780813 4.260301201e-22)
(99.99383251 0.2304376017 -2.85410834e-21)
(99.96298558 0.4997909993 4.05794604e-22)
(99.99347043 0.2700490728 -2.935343367e-21)
(99.99339258 0.3113764276 2.725590506e-22)
(99.96170488 0.6642547457 -1.970137936e-21)
(99.99373583 0.352355355 2.609361302e-21)
(99.99431347 0.3905326697 2.246099297e-21)
(99.96918835 0.8157690486 -9.99312715e-22)
(99.99504011 0.4235737352 0)
(99.99630924 0.4486169075 0)
(99.98607669 0.9139982665 2.346700248e-22)
(99.99823554 0.4635465445 0)
(100.0005611 0.4679647847 3.092157697e-22)
(100.0063413 0.9314448735 -6.043115548e-24)
(100.0028889 0.4612178196 8.946091013e-22)
(100.004599 0.4440393014 -5.432803288e-23)
(100.0246022 0.8633250139 -5.74725574e-22)
(100.0054431 0.4177170295 -9.791091924e-22)
(100.0058356 0.3850993846 9.446228583e-23)
(100.0338109 0.7361842283 1.721957379e-21)
(100.0061236 0.3489567057 4.420500526e-22)
(100.0062158 0.3109731599 0)
(100.035342 0.5847025657 0)
(100.0060355 0.2731855737 0)
(100.0058239 0.236966182 7.72167334e-22)
(100.0311057 0.4408601432 1.613685025e-21)
(100.0059607 0.2037138391 -3.915368626e-21)
(100.0058032 0.1715071102 -1.447430902e-21)
(100.0262886 0.3138321979 3.180798255e-21)
(100.0050135 0.1434110628 3.1805609e-21)
(100.003754 0.1197018434 -9.029548698e-22)
(100.0159089 0.2166378025 -5.866514973e-23)
(100.0009534 0.1027069202 1.754435975e-21)
(100.0100377 0.100175339 -7.868569128e-21)
(100.0572759 0.2460554358 5.720414665e-22)
(100.0202153 0.2199705603 -2.806730456e-21)
(100.0032788 0.1026396073 -1.638279261e-21)
(100.0071257 0.05835466467 -9.917098402e-22)
(100.0391109 0.1510414164 1.571490464e-20)
(100.005946 0.02735888743 -7.968471786e-21)
(100.0291228 0.08102651385 -1.67566555e-20)
(100.0257829 0.02562247511 1.521093258e-21)
(99.98990648 0.01166306633 1.047982835e-20)
(99.98500529 0.005413178253 2.72369047e-22)
(99.98244507 0.0307410027 1.675620172e-20)
(99.97566848 0.02073228063 -1.464533985e-20)
(99.96859827 0.06534747841 8.79312285e-21)
(99.95603363 0.04994126181 -2.27441356e-20)
(99.96084297 0.1125786288 -1.471708854e-21)
(99.92355522 0.1038210511 4.378517094e-20)
(99.93215798 0.1359788398 -9.660748107e-21)
(99.94118553 0.1455680223 -2.072336208e-21)
(99.95444508 0.14617052 4.095334973e-21)
(99.97261924 0.1030080486 2.0329372e-21)
(99.95486162 0.1783757748 1.990086093e-21)
(99.94035429 0.1933064309 2.023444494e-21)
(99.89929191 0.2570238854 -4.083309735e-21)
(99.92479624 0.2527134055 -1.757127145e-23)
(99.92925431 0.2972103366 1.960789623e-21)
(99.90633184 0.3264954084 -1.680461549e-23)
(99.84578861 0.4290965541 0)
(99.89681049 0.3879202923 0)
(99.86836745 0.4435637387 -2.454486825e-21)
(99.90148723 0.4531953419 -4.831465266e-21)
(99.88973915 0.4763148114 -6.198570094e-23)
(99.85753362 0.5516557246 -1.087037703e-20)
(99.88037015 0.523250064 -3.735924941e-21)
(99.84927023 0.7179188139 2.582752452e-23)
(99.86818317 0.6790282396 -2.474199207e-21)
(99.80732049 0.8313945571 -1.35197535e-20)
(99.84077096 0.7829198882 -3.291611905e-21)
(99.81330343 1.033804217 -6.217870825e-21)
(99.83958134 0.9690892717 -5.853648635e-21)
(99.76385561 1.193369112 5.6645257e-22)
(99.80802442 1.114668361 -7.463762159e-21)
(99.79691785 1.404218289 -8.990981752e-23)
(99.83072662 1.302010053 -4.927780035e-21)
(99.7476511 1.613691606 -2.548669577e-21)
(99.80021045 1.492912667 -3.711641158e-21)
(99.82479444 1.767190496 -3.624463659e-21)
(99.86225994 1.61643942 -5.112107333e-21)
(99.78953067 2.01625683 -2.629175393e-21)
(99.84176267 1.844747976 -3.475606837e-21)
(99.90306946 2.02803017 -3.023617807e-21)
(99.93883837 1.830531119 -3.042416616e-21)
(99.8897295 2.297214402 -3.61724022e-22)
(99.9287783 2.080424787 -1.852269935e-21)
(100.0060612 2.112013484 2.50404318e-22)
(100.0296565 1.880162207 -3.991336065e-22)
(100.0161707 2.367123212 1.399236923e-21)
(100.0312492 2.126187475 -5.679843492e-22)
(100.1058884 2.00706203 -2.209872544e-22)
(100.092422 1.75380687 -2.276721576e-22)
(100.1334889 2.212842274 -1.082075593e-22)
(100.1248489 1.962885646 1.859692002e-21)
(100.1691547 1.744394705 2.279385536e-21)
(100.1264936 1.501775581 3.955053874e-21)
(100.201001 1.894443881 3.974207262e-21)
(100.1760025 1.664516281 5.340275703e-22)
(100.1874029 1.404878024 -6.571672143e-21)
(100.1324266 1.194735158 -6.144100369e-21)
(100.2175371 1.506668566 -2.21027341e-21)
(100.1844852 1.313704937 -2.185475351e-21)
(100.1697069 1.069937885 -5.294468268e-21)
(100.112625 0.9025211912 4.858442494e-22)
(100.1892284 1.132925599 -1.42759272e-21)
(100.1609902 0.9879274642 5.820361405e-21)
(100.1061153 0.6219540341 -1.356661367e-20)
(100.1691258 0.8475707987 -1.356555957e-20)
(100.2381409 0.917541961 1.37538773e-20)
(100.1467451 0.7062741218 -2.779230571e-20)
(100.1244871 0.5844506953 1.210813248e-20)
(100.1728192 0.6239021951 -1.717919848e-20)
(100.1016068 0.4815418602 2.439719765e-20)
(100.0765502 0.4255431342 2.711922247e-20)
(100.0952794 0.2917376886 2.334334283e-20)
(100.2165749 0.4596752273 -2.181233188e-22)
(100.1651755 0.5142767886 4.887731016e-20)
(100.0971787 0.4083545293 2.658597868e-21)
(100.0688071 0.1703450334 -6.911845581e-22)
(100.153016 0.2804766897 3.353586428e-20)
(100.055356 0.07826230894 -7.796972132e-21)
(100.1159357 0.1505368639 -1.777948234e-20)
(100.0996035 0.04738561788 7.967547244e-21)
(99.97353866 0.01317598185 -2.514567423e-20)
(99.97257411 0.003253425716 -1.256760682e-20)
(99.95277861 0.03756202556 -5.449444883e-20)
(99.95272898 0.01590074682 1.173223243e-20)
(99.91538026 0.08572897841 1.189195116e-20)
(99.91086214 0.04769785036 -4.61378983e-20)
(99.87269391 0.1652764357 2.786552194e-20)
(99.8430785 0.1097734254 5.019795181e-20)
(99.82989724 0.1784701155 -4.554977696e-20)
(99.88875833 0.1793776169 -8.351800718e-21)
(99.83064979 0.2000363427 -6.147797814e-20)
(99.84450703 0.227455659 -4.154426065e-21)
(99.82391306 0.3229074847 -8.153532168e-21)
(99.80388642 0.3071625653 -4.06402081e-21)
(99.73092651 0.371881946 2.848931564e-20)
(99.75556618 0.4067633305 8.025301051e-21)
(99.73225169 0.5455193152 -7.066431747e-21)
(99.69888322 0.5299674767 5.204171459e-21)
(99.59051176 0.640376468 -4.019076018e-20)
(99.66381457 0.6583822168 2.864534241e-21)
(99.60921403 0.7047331183 -1.756033358e-20)
(99.64358932 0.833085115 -7.304602927e-21)
(99.61669447 0.828340031 0)
(99.55060687 0.9151713487 7.538630923e-21)
(99.58335542 0.927731626 -7.286896541e-21)
(99.51689395 1.27882264 3.576654112e-21)
(99.47612339 1.283065294 1.403578409e-20)
(99.38910485 1.41497748 6.961089263e-21)
(99.44020907 1.419690993 1.74483051e-20)
(99.40048764 1.868502261 -2.407874539e-20)
(99.34105398 1.892115232 -2.552015235e-20)
(99.23849567 2.084694896 -5.202119216e-20)
(99.31445048 2.066933406 -3.77054858e-20)
(99.35710933 2.575743277 1.693444353e-19)
(99.27557969 2.638654103 2.956362282e-19)
(99.18127838 2.905519607 2.144692126e-20)
(99.28039066 2.837574883 0)
(99.45951442 3.300417104 -4.583196116e-19)
(99.36304901 3.435555854 -5.339972484e-19)
(99.30941399 3.766183135 -5.424501233e-19)
(99.41790294 3.614567381 2.257784288e-20)
(99.74531533 3.792243873 -2.764472849e-21)
(99.63527349 4.006857959 -3.253332126e-19)
(99.67688327 4.345226269 -2.651718842e-19)
(99.73107576 4.101198279 -2.792665725e-19)
(100.0736383 3.925443137 -3.255928064e-20)
(100.0448183 4.206008367 -1.294790905e-19)
(100.1180192 4.48672102 -2.999932517e-20)
(100.1458281 4.177260664 2.721411319e-20)
(100.3839443 3.635791178 0)
(100.4081271 3.940116447 0)
(100.5120254 4.133523081 -2.859443192e-19)
(100.4768771 3.813525727 0)
(100.5531795 3.06807935 3.748605493e-21)
(100.6176757 3.352409098 2.777486537e-21)
(100.7176144 3.466293962 1.213126357e-19)
(100.6431063 3.176844194 6.948135303e-21)
(100.5884724 2.408942666 -6.151993428e-21)
(100.6695219 2.644785646 -1.427630939e-20)
(100.7535425 2.700858156 -4.994531795e-21)
(100.663051 2.468295989 5.608048948e-21)
(100.6075478 1.965815996 -1.777526553e-20)
(100.5248037 1.780424355 -1.199731872e-20)
(100.6715043 1.985900895 -1.201349759e-20)
(100.5843283 1.80875919 6.464885696e-21)
(100.4209961 1.194305775 -5.370168891e-20)
(100.5614622 1.459311087 -2.80591718e-20)
(100.6567989 1.446417598 -8.137906568e-20)
(100.4899861 1.208305655 -3.813178425e-20)
(100.3103393 0.8062846057 -6.192086424e-20)
(100.4208477 0.992265323 2.447602831e-20)
(100.4829573 0.9659443713 -2.93886459e-20)
(100.3553658 0.8084757607 -2.570484791e-20)
(100.265509 0.443679972 1.078193779e-20)
(100.4567999 0.6095824213 -2.652765935e-20)
(100.428588 0.7350150359 -1.681938006e-22)
(100.319081 0.6643545015 -1.522799626e-20)
(100.1938226 0.2575637427 1.570920039e-20)
(100.3281152 0.3686014231 2.798148313e-20)
(100.1549158 0.1178904401 -2.002271281e-21)
(100.2477094 0.1965071309 -4.046331112e-21)
(100.2107843 0.06137153104 0)
(99.95672066 0.005034794052 2.524063751e-20)
(99.96784424 -0.004270340019 -4.208660086e-21)
(99.91722223 0.02396541708 2.122719241e-20)
(99.93493039 -0.005941972643 2.947477477e-20)
(99.84645499 0.07170588954 -8.438662789e-21)
(99.86595361 0.0149551405 -4.188678976e-21)
(99.754117 0.1750257644 0)
(99.75178935 0.06953895902 6.428109702e-21)
(99.7057372 0.1628964249 1.961993999e-20)
(99.76414588 0.207096108 -5.743420701e-20)
(99.69217228 0.1979657429 1.475104441e-20)
(99.69305804 0.2516752571 0)
(99.62350698 0.3998768267 3.470572834e-22)
(99.61181045 0.3514465659 -3.268481723e-20)
(99.50477588 0.4037099651 -3.266282924e-20)
(99.51486242 0.4785340596 6.632536666e-20)
(99.42634083 0.7062780393 -9.865706813e-20)
(99.40104838 0.6381333176 3.521330908e-20)
(99.24273837 0.7345974017 -6.593564563e-20)
(99.30517313 0.8293250034 -3.276994274e-20)
(99.2306277 0.8440454625 -5.396085278e-20)
(99.21158915 1.109881048 7.836579605e-21)
(99.18427771 1.068198908 1.558509971e-20)
(99.08058023 1.154396236 3.935303438e-20)
(99.11001014 1.208275452 7.772068663e-21)
(98.91356291 1.764329174 -1.221851598e-19)
(98.86616072 1.715926162 -1.117503633e-19)
(98.72595646 1.858151634 -1.903918421e-21)
(98.7814948 1.920155412 1.643841004e-19)
(98.63066088 2.699263256 3.263947951e-19)
(98.54773765 2.656641473 2.209468164e-19)
(98.38141886 2.893675236 1.392467471e-18)
(98.48087698 2.947677104 3.22316361e-19)
(98.48583714 3.949007984 -6.606730766e-19)
(98.35397871 3.94839426 7.265562373e-19)
(98.18920945 4.316929066 0)
(98.35116757 4.311419765 -1.05255559e-20)
(98.74378466 5.307552016 -5.120837128e-19)
(98.51006518 5.398205485 0)
(98.4951786 5.886222361 5.819385051e-19)
(98.64366302 5.728459472 -1.17215029e-19)
(99.47822091 6.232840121 -3.66801826e-19)
(99.28079078 6.488179779 -9.805550839e-20)
(99.41444907 6.960008641 1.907712735e-19)
(99.53967986 6.635639113 6.893928899e-20)
(100.390193 6.35140625 3.314957746e-19)
(100.3356744 6.717714433 1.848370993e-19)
(100.5489715 7.047144658 1.862929859e-19)
(100.5779344 6.626637018 -2.018705091e-19)
(101.0980445 5.704359246 1.160567978e-18)
(101.1541101 6.089777408 1.621037878e-19)
(101.3835318 6.253359807 1.354642366e-18)
(101.2879444 5.846490175 8.904682527e-19)
(101.3999468 4.669399463 3.520394557e-20)
(101.5219094 5.014942676 0)
(101.706021 5.063679072 -2.30276453e-20)
(101.5521456 4.719415199 4.009614394e-20)
(101.3955078 3.542161981 4.550074545e-20)
(101.5382416 3.825702254 -3.517383252e-20)
(101.6677953 3.8029185 -1.206150883e-19)
(101.504959 3.533944271 2.148088345e-19)
(101.3563691 2.748520312 0)
(101.2226756 2.546581047 4.789814108e-20)
(101.4412043 2.707544354 0)
(101.2952159 2.516168151 0)
(100.9440444 1.663894935 2.992170297e-20)
(101.1798775 1.950779296 1.931606276e-20)
(101.2768187 1.835317896 -1.73758067e-20)
(101.021161 1.595943155 3.74489033e-20)
(100.6918124 1.097299617 -3.436894997e-20)
(100.8735586 1.294251027 -1.534326902e-20)
(100.9305681 1.195787002 -1.552272463e-20)
(100.7408055 1.039771594 -7.474812885e-21)
(100.5046424 0.5304506804 -9.503126195e-21)
(100.7594335 0.6663316019 -2.007465155e-20)
(100.7906223 0.8716210998 -2.624255128e-21)
(100.6484197 0.8328490317 5.088504252e-21)
(100.3685894 0.3045593726 8.060968368e-21)
(100.5410848 0.3977861863 1.226848021e-20)
(100.2923765 0.1380924218 -2.043698213e-21)
(100.4047077 0.2082094222 -3.612724339e-21)
(100.3410162 0.06427181177 -5.201996073e-22)
(99.95153209 -0.01555791108 0)
(99.98253847 -0.01795425741 0)
(99.89058369 -0.0160427056 4.238206264e-21)
(99.93546306 -0.04715421688 0)
(99.78083809 0.01366819467 1.068071176e-20)
(99.83806297 -0.05324777008 -3.613915095e-21)
(99.62648513 0.1122609123 1.883439777e-20)
(99.67498406 -0.02438559374 2.369079612e-20)
(99.57839495 0.0786484286 -7.156307442e-21)
(99.62229333 0.1710185246 2.541320608e-20)
(99.54267968 0.1253989478 2.066829758e-21)
(99.52286964 0.1972427844 -1.010056591e-20)
(99.37976352 0.3804960249 0)
(99.38976408 0.3025317085 -2.125997652e-20)
(99.2532886 0.3280906214 -1.744192754e-20)
(99.23105014 0.4376650541 4.339141477e-21)
(99.04358372 0.7214890071 0)
(99.04383106 0.6115497962 4.338676914e-21)
(98.83751326 0.6661606567 -4.469393093e-21)
(98.86101906 0.8414398167 2.182829718e-20)
(98.7779487 0.821418795 5.61971159e-21)
(98.64773654 1.203496479 2.514085947e-19)
(98.63574919 1.121712123 0)
(98.49204469 1.190760927 0)
(98.50320048 1.287407024 1.233181732e-19)
(98.09235411 2.047689382 -4.859174556e-19)
(98.05765698 1.93436003 5.070300093e-21)
(97.85933819 2.070675548 -1.239766541e-20)
(97.89551156 2.211021641 -4.892531378e-19)
(97.46704077 3.418981297 9.003813203e-19)
(97.37866547 3.282424712 -7.030899799e-19)
(97.10284169 3.56007036 2.435395841e-19)
(97.21145695 3.728931125 4.619828695e-19)
(97.03783789 5.456218163 -8.231718843e-19)
(96.84000445 5.343440492 -8.292114742e-19)
(96.54373293 5.828502984 -3.68866541e-19)
(96.79994892 5.961046048 -2.576172768e-21)
(97.46045561 7.847049343 -6.360601129e-19)
(97.13237575 7.905760154 1.818136196e-19)
(96.99130817 8.602049796 -3.64484185e-19)
(97.42912419 8.521552232 1.353290978e-19)
(99.2240039 9.577326486 -5.358105735e-20)
(98.83136795 9.945244938 3.233128482e-20)
(99.15796722 10.64444327 1.00688861e-19)
(99.45403087 10.15147277 -5.319301056e-20)
(101.3385886 9.436850695 -1.010446574e-21)
(101.254506 9.994551266 -6.66514681e-20)
(101.7401235 10.36097455 -6.611721792e-20)
(101.7520013 9.71063423 -1.217991609e-19)
(102.618857 7.9578505 5.144155163e-20)
(102.7720521 8.476058195 6.869680382e-19)
(103.1874827 8.526864234 1.429898757e-19)
(102.9590698 8.003214294 1.325872244e-19)
(102.9290044 6.144854405 7.68853556e-19)
(103.1742208 6.548102888 8.526268406e-19)
(103.4597071 6.458608405 1.011404005e-18)
(103.1594281 6.078158993 5.087558991e-20)
(102.6847374 4.488084394 2.077707136e-19)
(102.9337707 4.787244719 -5.864094172e-19)
(103.0903181 4.66313662 -8.61057799e-19)
(102.8183782 4.390105147 -3.575537825e-19)
(102.423215 3.305718685 -1.53240492e-20)
(102.211199 3.089499557 -3.995182637e-21)
(102.5079942 3.179071958 2.675848282e-20)
(102.285288 2.989226612 2.355112472e-20)
(101.6476388 1.949516525 -9.740238719e-20)
(101.9839098 2.223638248 -6.18104353e-20)
(102.0492466 1.995865916 -3.47359207e-20)
(101.7073699 1.795827833 -1.795465716e-20)
(101.1930017 1.253720992 1.19757849e-20)
(101.4513468 1.434816053 3.612278157e-20)
(101.4749761 1.265529423 -4.039103812e-21)
(101.2236261 1.134429271 -3.950747282e-21)
(100.7801942 0.5342397591 2.089110778e-21)
(101.0871356 0.6064802976 0)
(101.2073656 0.8776637808 -1.116605555e-22)
(101.0497853 0.8865583574 -1.07966524e-20)
(100.5637935 0.2986968923 4.581115868e-22)
(100.7632015 0.3536964435 2.088922437e-21)
(100.4418195 0.1329505766 -2.095559078e-21)
(100.5610397 0.178101327 -2.097298307e-21)
(100.4664132 0.05388992473 -2.107202558e-21)
(99.97167424 -0.04935487904 0)
(100.0291193 -0.03779963286 2.072585293e-21)
(99.88929331 -0.0842557075 -8.50172441e-21)
(99.96848192 -0.1075683172 -2.087797138e-21)
(99.74031255 -0.09067186801 8.768755029e-21)
(99.844307 -0.156986246 -4.241478795e-21)
(99.51427408 -0.01541724151 1.151501786e-20)
(99.63408902 -0.1743042314 3.278009967e-21)
(99.47959887 -0.07820234833 -1.554424936e-23)
(99.48359484 0.05884415289 -8.582772778e-21)
(99.41582296 -0.02664596811 -8.636861538e-21)
(99.36318399 0.05667475549 0)
(99.13169914 0.2449163277 -1.744149696e-20)
(99.17609546 0.145252867 0)
(99.02071398 0.1307791113 -9.911610892e-23)
(98.9501631 0.2639045313 -6.477883408e-23)
(98.63042308 0.5670455823 8.967782677e-21)
(98.67885632 0.4211624147 1.34912315e-20)
(98.43648179 0.4228372757 1.814892642e-20)
(98.39580029 0.655690741 -2.578459671e-20)
(98.31623662 0.6009478104 -4.982437688e-20)
(98.02070149 1.058938719 -2.053897825e-19)
(98.04404466 0.9427668304 -2.554452181e-19)
(97.86743214 0.9797757506 -2.10650354e-19)
(97.8390184 1.115340119 -2.087112172e-19)
(97.09390432 2.007514537 5.149800336e-19)
(97.10499552 1.827488156 0)
(96.82897229 1.934962628 0)
(96.8089136 2.152250051 5.156332767e-19)
(95.83141049 3.755373055 0)
(95.78417609 3.478343566 0)
(95.35706553 3.729062612 -1.439853169e-19)
(95.41771841 4.059865248 0)
(94.62591466 6.739029736 -6.63999344e-19)
(94.38541752 6.384652582 -3.442283967e-19)
(93.81799457 6.903051563 6.322992826e-20)
(94.13625751 7.357632845 -4.321204809e-19)
(94.8189415 11.0928371 4.704022846e-20)
(94.15987484 10.87194557 1.113730053e-19)
(93.68923865 11.9324594 3.322664801e-19)
(94.60064584 12.16691481 -5.827122525e-20)
(98.6263639 14.7695208 8.736744916e-20)
(97.75312841 15.32121576 3.883313181e-19)
(98.26833496 16.64219806 2.195780048e-19)
(99.27148663 15.77044962 1.521852187e-19)
(103.6284251 13.66485152 0)
(103.5192174 14.70300997 -1.051781611e-19)
(104.5833932 14.99672664 1.101741123e-19)
(104.4812162 13.82014286 -2.166285309e-19)
(105.5493354 10.14159765 3.009436913e-20)
(105.936812 10.86529256 5.463650822e-19)
(106.6030271 10.61461265 -1.377419637e-19)
(106.0743711 9.936885426 -4.791998012e-19)
(105.389983 7.153571257 -1.257401971e-18)
(105.8449569 7.570516904 -5.096480944e-19)
(106.1513378 7.269382283 -1.568989582e-18)
(105.6453026 6.908829505 7.64246331e-21)
(104.5021667 4.958610123 -3.266600352e-19)
(104.8959764 5.224373827 -1.772759162e-20)
(105.0297466 4.960882707 6.519369342e-19)
(104.6225198 4.742914055 -1.813782442e-20)
(103.8028724 3.479384321 2.606094805e-19)
(103.490626 3.291224502 -3.826062631e-20)
(103.8488755 3.263230445 -1.809625403e-19)
(103.5395354 3.107471373 -8.723146933e-20)
(102.4718885 1.963696078 2.820463716e-20)
(102.9156177 2.179941674 -2.85739598e-22)
(102.9011806 1.844504735 1.729892221e-20)
(102.477497 1.722394846 1.289975815e-20)
(101.7603802 1.224265488 -1.691681186e-20)
(102.0880038 1.353186418 -8.641746454e-21)
(102.0462345 1.123531733 -8.64342067e-21)
(101.7444543 1.049234485 1.320700069e-20)
(101.0529827 0.4329739494 0)
(101.3964747 0.4203298196 1.396624655e-21)
(101.6179352 0.7180070414 -1.164291623e-20)
(101.4709481 0.8039891569 2.884059128e-20)
(100.7459304 0.2309678425 -5.285962343e-22)
(100.9536567 0.2271079929 -1.649382143e-21)
(100.5741981 0.09888173316 -2.120065173e-21)
(100.6855883 0.102853571 -2.401841936e-21)
(100.5596685 0.02941126442 2.680592714e-21)
(100.0304218 -0.09540022033 -1.455168271e-23)
(100.1191257 -0.0630153981 6.928014074e-23)
(99.92907582 -0.1787953139 2.169244327e-21)
(100.0472164 -0.1846192628 -8.426188982e-23)
(99.74548635 -0.2391423068 -1.138446216e-20)
(99.90139703 -0.2914339287 1.715457821e-21)
(99.45049215 -0.2155627122 -1.030535643e-20)
(99.65330265 -0.3732630189 -1.728797039e-20)
(99.43944637 -0.3027060913 -1.470341026e-20)
(99.38432596 -0.1333790983 -8.065806827e-21)
(99.34462148 -0.2564839264 -3.202750145e-21)
(99.25298003 -0.1732618974 4.225903532e-23)
(98.92672647 -0.01325669775 1.310171099e-20)
(99.01533235 -0.1226701293 1.331450511e-20)
(98.85528264 -0.1851302377 6.584392813e-21)
(98.72797399 -0.0467640825 2.263862405e-20)
(98.26569597 0.2325675158 1.444102589e-20)
(98.37919406 0.06195976788 1.906137319e-20)
(98.12600676 -0.001884251981 -6.952315192e-20)
(97.98994766 0.2563652211 1.026105825e-19)
(97.93268403 0.1678896705 -1.817982396e-19)
(97.4497174 0.6341938513 -6.894385532e-20)
(97.51976179 0.4970299258 -2.866144697e-19)
(97.32933708 0.4847721947 7.033335871e-20)
(97.24070822 0.6417645544 0)
(96.056824 1.518632044 -4.056439272e-19)
(96.15494393 1.283711952 -5.607166447e-19)
(95.8236518 1.312499091 5.811763367e-19)
(95.6942241 1.588071821 -5.669236275e-19)
(93.89562734 3.26461732 5.814436583e-20)
(93.98416656 2.865609722 -3.124684729e-19)
(93.43455986 2.958093388 -1.875911549e-19)
(93.29877031 3.444437154 7.841210905e-20)
(90.95298303 6.562494355 0)
(90.89456901 5.863195902 0)
(89.95380378 6.078521575 8.431810809e-19)
(89.99118028 6.997597781 -3.902188469e-19)
(88.14635873 13.63117004 -3.344636917e-19)
(87.30300103 12.34532681 -4.471126925e-19)
(85.3415742 13.93020011 0)
(85.58437567 13.02870712 0)
(87.23754781 15.27405362 0)
(86.15617129 15.32912801 0)
(93.58951863 25.73392805 -7.208716162e-20)
(95.04040198 25.25185549 6.741617395e-20)
(94.18630923 27.62775726 -3.547341657e-19)
(95.93365396 26.6879815 -2.487426566e-19)
(109.4897618 21.57702549 0)
(109.5639894 19.684565 0)
(111.2543923 19.07272047 4.801953601e-19)
(110.4628175 22.26354518 -9.49458339e-19)
(112.5637445 20.84395984 0)
(112.1954548 21.73800035 0)
(111.5283055 12.3653964 -3.762578488e-19)
(110.5783313 11.48793053 3.534941295e-19)
(112.1971944 11.46389158 -8.366218479e-19)
(111.1118397 10.79788751 -4.261070599e-19)
(108.7449882 7.109477008 4.231543712e-19)
(109.4933984 7.436812256 -2.169651633e-19)
(109.6853939 6.83401891 -2.157896325e-19)
(108.9217157 6.62309109 -2.14255228e-19)
(106.721972 4.599553032 0)
(107.2702601 4.748235261 0)
(107.2889281 4.338918364 6.684455715e-19)
(106.7538328 4.25553566 0)
(105.3312071 3.024804765 4.575516606e-19)
(104.9260142 2.934057684 -1.654140109e-19)
(105.2840368 2.737310126 -4.441921248e-19)
(104.8978907 2.672445557 1.558091848e-19)
(103.319949 1.631700126 4.580873095e-21)
(103.8679419 1.728122884 -9.833371689e-21)
(103.7064145 1.321018153 -2.689584653e-21)
(103.2259689 1.317611988 -4.796022772e-21)
(102.3124417 0.9571567911 4.762079275e-21)
(102.6865754 0.9990976088 -3.039124622e-23)
(102.5561531 0.7315554257 -7.662362536e-21)
(102.2259981 0.7405101815 9.637905292e-21)
(101.2738181 0.2217479783 -1.853534291e-22)
(101.6100751 0.1115517918 -3.099055364e-22)
(101.9664922 0.3852033084 8.607347077e-22)
(101.8476149 0.5115846375 7.008907793e-21)
(100.878485 0.09901438267 -3.533061506e-21)
(101.0692905 0.02081928477 -2.55847764e-22)
(100.6597123 0.03441747305 2.628997527e-21)
(100.7464542 -0.01456267157 -2.390259061e-21)
(100.5921154 -0.008373922309 4.634766501e-22)
(100.1392613 -0.1513077936 1.530371124e-23)
(100.2618594 -0.09211116413 -3.069965242e-21)
(100.02371 -0.2945139807 -5.595681492e-22)
(100.1823282 -0.2736672656 1.338649366e-21)
(99.8146125 -0.4230391365 -4.408849107e-21)
(100.0227061 -0.4477099493 -2.904146378e-21)
(99.46212549 -0.4716897601 9.108294212e-21)
(99.75031716 -0.6065513435 -1.001764111e-21)
(99.48371812 -0.5798697547 9.40559244e-22)
(99.35497008 -0.3966221375 4.433123889e-21)
(99.36014592 -0.5465047903 9.195339829e-21)
(99.22697892 -0.4770616238 6.476423559e-21)
(98.81271167 -0.3797718815 -2.220057853e-21)
(98.95089919 -0.4820638409 3.420987599e-21)
(98.80267058 -0.5928930218 2.262064017e-21)
(98.61639785 -0.4712513425 6.848855684e-21)
(98.02820639 -0.274224783 -4.450655222e-20)
(98.21259728 -0.4397108698 3.768259345e-20)
(97.9794974 -0.5757610077 3.547180548e-20)
(97.74715233 -0.3268754544 2.202611104e-19)
(97.72605974 -0.44623068 2.407498136e-20)
(97.05359763 -0.05802840656 1.720268449e-22)
(97.182829 -0.1943890055 -4.476487708e-21)
(96.99610689 -0.2629875623 -6.120159624e-19)
(96.83851068 -0.1127993264 0)
(95.26431476 0.5115777817 6.739062936e-19)
(95.47124041 0.2740195768 -5.023836736e-19)
(95.14205966 0.1968615098 6.272591197e-20)
(94.88471983 0.4584198227 8.324068442e-19)
(92.32945462 1.615342171 8.926061546e-20)
(92.63594124 1.203999591 5.162876902e-19)
(92.09907371 1.068218166 2.655454755e-19)
(91.69299216 1.52018618 1.764052523e-19)
(87.6055786 3.41884184 4.472246926e-19)
(88.07178284 2.660617326 -4.847542486e-19)
(87.2295283 2.278316156 -9.732567521e-19)
(86.5130703 3.089670926 -4.738386175e-19)
(78.75671631 6.366142457 -3.145865191e-20)
(79.39136429 5.355359072 -6.071901984e-19)
(78.41347504 4.677491453 -1.23133061e-18)
(77.45618328 5.741969608 -1.238335169e-18)
(127.7228358 24.06911387 -1.632235085e-18)
(125.6773229 23.03548932 1.798833748e-18)
(128.3005647 21.90622471 1.411096602e-19)
(126.3423201 21.32820024 1.408893992e-19)
(119.2900919 10.02299675 0)
(117.522107 9.651896854 0)
(119.1679163 8.377058732 0)
(117.5363345 8.373715639 -5.771291763e-19)
(112.4063172 5.209698405 4.254469028e-19)
(113.3995947 5.214542855 -5.89805923e-19)
(113.211429 4.404440437 -5.076105823e-21)
(112.2938689 4.533863067 -5.481526051e-19)
(108.8745417 3.139806785 9.206464337e-19)
(109.5238352 3.083042922 0)
(109.3332628 2.60315365 -9.889055218e-19)
(108.7410656 2.724409663 1.328719031e-20)
(106.701304 1.844820492 6.559160031e-21)
(106.245237 1.888343001 -5.017035014e-20)
(106.5225864 1.523267289 -9.70118542e-20)
(106.1065393 1.592293461 -1.431252669e-19)
(104.0362156 0.9184841142 -5.238997345e-21)
(104.6387335 0.8513802742 6.016993851e-21)
(104.2897504 0.4370464983 8.386024318e-21)
(103.8089962 0.5819002005 1.217391757e-21)
(102.7465299 0.4515164287 -2.086487891e-21)
(103.1340177 0.3821867439 1.457700329e-20)
(102.8885429 0.1239268822 5.375003915e-21)
(102.5759929 0.2313699842 1.062269821e-20)
(101.3898155 -0.08429208437 -3.698553535e-22)
(101.6843822 -0.2974423066 -1.119346691e-21)
(102.1608109 -0.09875756086 -1.137390347e-21)
(102.1076498 0.08825593304 -1.287314413e-21)
(100.9252138 -0.09008520911 1.139255417e-21)
(101.0746267 -0.2473230992 1.393917249e-21)
(100.6692415 -0.05574410513 -4.502236495e-21)
(100.7139974 -0.1646318823 1.73823362e-21)
(100.5395122 -0.05677437655 -2.232937335e-21)
(100.3066378 -0.2133713242 -1.746580763e-21)
(100.4631339 -0.1230859245 9.686176909e-22)
(100.1833556 -0.4233451801 -1.017586748e-21)
(100.3804251 -0.3685003142 -7.159525358e-22)
(99.96090778 -0.6284785655 5.192199717e-22)
(100.2162523 -0.6142449508 -2.56736866e-22)
(99.56972223 -0.7650496069 5.958646641e-22)
(99.93587707 -0.8561029006 8.676267266e-22)
(99.62835093 -0.8851964878 5.173572381e-22)
(99.42161364 -0.708058922 1.514561175e-21)
(99.48076557 -0.8725074227 -1.466208149e-23)
(99.30999732 -0.8276513121 -1.466416689e-23)
(98.82857014 -0.8194268737 -2.25437194e-21)
(99.01327404 -0.8994784062 0)
(98.89204626 -1.053684418 -1.103067167e-21)
(98.65529615 -0.966618561 -1.167878517e-21)
(97.98444486 -0.8971055304 3.797812573e-20)
(98.23063672 -1.02894213 3.667715445e-20)
(98.04458293 -1.227963662 -3.711337711e-20)
(97.72724415 -1.023861027 3.180885546e-20)
(97.7474668 -1.159441101 2.719761256e-20)
(96.93120931 -0.9217092976 1.156106998e-18)
(97.1115799 -1.031122632 1.138414151e-18)
(96.94914507 -1.149629875 5.744129972e-19)
(96.73508693 -1.035055828 1.130007842e-18)
(94.97055391 -0.8148230733 -6.207793254e-19)
(95.25474532 -0.9969828913 -6.188239198e-19)
(94.98186928 -1.158768554 1.772508138e-20)
(94.63052202 -0.9734633837 -6.204097562e-19)
(91.84987612 -0.6505647066 -3.660548716e-19)
(92.30451679 -0.9267433093 1.590510373e-19)
(91.90376523 -1.202659596 -3.084612441e-20)
(91.3638611 -0.9469957572 -3.621714565e-19)
(87.29724392 -0.9460638369 -1.016855528e-18)
(88.02227542 -1.296349884 -5.114382905e-19)
(87.58408708 -1.831689054 -9.039353859e-21)
(86.75281666 -1.581703417 1.581266561e-19)
(81.54948658 -3.332346175 5.796142883e-19)
(82.22992043 -3.347780153 0)
(82.15174143 -3.873789645 -1.665018441e-18)
(81.52457445 -3.974396273 1.478540239e-19)
(140.8353421 5.46797738 -2.636597773e-18)
(139.1108298 6.559256453 -2.403050913e-18)
(139.40703 4.093194918 0)
(137.9700362 5.172081768 0)
(124.3159808 2.184002658 0)
(122.5687751 2.956773861 -1.48613714e-18)
(123.0382225 0.8719001843 -8.331400538e-19)
(121.6673512 1.738587791 7.024667716e-19)
(114.9134796 1.32230784 -1.872579939e-18)
(115.8576119 0.8558439676 -1.234032668e-18)
(115.1897087 0.1603643332 -1.107280419e-18)
(114.4000889 0.6753194565 -6.261126725e-19)
(110.2993927 0.6436940591 -2.662423294e-19)
(110.9019687 0.3292428895 2.856752713e-19)
(110.4648051 -0.08442415874 -2.670527823e-19)
(109.9473494 0.2519814424 -2.68655591e-19)
(107.5153586 0.05651140961 4.901756951e-19)
(107.0877034 0.2529957693 4.812666175e-19)