/*--------------------------------*- C++ -*----------------------------------*\
| =========                 |                                                 |
| \\      /  F ield         | OpenFOAM: The Open Source CFD Toolbox           |
|  \\    /   O peration     | Version:  v1912                                 |
|   \\  /    A nd           | Website:  www.openfoam.com                      |
|    \\/     M anipulation  |                                                 |
\*---------------------------------------------------------------------------*/
FoamFile
{
    version     2.0;
    format      ascii;
    class       surfaceScalarField;
    location    "1.31";
    object      meshPhi;
}
// * * * * * * * * * * * * * * * * * * * * * * * * * * * * * * * * * * * * * //

dimensions      [0 3 -1 0 0 0 0];
oriented        oriented;


internalField   nonuniform List<scalar> 
25162
(
0
0
0
0
0
0
0
0
0
0
0
0
0
0
0
0
0
0
0
0
0
0
0
0
0
0
0
0
0
0
0
0
0
0
0
0
0
0
0
0
0
0
0
0
0
0
0
0
0
0
0
0
0
0
0
0
0
0
0
0
0
0
0
0
0
0
0
0
0
0
0
0
0
0
0
0
0
0
0
0
0
0
0
0
0
0
0
0
0
0
0
0
0
0
0
0
0
0
0
0
0
0
0
0
-2.401555374e-09
-1.147225914e-07
1.284675718e-06
0
3.031845072e-09
-1.092100797e-06
0
0
0
0
0
0
0
0
0
0
0
0
0
0
0
0
0
0
0
0
0
0
0
0
0
0
0
0
0
0
0
0
0
0
0
0
0
0
0
0
0
0
0
0
0
0
0
0
0
0
0
0
0
0
0
0
0
0
0
0
0
0
0
0
0
0
1.096789516e-08
1.89773279e-06
-9.989962287e-07
-1.204550964e-05
3.882081828e-06
0.0001073215679
-8.974030673e-06
-0.0001518585362
5.049975465e-06
0.0002806659628
-8.681869775e-06
-0.0003136400426
-6.775937402e-07
0.000359806565
1.365282882e-06
-0.0003550023985
-5.026327578e-06
0.000283105612
9.151841597e-06
-0.0002437553141
-2.39169518e-06
0.0001090752655
6.507726626e-06
-6.818330074e-05
0
2.044358172e-06
1.513510998e-07
0
0
0
0
0
0
0
0
0
0
0
0
0
0
0
0
0
0
0
0
0
0
0
0
0
0
0
0
0
0
0
0
0
0
0
0
0
0
0
0
0
0
0
0
0
0
0
0
0
0
0
5.308393565e-07
4.077055439e-06
-2.703487081e-06
-2.928672521e-05
1.905490042e-05
0.0002584849273
-2.963442922e-05
-0.0003701869424
3.45911875e-05
0.0007400111804
-4.548792904e-05
-0.0008591714533
2.26830407e-05
0.001152502422
-2.757924488e-05
-0.001220324274
-5.856424705e-06
0.001313047596
8.270830204e-06
-0.001304933484
-2.793968634e-05
0.001164727122
3.590950164e-05
-0.001082190264
-2.880910467e-05
0.0007540415074
3.876404207e-05
-0.0006284174273
-1.146312189e-05
0.0002646377722
1.895973055e-05
-0.0001651696282
0
4.145119918e-06
4.672473636e-07
0
0
0
0
0
0
0
0
0
0
0
0
0
0
0
0
0
0
0
0
0
0
0
0
0
0
0
0
0
0
0
0
0
0
0
0
0
0
0
0
0
0
0
0
0
-1.785306013e-07
-1.547109705e-06
2.207084124e-05
0.0001906551161
-3.346015202e-05
-0.0003275500148
6.989285381e-05
0.000871924354
-8.461992839e-05
-0.00107435791
7.949701874e-05
0.001651145583
-9.001557166e-05
-0.001815749538
4.041090268e-05
0.002183813812
-4.363622328e-05
-0.00226136707
-1.729603678e-05
0.002363039629
2.034005881e-05
-0.002355066134
-6.216250917e-05
0.002202385263
7.076041687e-05
-0.002105981716
-7.241525083e-05
0.001679486315
8.405469062e-05
-0.001497722451
-6.321341033e-05
0.0009200771911
7.945177944e-05
-0.0007286156734
-1.177056603e-05
0.0002215107397
1.812128033e-05
-0.0001106257232
0
0
0
0
0
0
0
0
0
0
0
0
0
0
0
0
0
0
0
0
0
0
0
0
0
0
0
0
0
0
0
0
0
0
0
0
0
0
0
0
0
0
5.351936499e-06
2.215603372e-05
-8.756804535e-06
-9.594363813e-05
6.740310249e-05
0.0005851318703
-7.900568089e-05
-0.0008138052208
0.0001474085872
0.001600325295
-0.0001481691526
-0.001864711107
0.0001217630873
0.002480028966
-0.0001473055836
-0.002610768138
5.084881282e-05
0.002866714706
-5.665830899e-05
-0.00289917279
-2.67983414e-05
0.002928726024
2.736270293e-05
-0.002926942372
-9.934354199e-05
0.002879615989
0.0001057791997
-0.002825764009
-0.0001786038913
0.002544044809
0.000181972872
-0.002354751841
-9.178973096e-05
0.001635486574
0.0001017264359
-0.001378925476
-4.037302407e-05
0.0006318506919
4.826384897e-05
-0.0004225393058
2.92377173e-05
-1.25481037e-06
2.191634084e-06
-4.47181423e-07
0
0
0
0
0
0
0
0
0
0
0
0
0
0
0
0
0
0
0
0
0
0
0
0
0
0
0
0
0
0
0
0
0
0
0
-1.57873932e-07
-1.637376844e-08
-6.216609353e-07
1.997942029e-05
0.0001113649673
-2.414973497e-05
-0.0002511265279
0.0001113157545
0.0009299010541
-0.0001167113822
-0.001225555529
0.0001624115006
0.002099962622
-0.0001695639186
-0.002355594325
0.0001585213728
0.002917256215
-0.0001363117298
-0.003029534866
0.0001023113218
0.003129684807
-0.0001199841888
-5.257402309e-05
-0.001508669636
-0.001550768281
0.001499851745
-1.021670894e-05
1.014673237e-05
-0.001499781769
0.001542141874
-0.0001753060443
-0.003100882462
0.001570377638
6.875535029e-05
9.49136441e-05
0.002922044601
-0.0001476612851
0.0001561404917
-0.002801966517
-0.000134818674
0.002187509572
0.0001417381968
-0.001912224914
-6.786122118e-05
0.001019617301
7.316479786e-05
-0.0007505147154
0.0001513652332
-9.358274691e-06
1.205941598e-05
-4.818994701e-05
0
0
0
0
0
0
0
0
0
0
0
0
0
0
0
0
0
0
0
0
0
0
0
0
0
0
0
0
0
0
0
0
0
6.568341521e-07
0
-1.386796354e-06
-5.706663822e-06
-8.720434266e-06
3.272812915e-05
0.0001861099282
-3.376042555e-05
-0.0003642193823
0.0001327889298
0.001155145983
-0.0001346332334
-0.001467640382
0.0001780127924
0.002372860132
-0.000176792422
-0.002624240427
0.0001228516949
0.003086535589
-0.000118713863
-0.003120399287
3.148157041e-05
0.001579946719
-3.401669981e-05
-0.001577411589
0.001564591055
-5.551763944e-05
5.319380232e-05
-0.001562267218
0.003091874372
-0.0001645890869
0.0001670302312
-0.003025866937
-0.0001465197715
0.002484801846
0.0001487051831
-0.002215222616
-8.634157592e-05
0.001289323133
8.9769966e-05
-0.000985483033
0.0002673383021
-1.82459212e-05
2.087985864e-05
-0.0001173445406
0
0
0
0
0
0
0
0
0
0
0
0
0
0
0
0
0
0
0
0
0
0
0
0
0
0
0
0
0
0
0
0
0
1.78120983e-06
0
-2.24143736e-06
-1.562191429e-05
-1.760474839e-05
3.900227067e-05
0.0002331864404
-4.013024933e-05
-0.0004297223064
0.000141692415
0.001265680402
-0.0001430902155
-0.001587415796
0.0001784656944
0.002496706049
-0.0001788392902
-0.002738812447
0.0001147663646
0.003143308754
-0.0001144711389
-0.003156650896
2.515272473e-05
0.001577557011
-2.514857032e-05
-0.001577561166
0.001586822647
-4.844466319e-05
4.763647875e-05
-0.001586014462
0.003169493761
-0.0001633892457
0.0001623767784
-0.003129737456
-0.0001550748806
0.002645787965
0.0001561668266
-0.00238418383
-9.487767013e-05
0.001448165965
9.63444593e-05
-0.00112937664
0.0003363601999
-2.41925721e-05
2.52528672e-05
-0.000163622615
0
0
0
0
0
0
0
0
0
0
0
0
0
0
0
0
0
0
0
0
0
0
0
0
0
0
0
0
0
0
0
0
0
2.697103652e-06
0
-3.321508226e-06
-2.3719051e-05
-2.64201953e-05
4.292505491e-05
0.0002648984757
-4.405570643e-05
-0.0004731659172
0.0001466828939
0.0013384309
-0.000148088219
-0.001666541365
0.0001799930993
0.002581039516
-0.0001804372603
-0.00281993586
0.0001140412558
0.003201629648
-0.0001140693626
-0.003208989405
2.495399009e-05
0.001601754322
-2.546811439e-05
-0.0007998116862
-0.0008014285117
0.001611446928
-4.540546877e-05
4.486276149e-05
-0.001610904221
0.003218205038
-0.0001596596235
0.0001587051294
-0.003175548413
-0.0001540156388
0.002678053148
0.0001529379419
-0.00241135431
-9.484458739e-05
0.001459696854
9.421561517e-05
-0.001137203464
0.000336663355
-2.445452855e-05
2.411225057e-05
-0.0001628283318
0
0
0
0
0
0
0
0
0
0
0
0
0
0
0
0
0
0
0
0
0
0
0
0
0
0
0
0
0
0
0
0
0
3.996094532e-06
0
-4.769216208e-06
-3.546715029e-05
-3.888531418e-05
4.758421848e-05
0.0003040441929
-4.882375911e-05
-0.0005257955464
0.0001523181335
0.001424167821
-0.0001537773781
-0.001759306427
0.0001817357435
0.002678869264
-0.0001821651831
-0.002913740445
0.0001136896514
0.003268680723
-0.0001136078561
-0.00327155568
2.518262745e-05
0.001633593649
-2.532304059e-05
-0.00081617689
-0.0008172763458
0.001639672588
-4.339804285e-05
4.290141051e-05
-0.001639175955
0.003265923806
-0.0001536565023
0.0001520872628
-0.003192332348
-0.0001457391423
0.002609145192
0.0001437841977
-0.00233303371
-8.679020832e-05
0.001357145996
8.45446557e-05
-0.001036686202
0.0002707947065
-1.926125073e-05
1.815953594e-05
-0.0001162692137
0
0
0
0
0
0
0
0
0
0
0
0
0
0
0
0
0
0
0
0
0
0
0
0
0
0
0
0
0
0
0
0
0
5.712076734e-06
0
-6.064407498e-06
-5.138226511e-05
-5.307857733e-05
5.286199831e-05
0.0003498359467
-5.443664955e-05
-0.0005858683178
0.0001583609195
0.001517538232
-0.0001601104319
-0.00185903575
0.0001834747026
0.002779698587
-0.0001839460082
-0.003008860145
0.0001133628858
0.003331443549
-0.0001135702519
-0.003331494736
2.56226563e-05
0.001663775214
-2.560981767e-05
-0.0008311109583
-0.0008326770948
0.001664566297
-4.126133881e-05
4.120058411e-05
-0.001664505542
0.003269932672
-0.0001467063168
0.0001442754892
-0.003147448859
-0.0001332617881
0.002460793509
0.0001283356012
-0.002160881382
-7.412939989e-05
0.001168098692
6.880049063e-05
-0.0008588595709
0.0001783179671
-1.228983649e-05
1.051963234e-05
-5.806232699e-05
0
0
0
0
0
0
0
0
0
0
0
0
0
0
0
0
0
0
0
0
0
0
0
0
0
0
0
0
0
0
0
0
0
8.557936363e-06
0
-1.178555769e-05
-7.951961866e-05
-9.069686342e-05
5.913008835e-05
0.0004146546786
-6.31978795e-05
-0.0006650428813
0.0001659477415
0.001633840639
-0.0001680053067
-0.001979218671
0.0001853349279
0.002889212264
-0.0001866129165
-0.003113342583
0.0001133512793
0.003392013952
-0.0001143951701
-0.001693660961
-0.0016973091
1.337772407e-05
0.0008454851781
-1.361276907e-05
-0.0008452501331
3.789174117e-06
0.0004216373945
-4.458058591e-06
-0.000842936256
0.000421967746
0.001687495036
-4.081563797e-05
8.696962105e-05
-0.003379724975
0.001690771175
-4.46952187e-05
-0.0001391055318
0.003208466639
0.0001330352407
-0.003027139298
-0.0001144558799
0.002235558017
0.0001101214753
-0.001909958586
-5.657972688e-05
0.0009254907308
5.326962543e-05
-0.0006400683405
7.254607218e-05
-4.335455268e-06
3.412220867e-06
-7.14740706e-06
0
0
0
0
0
0
0
0
0
0
0
0
0
0
0
0
0
0
0
0
0
0
0
0
0
0
0
0
0
0
0
0
0
1.253690951e-05
0
-1.03285489e-05
-0.0001066425179
-9.764799794e-05
6.93222483e-05
0.000479845044
-6.722673195e-05
-0.0007495867977
0.0001743020252
0.001751156444
-0.0001715964844
-0.002102146157
0.0001852480358
0.003004436324
-0.0001843378712
-0.00321320806
0.0001109961283
0.0034535628
-0.0001109961283
-0.001725284708
-0.001728278092
1.215252887e-05
0.001725284708
-2.322955271e-05
1.107702384e-05
-0.0008617670129
-0.000863517695
-1.118796747e-05
0.0008617670205
1.118795614e-05
-0.001725284708
0.0008635176988
0.0034535628
-9.535423276e-05
9.4735861e-05
-0.00344510226
-0.0001222673136
0.003054907798
0.0001205152263
-0.002826023399
-9.690154372e-05
0.001909926287
9.228692395e-05
-0.001582821674
-3.98227978e-05
0.0006437048463
3.569246285e-05
-0.0004098286544
9.896560954e-06
-6.704944324e-07
3.050106087e-07
0
0
0
0
0
0
0
0
0
0
0
0
0
0
0
0
0
0
0
0
0
0
0
0
0
0
0
0
0
0
0
0
0
0
6.443818129e-06
0
-2.366755545e-06
-4.894416154e-05
-3.066106832e-05
5.251961268e-05
0.000342118738
-4.549912236e-05
-0.0005751833904
0.0001513038613
0.001497821483
-0.0001407234531
-0.001837506259
0.0001754809647
0.002769131933
-0.0001696490939
-0.003013153079
0.0001130810998
0.003452827018
-0.0001140796774
-0.00350106684
2.322955273e-05
0.003515117644
-4.215781739e-05
-0.003515117644
1.892826465e-05
-2.667811502e-05
0.003515117644
2.667811502e-05
-0.003515117644
-8.993228619e-05
0.00345473805
8.679783358e-05
-0.003360755311
-0.0001059555707
0.002781206847
0.0001002642784
-0.002501091015
-7.269834114e-05
0.001524110539
6.742366684e-05
-0.001193288153
-2.216681606e-05
0.0003645943013
1.796309801e-05
-0.0001908464985
0
0
0
0
0
0
0
0
0
0
0
0
0
0
0
0
0
0
0
0
0
0
0
0
0
0
0
0
0
0
0
0
0
0
0
0
0
5.780132472e-08
0
0
-2.704727273e-07
0
2.246054661e-05
0.0001162296994
-1.540223684e-05
-0.0002604460439
0.0001002218138
0.0009546826062
-8.494099137e-05
-0.001240729694
0.0001411081945
0.002112466987
-0.0001280156349
-0.002375178905
0.0001082071912
0.002987289244
-0.0001028020961
-0.003124380746
4.217682511e-05
0.003354330414
-4.132469365e-05
-0.003382362193
-2.441256943e-05
0.003353178478
2.23175635e-05
-0.003302763875
-7.214906788e-05
0.002985374606
6.569491841e-05
-0.002815243095
-7.82776247e-05
0.002119377179
6.972873695e-05
-0.001840702656
-4.761927959e-05
0.0009754017387
4.018901057e-05
-0.0007106500414
-7.572822353e-06
0.0001295335382
4.543719674e-06
-3.541470005e-05
0
0
0
0
0
0
0
0
0
0
0
0
0
0
0
0
0
0
0
0
0
0
0
0
0
0
0
0
0
0
0
0
0
0
0
0
0
0
0
0
0
0
1.597017624e-06
2.653997608e-07
-2.620316786e-07
-1.990435819e-05
4.039947711e-05
0.0003402364152
-2.77668e-05
-0.000516929604
8.196591705e-05
0.001147052962
-6.598762385e-05
-0.001363484424
7.724680187e-05
0.001936845364
-6.649890638e-05
-0.002086943325
3.499366514e-05
0.002378981269
-3.161481189e-05
-0.002420750266
-1.379144968e-05
0.00237757695
1.084617975e-05
-0.002307394791
-4.377938109e-05
0.001937061905
3.632475587e-05
-0.001765793369
-4.275133124e-05
0.001157461916
3.39878782e-05
-0.0009417138367
-1.827953098e-05
0.0003558722757
1.198957912e-05
-0.0002073770216
-6.616924483e-08
8.810828829e-07
0
0
0
0
0
0
0
0
0
0
0
0
0
0
0
0
0
0
0
0
0
0
0
0
0
0
0
0
0
0
0
0
0
0
0
0
0
0
0
0
0
0
0
0
0
0
0
0
3.164366161e-06
8.899935068e-06
-4.907310315e-07
-4.114811296e-05
2.41455117e-05
0.00028350266
-1.400527599e-05
-0.0003938837443
3.318686235e-05
0.0007343010641
-2.328687105e-05
-0.0008344384995
1.880094319e-05
0.001043778448
-1.424327594e-05
-0.001075727569
-3.898528227e-06
0.001045379198
2.440463553e-06
-0.0009943435347
-1.638825953e-05
0.0007407311567
1.11170471e-05
-0.0006323086632
-1.160999496e-05
0.0002935475265
6.297443799e-06
-0.0001934740879
-6.099093979e-07
1.106023969e-05
1.711753345e-09
-1.189403873e-07
0
0
0
0
0
0
0
0
0
0
0
0
0
0
0
0
0
0
0
0
0
0
0
0
0
0
0
0
0
0
0
0
0
0
0
0
0
0
0
0
0
0
0
0
0
0
0
0
0
0
0
0
0
0
7.546459549e-08
0
0
-1.472553516e-06
3.090900667e-06
4.01510401e-05
-4.865259984e-07
-6.215320914e-05
3.120975412e-06
0.0001210750923
-1.047597496e-06
-0.0001315309392
-2.963232559e-07
0.0001224668806
7.900273432e-08
-0.0001068826775
-1.160808331e-06
4.251471643e-05
9.723181261e-08
-2.342635922e-05
0
0
0
0
0
0
0
0
0
0
0
0
0
0
0
0
0
0
0
0
0
0
0
0
0
0
0
0
0
0
0
0
0
0
0
0
0
0
0
0
0
0
0
0
0
0
0
0
0
0
0
0
0
0
0
0
0
0
0
0
0
0
0
0
0
0
0
0
0
0
0
0
0
0
0
0
0
0
0
0
0
0
0
0
0
0
0
0
0
0
0
0
0
0
0
0
0
0
0
0
0
0
0
0
0
0
0
0
0
0
0
0
0
0
0
0
0
0
0
0
0
0
0
0
0
0
0
0
0
0
0
0
0
0
0
0
0
0
0
0
0
0
0
0
0
0
0
0
0
0
0
0
0
0
0
0
0
0
0
0
0
0
0
0
0
0
0
0
0
0
0
0
0
0
0
0
0
0
0
0
0
0
0
0
0
0
0
0
0
0
0
0
0
0
0
0
0
0
0
0
0
0
0
0
0
0
0
0
0
0
0
0
0
0
0
0
0
0
0
0
0
0
0
0
0
0
0
0
0
0
0
0
0
0
0
0
0
0
0
0
0
0
0
0
0
0
0
0
0
0
0
0
0
0
0
0
0
0
0
0
0
0
0
0
0
0
0
0
0
0
0
0
0
0
0
0
0
0
0
0
0
0
0
0
0
0
0
0
0
0
0
0
0
0
0
0
0
0
0
0
0
0
0
0
0
0
0
0
0
0
0
0
0
0
0
0
0
0
0
0
0
0
0
0
0
0
0
0
0
0
0
0
0
0
0
0
0
0
0
0
0
0
0
0
0
0
0
0
0
0
0
0
0
0
0
0
0
0
0
0
0
0
0
0
0
0
0
0
0
0
0
0
0
0
0
0
0
0
0
0
0
0
0
0
0
0
0
0
0
0
0
0
0
0
0
0
0
0
0
0
0
0
0
0
0
0
0
0
0
0
0
0
0
0
0
0
0
0
0
0
0
0
0
0
0
0
0
0
0
0
0
0
0
0
0
0
0
0
0
0
0
0
0
0
0
0
0
0
0
0
0
0
0
0
0
0
0
0
0
0
0
0
0
0
0
0
0
0
0
0
0
0
0
0
0
0
0
0
0
0
0
0
0
0
0
0
0
0
0
0
0
0
0
0
0
0
0
0
0
0
0
0
0
0
0
0
0
0
0
0
0
0
0
0
0
0
0
0
0
0
0
0
0
0
0
0
0
0
0
0
0
0
0
0
0
0
0
0
0
0
0
0
0
0
0
0
0
0
0
0
0
0
0
0
0
0
0
0
0
0
0
0
0
0
0
0
0
0
0
0
0
0
0
0
0
0
0
0
0
0
0
0
0
0
0
0
0
0
0
0
0
0
0
0
0
0
0
0
0
0
0
0
0
0
0
0
0
0
0
0
0
0
0
0
0
0
0
0
0
0
0
0
0
0
0
0
0
0
0
0
0
0
0
0
0
0
0
0
0
0
0
0
0
0
0
0
0
0
0
0
0
0
0
0
0
0
0
0
0
0
0
0
0
0
0
0
0
0
0
0
0
0
0
0
0
0
0
0
0
0
0
0
0
0
0
0
0
0
0
0
0
0
0
0
0
0
0
0
0
0
0
0
0
0
0
0
0
0
0
0
0
0
0
0
0
0
0
0
0
0
0
0
0
0
0
0
0
0
0
0
0
0
0
0
0
0
0
0
0
0
0
0
0
0
0
0
0
0
0
0
0
0
0
0
0
0
0
0
0
0
0
0
0
0
0
0
0
0
0
0
0
0
0
0
0
0
0
0
0
0
0
0
0
0
0
0
0
0
0
0
0
0
0
0
0
0
0
0
0
0
0
0
0
0
0
0
0
0
0
0
0
0
0
0
0
0
0
0
0
0
0
0
0
0
0
0
0
0
0
0
0
0
0
0
0
0
0
0
0
0
0
0
0
0
0
0
0
0
0
0
0
0
0
0
0
0
0
0
0
0
0
0
0
0
0
0
0
0
0
0
0
0
0
0
0
0
0
0
0
0
0
0
0
0
0
0
0
0
0
0
0
0
0
0
0
0
0
0
0
0
0
0
0
0
0
0
0
0
0
0
0
0
0
0
0
0
0
0
0
0
0
0
0
0
0
0
0
0
0
0
0
0
0
0
0
0
0
0
0
0
0
0
0
0
0
0
0
0
0
0
0
0
0
0
0
0
0
0
0
0
0
0
0
0
0
0
0
0
0
0
0
0
0
0
0
0
0
0
0
0
0
0
0
0
0
0
0
0
0
0
0
0
0
0
0
0
0
0
0
0
0
0
0
0
0
0
0
0
0
0
0
0
0
0
0
0
0
0
0
0
0
0
0
0
0
0
0
0
0
0
0
0
0
0
0
0
0
0
0
0
0
0
0
0
0
0
0
0
0
0
0
0
0
0
0
0
0
0
0
0
0
0
0
0
0
0
0
0
0
0
0
0
0
0
0
0
0
0
0
0
0
0
0
0
0
0
0
0
0
0
0
0
0
0
0
0
0
0
0
0
0
0
0
0
0
0
0
0
0
0
0
0
0
0
0
0
0
0
0
0
0
0
0
0
0
0
0
0
0
0
0
0
0
0
0
0
0
0
0
0
0
0
0
0
0
0
0
0
0
0
0
0
0
0
0
0
0
0
0
0
0
0
0
0
0
0
0
0
0
0
0
0
0
0
0
0
0
0
0
0
0
0
0
0
0
0
0
0
0
0
0
0
0
0
0
0
0
0
0
0
0
0
0
0
0
0
0
0
0
0
0
0
0
0
0
0
0
0
0
0
0
0
0
0
0
0
0
0
0
0
0
0
0
0
0
0
0
0
0
0
0
0
0
0
0
0
0
0
0
0
0
0
0
0
0
0
0
0
0
0
0
0
0
0
0
0
0
0
0
0
0
0
0
0
0
0
0
0
0
0
0
0
0
0
0
0
0
0
0
0
0
0
0
0
0
0
0
0
0
0
0
0
0
0
0
0
0
0
0
0
0
0
0
0
0
0
0
0
0
0
0
0
0
0
0
0
0
0
0
0
0
0
0
0
0
0
0
0
0
0
0
0
0
0
0
0
0
0
0
0
0
0
0
0
0
0
0
0
0
0
0
0
0
0
0
0
0
0
0
0
0
0
0
0
0
0
0
0
0
0
0
0
0
0
0
0
0
0
0
0
0
0
0
0
0
0
0
0
0
0
0
0
0
0
0
0
0
0
0
0
0
0
0
0
0
0
0
0
0
0.001576147768
-0.0015762238
2.522875648e-05
4.623926299e-05
-0.001580492112
-4.711090947e-05
0.0007925176663
0.0007888460923
-6.048247347e-05
0.00157108197
5.399155811e-05
0.001598040336
2.459078057e-05
-0.0007988110834
-0.0007988660429
4.040652415e-05
-0.001609550918
-4.117112648e-05
0.0008055244464
0.0008047910743
4.35996049e-05
0.0007953234559
0.0007941388488
0.001629649447
2.496593667e-05
-0.0008144314963
-0.0008150012602
3.908369629e-05
-0.001634385228
-3.797976324e-05
0.0008168096466
0.0008164716484
3.986493781e-05
0.0008054317363
0.0008065567783
0.001659520697
2.532695167e-05
-0.0008292162372
-0.0008300087552
3.549447453e-05
-0.001660074409
-3.659981327e-05
0.001661179748
0.001640392
3.836428398e-05
0.0008453232715
-0.0008453244755
1.337892806e-05
-0.0004221230616
-2.10973409e-06
2.019775093e-06
0.0004222130206
0.0004218849661
-0.0008431086345
2.889780879e-06
3.537340172e-05
-0.001685552364
-3.527055812e-05
0.00168544952
0.001664749295
3.531147629e-05
0.0008616181283
-0.0008616181283
1.215252888e-05
-0.0008616181493
3.980653251e-06
-3.980692329e-06
0.0008616181884
0.0004220487585
-2.521098109e-06
-0.001721487338
0.0007913532934
3.58975899e-05
2.143033818e-05
4.923695843e-05
-0.003401959114
0.001717794961
0.001704613947
-3.344034102e-05
-3.624641097e-05
0.001687332606
3.553583098e-05
0.001575933532
-0.001575276259
3.082429789e-05
-5.71459013e-06
0.001500474334
5.092001385e-06
-0.001568139624
-5.79961105e-05
0.001565653261
-6.991581354e-05
0.001530615257
8.144243104e-05
6.815957464e-06
-0.0003963675991
-7.063632585e-06
0.0003966152743
-0.0007933126759
-2.485793519e-05
0.0007954736423
2.269696883e-05
-0.001579898415
-4.903836009e-05
0.0001513128636
-0.003148699482
-0.000155579864
0.003153794295
-0.0001655051822
0.003113074757
0.0001560001602
0.003185401311
-0.003194122678
0.0001140776413
-2.927657971e-05
2.921022596e-05
0.00159810669
2.940261766e-05
0.001577406764
-2.92523706e-05
7.392590635e-06
-0.0003994322342
-7.101664075e-06
0.0003991413076
-5.462870081e-06
-0.0003966786868
0.0003961831101
5.958446761e-06
-0.001609162035
-4.579435179e-05
0.0001465448764
-0.003209788448
-0.0001477513784
0.003211176495
0.003171460228
0.0001496286916
0.003252764124
-0.003256606041
0.0001137813176
-2.935203047e-05
2.928594466e-05
0.001629715533
0.001601819675
-2.93419325e-05
-2.529500773e-05
0.001615149093
2.522961886e-05
-0.0008069166559
-0.0008081670481
-5.882452344e-06
-0.0004042353251
5.867824434e-06
0.0008081653149
-0.0004039153619
5.722309711e-06
-0.0003991967095
0.000799521861
-6.017020192e-06
-0.000400030441
5.865533799e-06
-0.0004063653241
-5.902277076e-06
0.0004064020674
-7.611682525e-06
-0.0004030700818
0.0004025355385
8.146225834e-06
-0.001634569755
-4.321351543e-05
0.0001409036905
-0.003253084945
-0.0001430287086
0.003261625435
0.003220030156
0.0001453023837
0.00331526845
-0.003315850839
0.0001131739771
-2.956550354e-05
2.950081337e-05
0.001659585387
0.001633582379
-2.934076014e-05
-2.483007932e-05
0.001645049575
2.51480108e-05
-0.0008223242555
-0.0008230432509
-2.696426173e-06
-0.0004116218751
2.626524983e-06
0.0004116917763
6.144229697e-06
-0.000407904595
0.0008161873729
-6.064920643e-06
-0.000408362087
9.8006217e-06
-0.0008240634812
-1.005392091e-05
0.0008243167804
-1.11313253e-05
-0.0008195531292
9.378103677e-06
0.000411160198
0.0004101461528
0.003377107117
0.0001137269978
-0.001686847989
-0.001690634847
-2.996703194e-05
-0.0008450791059
2.972500144e-05
0.001690644408
0.001663841238
-2.963152706e-05
-1.331698489e-05
0.0008385155635
-0.0008385968279
1.339824928e-05
-1.247310059e-06
-0.0004200062045
1.619035188e-06
0.0004196344794
1.987957111e-06
-0.0004148191162
0.0004149584232
-2.127264099e-06
0.0004220146097
5.285540069e-07
-0.0004209000999
-1.643063801e-06
8.346992989e-06
-0.0008381168507
-8.062375601e-06
0.0008378322333
-9.314337526e-06
-0.0008319877034
0.0008319947652
9.307275785e-06
0.00338513007
0.0001075450246
-0.001660191628
-0.001721487338
-2.753286814e-05
-0.00085986921
2.753286815e-05
0.001721487338
-0.0008480909478
0.001693573509
-2.996441506e-05
-1.337405902e-05
0.0008530097877
-0.0008529310496
1.329532089e-05
-2.591699239e-06
-0.0004240742291
1.601027627e-06
0.0004250649007
6.964345499e-07
-0.0004206349454
0.000421074455
-1.135944119e-06
0.001751862768
-0.001751862768
2.322955273e-05
-0.001751862768
6.885671545e-06
-6.885671537e-06
0.001751862768
0.000861767043
3.980630757e-06
4.757990647e-06
0.0007842619264
-5.391196763e-06
-0.0003912229494
-0.0003924057709
-4.249196207e-06
0.0007879314496
4.313856252e-06
-0.0003944206474
-0.0003935754622
0.0007947516702
1.975153547e-05
-2.138702791e-05
-0.0007931161778
0.0007855258211
-0.0007861300184
5.362187895e-06
-0.0003968300384
-5.079927281e-06
0.0003964470956
-0.0003955017084
0.0003958258018
6.491864128e-06
-4.977979298e-05
-0.001575709225
4.812176727e-05
0.0007905964737
0.0007867707769
-1.827700894e-05
0.000394589122
1.689763384e-05
-0.0007887114554
6.417347186e-06
-0.0003970217122
-6.225673346e-06
-0.0003988144166
5.353141271e-06
0.0007985769228
-0.0003993933378
-0.0007932771228
5.642464771e-06
0.0007933497027
-5.715044686e-06
2.490908971e-05
0.001588588277
-2.497678673e-05
-0.00158852058
4.436058824e-06
-4.948549847e-06
-0.0003963771777
-0.0003963874541
-2.365030277e-06
-0.0003988153117
2.365925407e-06
0.0007878685143
-4.61379812e-06
-0.000393517442
-0.0003939864704
0.0007931408094
4.587456711e-06
-0.0003967864932
-0.0003965057141
-0.0004021556112
-7.0019157e-06
0.0004015458444
-0.0004006305171
0.0004000484613
7.974646488e-06
-2.180498726e-05
-0.0008005791745
0.000800731786
2.165237578e-05
-7.684889365e-06
7.889623515e-06
-0.0004008352513
7.437509779e-06
-0.0004025090754
-7.084045563e-06
6.657936939e-06
-0.0003969192765
-0.0003996627551
-7.454368487e-06
-0.0007985152959
-2.180788186e-05
0.0007985181905
-0.0004074389939
5.848450617e-06
0.0008147876854
-0.0004070529124
-0.0004048436199
0.0008097964055
-5.587119356e-06
-0.0004052481187
0.001619547906
-2.491084258e-05
-0.0008096411324
-0.0008102909391
2.163392425e-06
-2.090404357e-06
-0.0004049166079
-2.707746459e-06
-0.0004073688617
2.637614196e-06
-2.436415108e-06
-0.0003991253247
-0.0004043702765
2.298343877e-06
-0.0008175423183
-1.091995803e-05
0.0004087841607
0.0004085467903
-0.0004065646582
0.0004064262757
6.003916305e-06
-3.792486791e-05
-0.001623567506
3.81911316e-05
0.0008114868059
0.0008118144364
-1.277712751e-05
0.0004056640546
1.216426848e-05
-0.0008116158537
1.209099925e-05
-0.0008174558783
-1.217743928e-05
7.78906002e-06
-0.000403421632
0.00040558583
-0.000811422536
-6.237590053e-06
-7.068155471e-06
-0.001620523355
-3.935642467e-05
0.0008112998582
0.0008106550531
-0.0004145780153
1.923484069e-06
0.0004146424883
-0.0004117824819
0.0004117750082
-2.688952437e-06
0.001647614632
-2.535379536e-05
-0.0008234560171
-0.0008236348987
2.221825861e-06
-2.439836381e-06
-0.0004115644714
-1.144582755e-06
-0.0004143650726
9.31640061e-07
-2.705282266e-06
-0.0004079070592
-0.000411556968
2.156918751e-06
-0.0008316434743
-9.337279824e-06
0.0008316664166
-0.0008254963145
0.0008255010976
9.795838555e-06
-0.0004220804232
4.042424425e-07
0.0004223726153
-0.0004195958041
0.0004197447318
-1.396237825e-06
0.0008392312254
-1.331462693e-05
-0.0008392335834
2.034372166e-06
-0.0004195490439
0.0004182789418
-7.642700729e-07
3.800491061e-07
-5.968178603e-07
-0.0004193790353
-8.357575284e-07
-0.0004214894395
2.447738485e-07
-1.432971264e-06
-0.0004145307277
-0.0004202276685
6.015130433e-07
-1.060071118e-07
0.000424154989
1.617068947e-05
-0.00168464704
-1.583324812e-05
0.0008421101569
0.000842199442
-0.0008383485451
0.0008380550963
8.640441834e-06
5.257303317e-07
-0.0004195462202
-0.0008688014087
-7.016411454e-06
0.0008648241258
6.436781979e-06
4.556912285e-06
-0.0004243179082
0.0004248445839
-3.118374871e-06
0.000853644829
-1.35338331e-05
-0.0008534850549
1.031472539e-05
-0.0008437193809
0.0008441754434
-1.077078787e-05
3.46495073e-06
-3.783062205e-06
-0.0004239997968
-3.542845587e-06
-0.0008687846427
4.283825254e-06
-7.577456587e-07
-1.434074548e-06
-0.0004200366284
2.769105174e-06
-0.0004233783836
-0.000843422307
9.377885611e-06
0.0008443591468
0.003129198714
-0.003145497969
0.0001156969262
2.955257952e-05
0.001575997807
3.519110884e-05
0.001577736264
-3.298065419e-05
-2.706014173e-05
0.001571190181
-0.001571066036
2.693599682e-05
-6.118808141e-06
6.224344423e-06
0.0007854202848
1.043647365e-05
0.0007970584888
-1.27432922e-05
5.284985317e-05
-0.0003886537312
1.819993327e-05
0.0003176039448
-0.0004079753643
-1.373383946e-05
0.0004137880106
7.921193219e-06
0.001585673937
-0.001585827945
2.506309721e-05
5.64527623e-06
0.0007931379979
5.732897562e-06
0.000787868863
-5.733246235e-06
0.0001063898239
-0.0004137823769
-3.588241783e-05
0.0003432749708
-0.001659585382
-4.175036555e-05
0.0001386245064
-0.003275583411
-0.0001398070656
0.003317758791
0.003276953618
0.0001415942116
0.0001051039101
-0.0004188890742
-3.293686456e-05
0.0003467220286
3.924142613e-06
-0.0008345733917
-4.347054155e-06
0.0004175444339
0.0004174518694
-2.475621778e-06
-0.0004159404215
0.0004158660801
2.549963166e-06
-6.336662535e-06
-0.0008429751657
5.889521207e-06
2.366909716e-05
-0.001693922997
-2.039552539e-05
0.001690649426
-0.001686801964
1.665923325e-05
0.0008432700674
0.0008430433525
5.729332844e-06
0.0007879350143
0.0007842994558
-6.156337537e-06
0.001565288633
-2.603140941e-05
-0.001566317365
1.476762683e-06
0.0003933030233
-6.204378439e-07
-0.0003941593481
0.0004105632225
1.646390616e-05
-1.081658274e-05
-0.0004162105459
0.0003970942108
-5.524709086e-06
-0.0003977896102
6.220108432e-06
-3.058733868e-05
2.420300362e-05
-0.0007869283409
0.0003948356474
-0.0007895048823
-1.99753732e-05
-0.001571061055
-4.689890013e-05
0.0007849911687
0.0007831889933
-0.0004164061156
-2.790741087e-06
0.0004167212349
-6.496431344e-06
-0.0004150041255
0.0004160466284
5.453928446e-06
-3.76555067e-05
-0.001649679255
0.001650184086
3.715067533e-05
-1.140254499e-05
1.115208501e-05
-0.0008252458545
1.067909876e-05
-0.000831469909
-1.085266399e-05
1.155316931e-05
-0.0008190152993
-0.0008240609508
-1.140507538e-05
-0.001648332994
-3.777554768e-05
0.001648453035
-1.912645466e-06
-0.00042190314
0.0004232580086
5.577768157e-07
0.0004207293549
2.304522154e-06
-0.0004206454225
-2.388454545e-06
-8.045402404e-06
-0.0008436253621
7.840593232e-06
0.0004215592454
0.0004222709258
-0.0007575937327
3.126225368e-06
0.0007575232837
-3.055776372e-06
0.00163093113
4.80426976e-05
-4.812336173e-05
-2.691349989e-05
-0.0007951991896
-0.0008087377762
0.0007868273759
-0.0008032156368
3.613979646e-05
-0.0007906708057
-2.59436364e-05
0.0007917565069
-0.00158848508
-7.659052968e-05
0.0007957936906
0.0007666010344
3.878528471e-05
6.389559963e-05
-1.142119288e-05
1.220683057e-05
-0.0007583793704
-0.0005016729507
0.0005545228039
-1.859779751e-05
-0.0007918386218
1.686161474e-05
0.0003965812711
0.0003969935335
-1.364229665e-05
-8.701184287e-05
-0.0004010188112
-9.872005522e-06
6.858075569e-06
-0.0004049614344
-0.0003991195228
-3.176505022e-06
-0.0007882457602
-1.628889081e-05
0.0003936388481
0.0003922980054
-7.623746649e-06
-0.0003984441856
0.0003985142696
7.553662615e-06
-0.0003985112887
-7.590061704e-06
0.0003984776037
-5.592058628e-06
-0.000405824479
0.0004057908116
5.625726001e-06
-0.0004066140512
-6.069038504e-06
0.0004070910311
-0.000411644645
6.369578351e-06
-3.952280184e-06
0.0004092273469
-0.0004193051884
0.0005274684968
-1.773484478e-06
-1.047085223e-05
-0.0008210035026
0.0008210049105
1.04694444e-05
-9.729895631e-06
4.860825251e-06
-0.000414436118
6.54202284e-06
-0.0004122967194
-5.889948522e-06
-8.922331271e-06
3.519793839e-05
-0.0004064092088
0.0003801336017
-0.000411861934
-1.165033852e-05
-0.0008207363817
-1.055459307e-05
0.0004103804121
0.0004104397104
-0.0004174069089
3.334264726e-06
0.0004175487318
-3.476087632e-06
9.328329988e-06
0.0008348307452
-9.401759989e-06
-0.0008347573152
-9.394749344e-06
0.0008384504707
-0.0008385312323
9.475510957e-06
2.731389886e-06
-0.0008376392078
-2.916747838e-06
0.0008378245658
-0.0008352076744
3.42808188e-06
0.0004180886205
0.0004176151147
0.0005349674043
-4.466980073e-06
-0.0004253965141
4.987078933e-06
-0.0004239115031
0.0004244267195
-5.502295384e-06
9.812869308e-06
0.0008497603725
-9.894528986e-06
-0.0008496787129
-9.895980689e-06
0.0008528536547
9.502652868e-06
-0.0004260679824
-0.0004263923445
9.607290201e-06
0.0008451018393
-9.835820251e-06
-0.0008448733093
0.0008487350323
-0.0008486618178
9.739654815e-06
-0.0004225303255
4.314229339e-06
0.0004232031751
0.0004012227248
5.123029418e-06
9.562625227e-05
-0.0005019720065
0.0003914665237
1.241475965e-06
-0.000391231237
-5.100601269e-06
0.0007862880343
4.811951278e-06
-0.0003922985052
-0.000393700879
-1.159163246e-06
5.69269744e-07
0.0003920564172
1.080635546e-06
0.0003978272374
2.314851827e-06
3.83665993e-06
-2.663842411e-05
0.0003942923536
-0.0003714905894
0.0003936737027
-1.52984265e-06
0.0007879020286
-4.227032223e-06
-0.0003947406676
-0.00039403493
-7.23419511e-06
0.0007971111461
-0.0007976521518
7.775200844e-06
-2.864762024e-06
2.403901344e-06
0.0003975550715
2.541628037e-05
0.0003978751522
-1.272821013e-05
-0.0003972739385
2.357284892e-06
0.0003959972892
-0.0003965103209
0.0003966985821
-3.053023255e-06
0.0007915435696
-6.710276661e-06
-0.000792067488
-3.066631674e-06
-0.0003989683983
-0.0003967831097
4.632200611e-06
-7.380906724e-06
-0.0003965772188
0.0003955293606
8.42876492e-06
-0.0003954439483
-7.398618448e-06