/*--------------------------------*- C++ -*----------------------------------*\
| =========                 |                                                 |
| \\      /  F ield         | OpenFOAM: The Open Source CFD Toolbox           |
|  \\    /   O peration     | Version:  v1912                                 |
|   \\  /    A nd           | Website:  www.openfoam.com                      |
|    \\/     M anipulation  |                                                 |
\*---------------------------------------------------------------------------*/
FoamFile
{
    version     2.0;
    format      ascii;
    class       volScalarField;
    location    "1.31";
    object      nut;
}
// * * * * * * * * * * * * * * * * * * * * * * * * * * * * * * * * * * * * * //

dimensions      [0 2 -1 0 0 0 0];


internalField   nonuniform List<scalar> 
12556
(
1.155891947
1.155863066
1.155832968
1.155807291
1.156027641
1.15602203
1.156030086
1.156053592
1.15610077
1.156185001
1.156310494
1.156451569
1.156555225
1.156560388
1.156489063
1.156362411
1.156233726
1.156146355
1.156076209
1.156049547
1.155824854
1.15583073
1.155853045
1.15588104
1.155156636
1.155069066
1.15497945
1.15490887
1.155114483
1.155116433
1.15517207
1.155379886
1.155602291
1.155995331
1.15658457
1.157278656
1.15790371
1.143441144
1.157654663
1.157011927
1.156373982
1.155871625
1.155446994
1.155256885
1.154942407
1.154975147
1.155042063
1.155121074
1.15438608
1.154238662
1.154093725
1.153996175
1.154208663
1.15425022
1.154392439
1.154758591
1.15530974
1.156259468
1.157677042
1.009382205
0.9150259249
0.9070804852
0.9710518859
1.113272853
1.157072932
1.155953745
1.155038245
1.154590123
1.154156684
1.154130758
1.154217921
1.154350717
1.153603045
1.153400432
1.153210502
1.153099773
1.153324082
1.153448672
1.153754773
1.154426093
1.155581622
1.133366464
0.8544827974
0.6919404871
0.6240916037
0.6283511858
0.6940005333
0.8175928117
1.020245329
1.156782764
1.155061809
1.15416044
1.153402711
1.153334923
1.153415564
1.1535794
1.152791801
1.152535077
1.152311719
1.152216742
1.152489338
1.152746731
1.153390192
1.154504043
1.156785325
0.8270679753
0.576994558
0.4308761265
0.3718861425
0.3881590474
0.4623319569
0.5788235119
0.7531203199
1.028913611
1.155750742
1.154072313
1.152855624
1.152577009
1.152609284
1.152797806
1.151985203
1.151686166
1.15144335
1.151372101
1.151720438
1.152183372
1.153294436
1.155173318
0.9712949584
0.6198293598
0.3869412708
0.2416883337
0.1847709481
0.2132637371
0.2952694349
0.4102543045
0.5675684331
0.8034934039
1.157299868
1.154408903
1.152464098
1.151888196
1.151822502
1.15200174
1.151168295
1.150829886
1.15058143
1.150568548
1.151035192
1.151778761
1.153530878
1.156437526
0.8193995171
0.4997178382
0.2778069665
0.1223758308
0.06646254912
0.1040861399
0.1909743047
0.3019527799
0.4464312719
0.6499374185
0.9980668275
1.155266802
1.152232847
1.151245649
1.151018715
1.151164176
1.150380049
1.150016198
1.149779575
1.149834431
1.150465766
1.151558432
1.15412081
1.157974939
0.7524118774
0.4674429
0.264552727
0.105354415
0.05741148954
0.1410411609
0.2434966691
0.3755864672
0.5592492101
0.8765648732
1.156501708
1.152224473
1.150704833
1.150249583
1.150329814
1.149624242
1.149236275
1.149022534
1.149198153
1.15003142
1.151533625
1.154982184
1.126621518
0.7479280771
0.5076837274
0.358448513
0.2686983809
0.06689778759
0.1350669015
0.2241369871
0.3442127633
0.5116121202
0.805193176
1.15805923
1.152418731
1.1502603
1.149518921
1.149513091
1.148948293
1.148549011
1.148371435
1.148702348
1.149673466
1.151694066
1.156016801
1.118451649
0.7752955731
0.5764535064
0.4860906211
0.5451285048
0.09185831455
0.1506811573
0.2312333341
0.3422502183
0.4965474695
0.770108467
1.122256204
1.152852286
1.15001095
1.148936669
1.148818143
1.148330313
1.147921481
1.14779764
1.148311669
1.149418281
1.152012159
1.157158236
1.124743444
0.8101458102
0.6345848332
0.5721774874
0.5962395607
0.124696066
0.1797004852
0.2567925243
0.3629041311
0.509348872
0.7681448647
1.088926118
1.153478633
1.149939691
1.148517108
1.148276799
1.147828455
1.147418338
1.147346772
1.148025071
1.149301895
1.15244222
1.158356284
1.140358321
0.842907039
0.667206719
0.5849932951
0.5163841165
0.1618344125
0.2207434925
0.3000376122
0.4048889501
0.5478580748
0.7944430856
1.088803183
1.154332157
1.150119342
1.148354444
1.147985133
1.147382656
1.146971546
1.146983865
1.147854153
1.149296026
1.152921665
1.15954881
1.165660402
0.8796828744
0.6879250699
0.5529384304
0.4546265919
0.07918732074
0.2079691626
0.2814875296
0.3677697292
0.4733094359
0.6191761557
0.8455616645
1.111439859
1.155255366
1.15047492
1.148390495
1.147906888
1.147049301
1.146641727
1.146726789
1.147745246
1.149476801
1.153694722
1.160867057
1.167219212
0.9367803425
0.7303307133
0.5567096017
0.2892731002
0.1381250231
0.3063398756
0.3908280659
0.4765744791
0.5763219257
0.7141862065
0.92181661
1.161640625
1.156230908
1.151009289
1.148643958
1.148058999
1.14674436
1.146334332
1.146484568
1.147659418
1.14962301
1.154272142
1.161891057
1.168458082
1.038742914
0.8387277393
0.6542564252
0.07709801345
0.2040196782
0.4914425948
0.5969091562
0.6520428987
0.7318102303
0.8530721988
1.041812973
1.166482772
1.157153838
1.151580497
1.1490048
1.148348423
1.146525371
1.14611321
1.146313032
1.147614713
1.149774188
1.154778903
1.162754073
1.16941014
1.16483325
1.037667974
0.8888801259
0.04724954059
0.2217416376
0.5045364721
0.7677334978
0.9238715627
0.9504851651
1.036778839
1.166312725
1.167425904
1.157978829
1.152180486
1.149449703
1.148738897
1.146287039
1.145862881
1.146093984
1.147522349
1.149891041
1.155179233
1.163415305
1.170043598
1.165670303
1.124303
0.8593132732
0.04831440516
0.2208853449
0.5044828674
0.767983021
0.9649721621
1.08421406
1.142775833
1.167361534
1.168065529
1.158629878
1.15269898
1.149862795
1.149119342
1.146107499
1.145671933
1.145915037
1.147425595
1.149944294
1.155451545
1.163850329
1.170362262
1.165613435
1.121088656
0.8349052677
0.05613450209
0.2137671951
0.4984620506
0.7669580632
0.9665602704
1.08561643
1.143544492
1.167708894
1.168347434
1.159089208
1.153125931
1.150259034
1.149497297
1.145870226
1.145415651
1.145652864
1.147239226
1.149919184
1.15558979
1.164067239
1.170374452
1.16475813
1.114219869
0.7983861733
0.06070838008
0.2113903097
0.4950532472
0.7689337927
0.9680791279
1.085749116
1.143425197
1.167552515
1.168311931
1.159322628
1.153389568
1.150528054
1.149759894
1.145681727
1.14521433
1.145433849
1.147046638
1.14981135
1.155600967
1.164091508
1.170133758
1.163459532
1.104613066
0.7411894828
0.05735031494
0.2166300851
0.4969637989
0.7700858541
0.9682017745
1.08496471
1.142650067
1.166984407
1.16800483
1.159421459
1.15359219
1.150758374
1.149983193
1.14541141
1.144929723
1.145124746
1.146764922
1.14963239
1.155501296
1.163954529
1.169694561
1.161804185
1.093652391
0.6849603579
0.0556557457
0.2211333993
0.4976863237
0.7682437187
0.9670585959
1.083457382
1.141371482
1.166083046
1.16747603
1.159329724
1.153631309
1.150838777
1.150060341
1.145194781
1.144710351
1.144882793
1.146512514
1.149399418
1.155315619
1.163690768
1.169098696
1.159820348
1.081282976
0.6390663927
0.05577211579
0.2242358111
0.4972470643
0.7643242028
0.9644797943
1.0812846
1.139668686
1.164905777
1.166766616
1.159164916
1.153646393
1.150900671
1.150113754
1.144881899
1.144396402
1.144550319
1.146189176
1.149136855
1.155072881
1.16333449
1.168376996
1.15749195
1.06663644
0.6051212893
0.05709120297
0.2262895841
0.4959529472
0.7593628514
0.9603780094
1.078377785
1.137550321
1.163481496
1.165905504
1.158845846
1.153509009
1.150812836
1.150019254
1.144637103
1.144162455
1.144306969
1.14593028
1.148859869
1.154798497
1.162914677
1.167544594
1.154733401
1.048649989
0.5797147342
0.05925399281
0.2275672442
0.4939753454
0.7538219315
0.9549639034
1.074641689
1.13498443
1.161819577
1.164911056
1.158504548
1.153390191
1.150745152
1.149939681
1.144286578
1.143823209
1.143964221
1.145601158
1.148582124
1.15450793
1.162447328
1.166595039
1.151356875
1.027875595
0.5600065913
0.06204259348
0.2281628267
0.4913195406
0.7477320528
0.9484700657
1.070042158
1.131934842
1.159919364
1.163794047
1.158021885
1.153120718
1.150528938
1.149714397
1.144021149
1.1435787
1.143725696
1.145355132
1.14830327
1.154205821
1.161933458
1.165499381
1.14712644
1.006245147
0.5444472361
0.06534476322
0.228111074
0.4879447094
0.7410129038
0.9410936957
1.064574871
1.128381901
1.157780101
1.16255993
1.157552627
1.152906956
1.150371862
1.149544696
1.143643333
1.1432197
1.143374967
1.145023592
1.14802646
1.153889191
1.161363579
1.164214299
1.141854132
0.9853664961
0.5321396558
0.06907200142
0.2273711912
0.4838199722
0.7336169867
0.9328914915
1.058365237
1.124335262
1.155412373
1.161214838
1.156938416
1.152533837
1.150058695
1.149223612
1.143362153
1.142965028
1.143137088
1.144785768
1.147743024
1.153551499
1.160723513
1.162693737
1.135529866
0.965950489
0.5223562819
0.07315482886
0.2259333975
0.4789453086
0.7254365828
0.9238980033
1.051421778
1.119848858
1.152847703
1.159772207
1.156369983
1.152246364
1.149834256
1.1489886
1.142968616
1.142593535
1.142779524
1.144444265
1.147453987
1.153185055
1.159999654
1.160902585
1.128316545
0.9482442746
0.5146656364
0.07752733154
0.2238138372
0.4733042375
0.7164307324
0.9141725766
1.043894186
1.115019461
1.150141934
1.158256174
1.155656239
1.151792088
1.149445332
1.148594116
1.142666917
1.142320639
1.142528966
1.144199029
1.147148394
1.152783261
1.15918204
1.158827334
1.120519899
0.9323478515
0.5088258846
0.08222512018
0.221103102
0.4668729258
0.7066495495
0.9038635798
1.035972789
1.109985048
1.147367016
1.156699929
1.15502017
1.151440545
1.149159022
1.148298655
1.142273278
1.141948937
1.142171833
1.143844633
1.146828564
1.15234043
1.158265356
1.156479801
1.112466836
0.9183185951
0.5048830312
0.08738643013
0.2178655111
0.4597166954
0.6962893236
0.8932324804
1.027900695
1.104902302
1.144598401
1.155137257
1.154263857
1.150942233
1.148724173
1.147859074
1.14193085
1.141635574
1.141881836
1.143564388
1.146483814
1.151853225
1.15724827
1.153889889
1.104433141
0.906140101
0.5027140802
0.09310005069
0.2142103957
0.4520945142
0.6856645578
0.8826105633
1.019936067
1.099923444
1.141903317
1.153603602
1.153585558
1.150525974
1.148369913
1.147494993
1.141565519
1.141289334
1.1415481
1.143214443
1.146117852
1.151319212
1.156132291
1.151094582
1.096598839
0.8956709409
0.5021242255
0.09941742526
0.2103221547
0.4442375043
0.6751288967
0.8723286083
1.012309255
1.095171339
1.139333061
1.152120389
1.152880545
1.150054326
1.147950224
1.147069778
1.141139231
1.14089183
1.141171811
1.142845764
1.1457246
1.150740321
1.15492038
1.148126906
1.089043999
0.8866487446
0.5027557683
0.1062355394
0.2063507516
0.4364516689
0.6650342818
0.862690275
1.005207355
1.090732282
1.136924194
1.150716703
1.152131301
1.149545341
1.147500193
1.146607616
1.140851388
1.140618325
1.14090755
1.142562627
1.145312556
1.150124034
1.153623202
1.145001851
1.0817484
0.8787169537
0.5041558898
0.1134059934
0.2024447913
0.4290783714
0.6557712167
0.853987129
0.9987753355
1.08665961
1.134712934
1.149403414
1.15163993
1.14921195
1.147198138
1.146298532
1.140247937
1.140047443
1.14035749
1.142000211
1.144915369
1.149504045
1.152295755
1.141709035
1.074605858
0.8714018619
0.5056306682
0.1206044257
0.1989494441
0.4225685235
0.6478933737
0.8465313719
0.9931405575
1.082975891
1.132785611
1.148264566
1.150720472
1.148570377
1.146619703
1.145702127
0.2344210772
0.05930407397
0.05001494181
0.527219465
0.08350829983
0.06209724392
0.605704937
0.1172414226
0.08746674942
0.525276505
0.1483882035
0.1222671048
0.4603205663
0.05885169795
0.07423692449
0.1826207707
0.1522765356
0.3331323367
0.09906673292
0.06060022889
0.1247783463
0.2469890453
0.1857528012
0.1015087077
0.06768270034
0.05185084553
0.09844242276
0.03019933377
0.02123439469
0.06455045725
0.1146319542
0.1204030196
0.4558342211
0.5010567868
0.2778375468
0.04445418066
0.04988091259
0.08852885656
0.1287515152
0.1164756459
0.5574471903
0.6602727892
0.5231822186
0.599061597
0.2280837381
0.2650734678
0.07366441975
0.05440442004
0.1205036826
0.1563236215
0.1346446682
0.5867126482
0.6314139386
0.6729759744
0.567065342
0.1379337898
0.1859423896
0.1260925465
0.0972903374
0.5606121274
0.5445259433
0.6224128249
0.500700115
0.07618903911
0.1038052163
0.02423179209
0.1394734651
0.1339732474
0.5474910203
0.3816334872
0.5296005499
0.4132417971
0.0281460821
0.04722938447
0.2686782976
0.1517688951
0.1128938084
0.0828277049
0.2271148806
0.03830784872
0.07399839295
0.04827788131
0.03147090709
0.05190739611
0.03330672649
0.04638679159
0.2703760545
0.3101983695
0.4299033535
0.2365494445
0.2121577365
0.282312143
0.2412810936
0.0539258284
0.04425221441
0.07333889183
0.06309959264
0.07025337106
0.04755810809
0.06342243725
0.07187723635
0.189523124
0.2228250959
0.6235964184
0.1695640914
0.1385912271
0.2096322464
0.1721711478
0.09317075322
0.07528752266
0.1045211852
0.09704555489
0.1146100473
0.07087032315
0.09387539172
0.1000395972
0.1054167006
0.1359530325
0.5570951572
0.1069810369
0.07852997462
0.1368601665
0.1085608829
0.1330678946
0.1270171743
0.04820986087
0.07428303963
0.4979500151
0.01649312234
0.05089771711
0.02992174089
0.07736180931
0.05250994409
0.0143186661
0.1449590142
0.1409016113
0.02744324735
0.004675194965
0.02781055564
0.4070151483
0.08372926249
0.01749217927
0.009522451816
0.0295783118
0.01782556629
0.0820515159
0.3275952715
0.2461520213
0.1235221447
0.1370879786
0.08264157816
0.04557615037
0.01666438542
0.00904733815
0.3903257606
0.3157291006
0.2502338609
0.009571217716
0.1547047388
0.1927460632
0.1646680812
0.00987969192
0.08087717589
0.07090710008
0.09551610014
0.1604669813
0.148417323
0.2160181247
0.09258773215
0.155865435
0.04304816734
0.014687945
0.02560195018
0.02438310762
0.03161321366
0.05059287178
0.06881180793
0.05024344331
0.1370802272
0.126683906
0.1349663305
0.1158429834
0.1254675292
0.1337806284
0.03952068004
0.011519924
0.07222397844
0.02669840719
0.04631145315
0.0372243789
0.02162604759
0.03421251378
0.02540585566
0.0152027479
0.02434912872
0.02157700039
0.01085786613
0.01752575472
0.02306469797
0.05559857177
0.05644258464
0.06429775909
0.06295119886
0.02458931652
0.01121585545
0.1144106481
0.02075306738
0.03915644737
0.01021057063
0.01753311369
0.1099379652
0.09161374763
0.2781666389
0.2623112969
0.1009819398
0.08604882677
0.01028079222
0.04218118726
0.1948413311
0.1799276467
0.2155907473
0.2009054752
0.04257139637
0.05439105911
0.0434031963
0.1252086654
0.07169625432
0.06857895927
0.04060068368
0.0710150007
0.1426880773
0.04691998522
0.02691294808
0.01680636415
0.06024528747
0.02991150477
0.05209788059
0.02836696817
0.07273531777
0.03898790919
0.03862393316
0.2303335433
0.03022122353
0.2292239224
0.2662338807
0.03452995628
0.03942357846
0.03070576502
0.03394194366
0.259850851
0.05185942502
0.0514871186
0.06720612417
0.06985835235
0.06521969473
0.07638726952
0.07145239004
0.067561094
0.0576384987
0.05774439721
0.05274619457
0.06356788991
0.05911667998
0.05921919841
0.1542153332
0.152219357
0.1921022945
0.1897660409
0.08831205974
0.00993239059
0.08668425264
0.0962354692
0.09420101895
0.1219736801
0.1200571685
0.04188850663
0.06151141804
0.1310822735
0.04680161073
0.02652415839
0.06468478595
0.2363279395
0.2209581364
0.2569918281
0.2414522348
0.06606648366
0.03580420379
0.04628338751
0.04526583577
0.06965984893
0.06874775786
0.006627884867
0.04806590152
0.1206453148
0.1060826328
0.1741244517
0.1628400437
0.02200682369
0.0113163585
0.02913627558
0.0190041984
0.02810170547
0.01045558254
0.0174959055
0.01088539558
0.0281316117
0.07724450504
0.01230538221
0.02556619993
0.003613297914
0.02523927509
0.01871403178
0.6140732575
0.3815469265
0.3614332622
0.2515730059
0.007958264846
0.005297820664
0.1970799978
0.4132170299
0.2783429141
0.006266461255
0.01610516542
0.01162415784
0.1224533751
0.1218526881
0.05211391524
0.199615532
0.1666173605
0.09894284866
0.0108047408
0.01873155601
0.01467701144
0.009388151692
0.01422260013
0.01003753848
0.04772257849
0.02123969932
0.01993608573
0.05456545929
0.06917115215
0.02135467069
0.0291963698
0.01351147775
0.01337680243
0.05666632088
0.1548040458
0.3623111103
0.3462249334
0.3840148672
0.3677137643
0.1586640757
0.2989842612
0.2832126119
0.09304574942
0.03101486461
0.09389186721
0.08816111757
0.01022707646
0.01625997835
0.1257941107
0.04455763414
0.02395260746
0.02143464369
0.03850594491
0.04506248852
0.04095934613
0.05120132461
0.04648502287
0.03963476504
0.05287359613
0.0141526011
0.01359399778
0.04611648052
0.2035679838
0.4058729118
0.3894211151
0.05906598729
0.0612270938
0.1443727819
0.03098926493
0.03381533976
0.07976612123
0.1064813213
0.1045141513
0.09659785258
0.07845042721
0.08414010903
0.07829717082
0.09371437364
0.08645293464
0.07979448278
0.120662285
0.319895454
0.304154657
0.3409261101
0.3251570567
0.1227422296
0.1024437017
0.0349730239
0.03569508257
0.02010417434
0.02088540901
0.08335142052
0.1306975575
0.05458087811
0.05862984873
0.03600444371
0.0366764149
0.1133244092
0.132303773
0.06444917509
0.0852258984
0.006810621689
0.02416267317
0.0485128539
0.03657927756
0.07399973522
0.01948951125
0.01996484003
0.01906901346
0.06203370961
0.01070198249
0.004402600864
0.1219967352
0.1017913057
0.08618139996
0.08152972096
0.02739958146
0.02773817741
0.04079779154
0.08884076147
0.01727746156
0.01063270453
0.02603694745
0.03389024682
0.002897970444
0.02907346676
0.01881011351
0.01278192636
0.006502189712
0.0126009271
0.009725929764
0.009577932934
0.03753878012
0.02836732748
0.006594051969
0.03922512978
0.04123238028
0.01701448843
0.01142236302
0.008096611052
0.01180836323
0.01860417252
0.01179033272
0.01703706245
0.05883274966
0.01031121589
0.009402822953
0.01100391389
0.01491136588
0.04782397625
0.01086133531
0.01014271556
0.01513700511
0.0109873756
0.01048886605
0.02607300397
0.01731769155
0.03709919217
0.0292355933
0.01042306189
0.02253127351
0.0222507435
0.01925746917
0.03070528368
0.02361924991
0.01884629443
0.01694727669
0.01321182888
0.01835162526
0.01431499664
0.05029690977
0.05632187638
0.01959825046
0.01844020403
0.01987534657
0.02063941498
0.06758889771
0.01179397326
0.0121855513
0.01613167849
0.01203555931
0.0123628767
0.05815041036
0.01284521217
0.0194181853
0.01652680957
0.01459219913
0.02768724959
0.07193796969
0.06575253972
0.01337068974
0.0548380776
0.04732300354
0.06348774371
0.05740315574
0.01419742561
0.01308440486
0.05040852567
0.04124392071
0.1031020014
0.09597252034
0.03457072731
0.0447600081
0.1110879268
0.1050754534
0.04787379982
0.04673896008
0.07508224429
0.09605012432
0.1234913283
0.07138151384
0.08952748416
0.07637030014
0.06411096436
0.1629280984
0.146794566
0.1384052102
0.1675312717
0.0640285429
0.04329369353
0.05215593979
0.06541965779
0.03783538898
0.04272257576
0.03294252445
0.03133605763
0.04328330045
0.02289939047
0.02297929518
0.01831879499
0.03268300818
0.03232679554
0.02382181006
0.03296708909
0.03528135277
0.03745971358
0.03448341484
0.02824836215
0.101782907
0.08754732063
0.1099088388
0.1048475729
0.02945762955
0.07741432598
0.07470250395
0.0835152137
0.07839679561
0.03631918414
0.1323774747
0.1260794735
0.1428608831
0.1346550452
0.0370242899
0.03199281259
0.1167229747
0.1116977369
0.1240980691
0.1185065853
0.03238730954
0.01507604535
0.01442639025
0.05258717613
0.04794635993
0.01500634686
0.01529930041
0.04196840612
0.04113426568
0.04429092162
0.04225503436
0.0396266813
0.03851323953
0.04086215985
0.0399100939
0.07064634975
0.0683382105
0.0738673108
0.07146216669
0.06211167469
0.04716997587
0.06736741928
0.06497323
0.03471229472
0.02928061929
0.04513460964
0.03766752841
0.009543424201
0.01843427568
0.01719749736
0.02729685876
0.01918557835
0.03399804259
0.03461527108
0.1008996416
0.02004748416
0.01984640176
0.02070012265
0.0202355099
0.0192088749
0.08592654249
0.02146333799
0.03194717218
0.03883262121
0.05256914341
0.1285789187
0.03551556759
0.022833376
0.03836865173
0.0353456448
0.02148321072
0.02094044875
0.02242023587
0.021713348
0.1149515711
0.03690741849
0.03778834738
0.006780595819
0.03808327881
0.009425933665
0.01037830629
0.009423539511
0.03521159676
0.006957094078
0.02716850635
0.009984500494
0.0106006495
0.04783959036
0.04129682726
0.01889874417
0.01938311602
0.07297852441
0.06431893086
0.01803152917
0.01882980263
0.009693311243
0.02630749821
0.07869201585
0.0696985014
0.01149091973
0.01110740778
0.01648053643
0.01077428593
0.01140058837
0.02397454404
0.02895734804
0.007271699852
0.01321452738
0.01051062546
0.01193528572
0.01960680924
0.05942519378
0.1274044104
0.1665315386
0.009596618891
0.009578294275
0.1901437141
0.2447525607
0.2039024024
0.006623222398
0.05052646872
0.01681674772
0.0249947924
0.1394243583
0.1450891152
0.1623458045
0.005225134725
0.008396521551
0.006116412235
0.005049689625
0.006286879546
0.004961780049
0.06388821908
0.04040884343
0.02490749033
0.02720267593
0.0238978857
0.02748364494
0.2439555469
0.4500017724
0.4334192985
0.4722080259
0.4555290933
0.2491909577
0.06189567318
0.05356517836
0.01511278367
0.09019999937
0.1049110175
0.1363636192
0.1191472661
0.1130063755
0.04525881785
0.02902630312
0.03473868093
0.0339151379
0.4278940614
0.411342495
0.2081602986
0.1626161422
0.06760674193
0.07188822906
0.07533889006
0.0875165724
0.1801043093
0.05597620883
0.1283716556
0.1212812347
0.01094468822
0.01132896067
0.01873390344
0.01863630471
0.01891251868
0.03073366897
0.01248010811
0.009884723353
0.01021663832
0.03637501877
0.07402429486
0.06426026318
0.01746079232
0.02935650805
0.01822457162
0.01838202101
0.01783108679
0.01420709788
0.0099269339
0.01328391328
0.0119382252
0.009912005545
0.03114044082
0.03939502467
0.08019340457
0.04145517605
0.03968332751
0.03621549009
0.026715104
0.06151868568
0.01998805003
0.02809567212
0.01036091344
0.007165950476
0.007242021132
0.01063703458
0.01021093123
0.02594865212
0.0163855508
0.01098583351
0.02119413997
0.02018965243
0.01867350899
0.02167327698
0.02634069023
0.02244714833
0.01225553211
0.01332879574
0.007796312394
0.009567770087
0.01270781886
0.08056850379
0.07401350369
0.03024403771
0.009871444176
0.01846395393
0.01654886744
0.01122616985
0.01831350054
0.01553004443
0.05179978044
0.03896584349
0.04459005865
0.07295676829
0.106876214
0.1048475905
0.04241235733
0.07182243314
0.06738027492
0.1034147266
0.1006962797
0.0689808965
0.03898854292
0.04723937642
0.0395917774
0.03029809134
0.03198381668
0.02596163693
0.05129592342
0.04949896978
0.05847130197
0.02242925688
0.03296053044
0.03123844514
0.05309691041
0.05265865665
0.02994395807
0.02736050054
0.02691946337
0.03016417952
0.02941515427
0.03516739814
0.0606526479
0.0598734765
0.06536934222
0.06437064133
0.0385328223
0.03107968847
0.05459209312
0.05397310579
0.05907572513
0.05829693203
0.03340265089
0.064634766
0.06679866583
0.1604583968
0.1462326478
0.06187351798
0.06395269007
0.0956358068
0.09948995356
0.1995117015
0.02525251386
0.02511440222
0.02666622795
0.02644134488
0.01911228601
0.02482609434
0.02472993147
0.1825225436
0.0900961848
0.09420331468
0.01030591094
0.01042378923
0.01587020648
0.01507722707
0.009989355683
0.01034520567
0.009984520061
0.08135587884
0.03516354441
0.04313956698
0.1376228273
0.1307389644
0.05925696009
0.06919849006
0.1459676167
0.1396873881
0.0300783416
0.03014753583
0.04665473847
0.04491721467
0.02969047254
0.02965476698
0.009765916069
0.02092012583
0.03304126701
0.03293274276
0.00804316473
0.01342747698
0.0263779823
0.01192025235
0.01188010901
0.01737185797
0.01761240146
0.02854351367
0.01066749678
0.007551630255
0.01053828861
0.01067398589
0.02664735625
0.01690333378
0.01747681463
0.01700267749
0.04728041295
0.03975930724
0.009760621196
0.009834094185
0.0112908856
0.01197483856
0.02077583891
0.006930064121
0.00462479491
0.008522802874
0.01388894398
0.009493023626
0.01051355288
0.009440875387
0.009744289927
0.01226177162
0.01111653712
0.007357078113
0.005457885791
0.01822396314
0.01880300052
0.01755296615
0.01778141494
0.0206547155
0.03110554758
0.03153309092
0.03053294064
0.03092537282
0.02046311802
0.01326939222
0.02373857589
0.02368094744
0.02452216118
0.02389813325
0.01300247904
0.02283208061
0.03468291679
0.03832844566
0.03188560439
0.03286162893
0.02214835339
0.01407922695
0.02367930761
0.02364665972
0.0236318335
0.02366677698
0.01383964259
0.01686033315
0.01726747758
0.01630042605
0.0170431667
0.03513008122
0.05456179429
0.05406962538
0.02034886428
0.03370488192
0.03346182327
0.03498288169
0.0340496066
0.02054040315
0.01009241108
0.009862389851
0.01030139321
0.01006640992
0.01891642089
0.01873574818
0.01931220931
0.0191092394
0.01475881186
0.0326955073
0.01948735737
0.0203757397
0.01966600117
0.03299758901
0.03278148595
0.03331539022
0.03313695243
0.01979135787
0.02017666316
0.01960343265
0.02953315067
0.02111523115
0.0151303108
0.006771697721
0.009881552938
0.01128665531
0.006644019323
0.03949329063
0.0271349865
0.003065518589
0.02739439049
0.04204456347
0.04165687706
0.01723082061
0.01052987166
0.007683967093
0.00427037977
0.0111909279
0.01122948998
0.01801966652
0.01816373895
0.02927473164
0.01824293172
0.009019979232
0.007971203075
0.01520050885
0.004043053946
0.009474201432
0.0073555507
0.005084615601
0.006397231017
0.009662924328
0.008587156858
0.009639849257
0.01127250237
0.01026388796
0.04120358403
0.03095322636
0.008939902783
0.01108574308
0.01253803307
0.01862120438
0.02098275666
0.01345104316
0.01668457077
0.01439488504
0.009637384462
0.006658746829
0.009720980045
0.01026252589
0.006907566058
0.01017812943
0.01018408341
0.01310408034
0.01069814827
0.01074899097
0.0103499293
0.01011755227
0.01190934283
0.0113613675
0.01080739857
0.01043545453
0.01083347534
0.01347326545
0.0123905704
0.0276511814
0.02190373287
0.02473916883
0.02736625762
0.03085997964
0.02732867133
0.02533986922
0.02717753917
0.017461983
0.02761520467
0.02929415092
0.02012165737
0.02774708519
0.01853820094
0.01919070745
0.02994975551
0.03034766949
0.02929184393
0.02981450093
0.01895366261
0.02010388906
0.03527468537
0.03472817353
0.01197315191
0.0120751089
0.01383997823
0.01077287534
0.01114644384
0.01158584704
0.0122742673
0.01179785191
0.01552217222
0.02933162307
0.02622751292
0.03383918246
0.03214758764
0.01816664953
0.009469402992
0.01090587835
0.01965343156
0.007298236439
0.009451521691
0.009453598519
0.01392904526
0.009555118604
0.009809300027
0.02432414136
0.02158346732
0.01149395139
0.04953225945
0.04533194439
0.09112240339
0.08029863106
0.04461219829
0.06862762683
0.0994296304
0.09469289248
0.03731273863
0.0339768818
0.03401214585
0.02347669064
0.02883361242
0.04949709807
0.05016864511
0.04196660991
0.03285366452
0.04417551691
0.04230625935
0.04239698035
0.04378989918
0.03106283012
0.02179609252
0.02323335076
0.0347723899
0.02480351554
0.02369782098
0.0262609622
0.02505479575
0.03410322698
0.02438487633
0.02498704462
0.02012327253
0.02598730617
0.04796839698
0.04819583374
0.02981054726
0.02940826129
0.05146013083
0.05145156413
0.02810214941
0.02767677174
0.02893244894
0.02847555532
0.06210886435
0.06134765854
0.0356313155
0.03777064287
0.06360297134
0.06285926188
0.0560712513
0.0553988255
0.03159286028
0.03283736435
0.05750268086
0.05678421766
0.01477250699
0.02366237542
0.02365532327
0.02369176712
0.02369572094
0.01468405144
0.01548921585
0.02186708783
0.01905255455
0.02350427062
0.02305579029
0.01538806405
0.041676166
0.02393846024
0.0242115967
0.02352419156
0.02372554879
0.04141196711
0.0431137086
0.02514478432
0.02561063688
0.02447325435
0.02478517581
0.04260017951
0.03921832085
0.02231547731
0.02255671207
0.02195266744
0.02218344094
0.03897799356
0.04056137303
0.02313806111
0.02332460716
0.02271661765
0.02295309688
0.04027462788
0.02570484478
0.02552345998
0.06988546474
0.04537874367
0.04573362594
0.04459852104
0.04490284009
0.06903379113
0.02616755925
0.02596017424
0.02360986898
0.02487553026
0.05983220849
0.04057883477
0.04024682715
0.02648921275
0.02788423727
0.05287244974
0.06683092077
0.0438209751
0.04403434976
0.04303021352
0.04296998384
0.06539744277
0.0243874258
0.02444403581
0.01024644464
0.01063818556
0.009841821913
0.01417548668
0.01210251299
0.01802041343
0.01104119825
0.01088646534
0.01112919988
0.0111059522
0.01769869891
0.02439987562
0.01277950858
0.01502831231
0.01116541428
0.01073637058
0.02110927985
0.03394074764
0.05186410811
0.05154235557
0.05333260891
0.052957858
0.03451441232
0.02000668897
0.01977289782
0.02057970346
0.02030405225
0.02034897855
0.01595760032
0.02254566358
0.04197659189
0.0372652603
0.04931048856
0.0474811169
0.03201097578
0.02469272717
0.0173355601
0.02218387905
0.02352091444
0.03765927103
0.02161214579
0.02189515425
0.02098380105
0.02167733
0.03772612086
0.02131796054
0.02108583079
0.02215867207
0.02190753675
0.009694420651
0.01367083401
0.01291033086
0.01844154934
0.01528912414
0.009564598985
0.009411771939
0.009706297284
0.01194881172
0.01067869604
0.006948341619
0.0101867665
0.01125673922
0.01102592098
0.01390087956
0.01228224292
0.009961110327
0.01831993274
0.01828431463
0.01854793667
0.01849377051
0.0281622833
0.02807216011
0.04295479772
0.01755763078
0.0185453485
0.0180633419
0.01812801072
0.01910977988
0.03222192833
0.03188076429
0.03263333241
0.03236185299
0.01919090567
0.01856218262
0.03119683473
0.02945489987
0.03174830653
0.03120478811
0.01855328011
0.01000792078
0.04004183916
0.0394202845
0.02617393197
0.01148899543
0.009981186286
0.01014873226
0.007386778652
0.01030710642
0.01110540497
0.017051783
0.01101320662
0.01171748553
0.01138986346
0.02866798393
0.0177159651
0.01791333555
0.01037573319
0.01062922183
0.01056148912
0.01081468072
0.01101019646
0.007617149822
0.007571272928
0.01138173311
0.01056715354
0.01090720075
0.01438657037
0.01770020154
0.02674385154
1.154891408
1.155204094
1.155535092
1.155341111
1.155894454
1.155882203
1.156118789
1.156948278
1.156427491
1.157251166
1.123564022
1.157117925
1.090466575
0.9995000215
1.157748877
0.9854296873
0.9695540463
1.141913252
0.9749076767
1.018331854
1.157806187
1.038087903
1.146800351
1.157173268
1.158043111
1.157087651
1.156517212
1.156814159
1.156065276
1.155979993
1.154474408
1.155139851
1.155139408
1.155441232
1.156624069
1.155981215
1.157154517
0.9984677645
1.15727414
0.9377222021
0.7994688867
1.045125759
0.7675336407
0.7051013391
0.9285234315
0.6952039275