/*--------------------------------*- C++ -*----------------------------------*\
| =========                 |                                                 |
| \\      /  F ield         | OpenFOAM: The Open Source CFD Toolbox           |
|  \\    /   O peration     | Version:  v1912                                 |
|   \\  /    A nd           | Website:  www.openfoam.com                      |
|    \\/     M anipulation  |                                                 |
\*---------------------------------------------------------------------------*/
FoamFile
{
    version     2.0;
    format      ascii;
    class       volScalarField;
    location    "1.31";
    object      omega;
}
// * * * * * * * * * * * * * * * * * * * * * * * * * * * * * * * * * * * * * //

dimensions      [0 0 -1 0 0 0 0];


internalField   nonuniform List<scalar> 
12556
(
31.9309197
31.93175792
31.93265185
31.93344526
31.9667222
31.96724297
31.96767313
31.96851754
31.97020245
31.97313041
31.97749268
31.98259249
31.98614894
31.98662157
31.98393665
31.9792523
31.97478095
31.97096541
31.96927229
31.96776936
31.93417128
31.93306702
31.93201553
31.93099013
31.79435604
31.79694291
31.79959205
31.8018749
31.83568611
31.83748101
31.83980156
31.85925724
31.86690025
31.88037728
31.90067521
31.92465983
31.94340759
31.94728554
31.93603689
31.91448177
31.89273867
31.87589484
31.84914995
31.84154826
31.80481774
31.80130394
31.79812642
31.7952513
31.65957842
31.66404075
31.66851483
31.67202768
31.70637277
31.70987922
31.71519673
31.7393052
31.7575197
31.78907792
31.83575368
31.88816684
31.92902878
31.93682633
31.91245163
31.86626591
31.81820437
31.77960726
31.73684585
31.72023171
31.67856062
31.67260006
31.66712364
31.66222931
31.52617419
31.53214836
31.538123
31.54298079
31.57831454
31.5845711
31.59552714
31.62920114
31.66692572
31.73325598
31.82983911
31.94029396
32.01871341
32.02745933
31.96492992
31.87564801
31.78307659
31.7083142
31.63942021
31.60778218
31.55704871
31.54693701
31.53872246
31.53187507
31.39499372
31.40256171
31.41007119
31.41636918
31.45282746
31.46286827
31.48216031
31.53140675
31.60689446
31.73957251
31.96071977
32.25231939
32.44808502
32.43066115
32.22839553
32.00944896
31.82010875
31.67834435
31.56552026
31.5073059
31.44048737
31.42477753
31.41305812
31.40367472
31.26486075
31.27377643
31.28273085
31.29088087
31.33014158
31.34641255
31.38017343
31.45306479
31.58372299
31.85823562
32.41415823
33.42875875
34.25066037
33.94170184
33.04619887
32.41298645
31.99030854
31.70837484
31.51912957
31.42188079
31.33078306
31.3050224
31.28869449
31.27667202
31.13685724
31.14734739
31.15814169
31.16858008
31.21037582
31.23495659
31.28855071
31.39525041
31.6113996
32.14917897
33.53839866
38.15094165
44.20622226
41.17870336
35.3472128
33.33242217
32.36765621
31.82974329
31.50452733
31.35397015
31.22751396
31.18866704
31.1661183
31.15089857
31.01045362
31.02232584
31.03493506
31.04819786
31.09452209
31.12944962
31.20766231
31.3511305
31.68500077
32.58221024
35.36641004
49.82124601
65.29849592
40.78569501
35.0290406
33.01136443
32.05964476
31.52319148
31.30104886
31.13139431
31.07503896
31.04449839
31.02566903
30.88704118
30.90075097
30.91591432
30.93279479
30.98356404
31.03056317
31.13588548
31.31741479
31.78108208
33.01554903
36.82244892
58.32935409
119.253637
48.93983535
37.42071506
33.89104293
32.38220735
31.57854956
31.2610577
31.04255732
30.96613235
30.92593087
30.90287981
30.76615906
30.78146209
30.79908022
30.82003435
30.8778688
30.93774187
31.07028952
31.29033884
31.87379584
33.35621248
37.67566789
65.0226476
148.8077923
56.13646082
39.9111419
34.86949212
32.75618942
31.65723303
31.23181157
30.96084715
30.86217573
30.81102825
30.78336795
30.64993269
30.66733248
30.68804316
30.71422068
30.77667646
30.85028882
31.0087279
31.26745727
31.95840873
33.63451564
38.40549198
73.36027753
149.4090619
60.3556366
41.95899418
35.76845729
33.1232253
31.7413611
31.21029207
30.88629724
30.7657067
30.70302443
30.67018993
30.53665548
30.55571722
30.57913109
30.61057518
30.67955779
30.76709949
30.94941909
31.24735995
32.03579572
33.8922025
39.27882134
83.92418188
138.6802694
61.95729568
43.31999152
36.46615973
33.43018969
31.81431999
31.1918688
30.81810124
30.67537568
30.60139388
30.56329469
30.42864484
30.44988685
30.47691454
30.51416225
30.58549355
30.68679824
30.89062663
31.22791174
32.10760197
34.1528118
40.47409118
94.11637102
605.8151458
119.9172733
62.01898989
44.02929342
36.93312814
33.64677605
31.8638976
31.17083761
30.75389939
30.59246508
30.50742646
30.46411012
30.32297743
30.34612723
30.37649737
30.41856741
30.4973794
30.61659274
30.84640195
31.22095145
32.20744033
34.51729831
42.4704045
143.3812005
381.0439445
111.7732304
61.37720588
44.33456641
37.16800685
33.76249799
31.8868214
31.14333554
30.68934306
30.51304553
30.41814249
30.37006404
30.22136197
30.24645599
30.27991488
30.32592989
30.408885
30.54009088
30.78639209
31.19085079
32.23131793
34.72301888
44.65825784
488.1725863
272.8152273
104.2568133
60.25339193
44.26170069
37.22865706
33.79292734
31.87740699
31.10628427
30.62511954
30.43683108
30.3327537
30.28033315
30.11993532
30.14683119
30.18321541
30.23346814
30.32129421
30.46198024
30.72229892
31.14820308
32.21606127
34.81924335
46.87288003
700.1778818
242.101607
99.98312765
59.54167783
44.0961782
37.14904563
33.75106433
31.84157743
31.05808344
30.55557712
30.35797979
30.24740941
30.19128991
30.0211674
30.04990978
30.08885136
30.14214118
30.23326785
30.38111482
30.65286804
31.09707605
32.1753221
34.84329345
48.10667885
633.472018
233.9326036
98.39711722
59.12369181
43.8813183
37.00553451
33.67420355
31.7836287
30.99903157
30.48262305
30.27869153
30.16191645
30.10247541
29.92019487
29.95054918
29.99192993
30.04869886
30.14393394
30.29677818
30.57709345
31.03955823
32.13026788
34.86042839
48.98232375
529.4349312
232.1187111
97.97526481
58.67325399
43.55412651
36.82266009
33.57271388
31.7074125
30.92623223
30.40101905
30.19248442
30.07221835
30.01009538
29.82105974
29.85296583
29.89644334
29.95537413
30.05259575
30.20870846
30.49507401
30.97189077
32.093132
34.96892509
50.61721315
471.2793096
225.8218802
96.90857904
57.88640353
43.16822792
36.63902031
33.45780588
31.61990464
30.84383038
30.31425108
30.10304232
29.98002771
29.91624472
29.71786451
29.7509409
29.79642928
29.85835138
29.95898084
30.11704461
30.40750598
30.89543644
32.04538664
35.13948599
53.8145746
459.7076273
213.2162664
94.7486212
57.1635458
42.83954315
36.46586915
33.33842208
31.52526588
30.75385027
30.22014976
30.0065004
29.88143043
29.81660114
29.61690269
29.65094855
29.69797507
29.76133744
29.86281663
30.02208097
30.31526717
30.81204952
31.98986736
35.32288865
57.40691866
440.66637
202.3878336
92.9359427
56.70109779
42.57340177
36.30907143
33.22055232
31.4264973
30.65819528
30.12269698
29.90786215
29.78135071
29.71583815
29.51051788
29.54507734
29.59352521
29.65945539
29.76414393
29.92413672
30.21924923
30.72345349
31.93020205
35.53111965
60.61357914
415.3159372
193.5348238
91.43216848
56.4185553
42.38135725
36.17335325
33.10838858
31.32625695
30.55868273
30.01911172
29.80226422
29.67449396
29.60869371
29.40797175
29.44282217
29.49207377
29.55850355
29.66290671
29.8235125
30.1201879
30.63120843
31.8699451
35.80101153
63.04946394
388.4127521
186.0655657
90.15479885
56.23250086
42.26724009
36.06452912
33.00557193
31.22703687
30.4569877
29.91498641
29.69714233
29.56841075
29.50244941
29.29853916
29.33330585
29.38335779
29.45189616
29.55952299
29.7205811
30.01878968
30.53683495
31.81373778
36.17707845
64.82740558
362.159099
179.5936399
89.05533074
56.10518883
42.21994367
35.98729146
32.9153878
31.13099109
30.35464628
29.80578728
29.5851763
29.455236
29.3892694
29.19561813
29.23016678
29.28037139
29.34840395
29.45421987
29.61587132
29.9159102
30.44208519
31.76838397
36.65166861
66.11856163
337.5209723
173.9189478
88.11763162
56.03127807
42.22743897
35.9430624
32.84024489
31.03982203
30.25288452
29.69918445
29.47702937
29.34603549
29.28002949
29.0835328
29.11762334
29.16820556
29.23819939
29.34776938
29.51001171
29.81253374
30.34889149
31.74134385
37.16550608
67.02490999
314.7822282
168.9547178
87.33612837
56.01389843
42.27978231
35.93167743
32.78135403
30.95464978
30.15274033
29.58745721
29.36106978
29.22846719
29.16241666
28.98190356
29.01550107
29.06582692
29.13450062
29.24039913
29.40367781
29.70967173
30.25914876
31.73842611
37.66513488
67.6074328
293.9375585
164.6466528
86.70857311
56.05425263
42.37367627
35.94851545
32.73867413
30.87590193
30.05481376
29.48184023
29.25315652
29.11916267
29.05295636
28.86729529
28.90025964
28.95076631
29.02169091
29.13302019
29.29749039
29.60820758
30.17447713
31.76060345
38.12454396
67.9269691
274.9621855
160.9370291
86.23229116
56.15869229
42.50708333
35.99291382
32.7106591
30.80316011
29.95942254
29.36913734
29.13454903
28.99845346
28.93200955
28.7689215
28.8012971
28.85137685
28.92039044
29.02555823
29.19199594
29.50885242
30.09603146
31.80433022
38.53260765
68.01971232
257.7364965
157.772088
85.90169881
56.32943719
42.67714129
36.05957749
32.69447237
30.73522604
29.86623433
29.26704622
29.02978609
28.89200924
28.82523408
28.65129908
28.68299671
28.73320906
28.80507057
28.91906998
29.08765377
29.41211599
30.02432261
31.86220814
38.88159592
67.90720618
241.9491887
155.0668074
85.71240041
56.56268256
42.87716485
36.14192031
32.68607737
30.67040122
29.77490623
29.15294232
28.90844418
28.76822472
28.70102528
28.55857061
28.58970658
28.63952688
28.70916045
28.81302944
28.9848402
29.3183489
29.95920648
31.92618568
39.16540957
67.58015965
227.2052313
152.759568
85.64928666
56.84416207
43.09540821
36.23162519
32.68094209
30.60687984
29.68457421
29.05647813
28.80961166
28.66762253
28.59997979
28.43655569
28.46704591
28.51700961
28.59004129
28.70885008
28.88387928
29.22778208
29.90010864
31.98942256
39.38170112
67.0570109
213.3905548
150.7657034
85.66900784
57.15078004
43.31678582
36.31986375
32.67468681
30.54306514
29.5949441
28.93843759
28.68366708
28.53913276
28.47093825
28.35259761
28.3826351
28.43241412
28.50350952
28.60538554
28.78506184
29.14058833
29.84626785
32.04747925
39.53408945
66.36860561
200.4910303
148.9721713
85.73481112
57.45578537
43.52583326
36.3986725
32.6637498
30.47781616
29.50517764
28.8505643
28.59402029
28.44782635
28.37917764
28.22357187
28.25302414
28.30295192
28.37711086
28.5049404
28.68880972
29.05702711
29.79704393
32.0985766
39.63222808
65.56661987
188.5537028
147.2977251
85.79820617
57.73176962
43.7079451
36.46155259
32.6457421
30.41063072
29.41577427
28.72356111
28.45952549
28.31080397
28.24150594
28.15252469
28.1816959
28.23173172
28.30595088
28.40584822
28.59585423
28.97783879
29.75220385
32.14361235
39.69056503
64.71243008
177.6463736
145.6742496
85.80402825
57.94685476
43.84871548
36.50343896
32.61915127
30.34176583
29.32653476
28.65004622
28.38371031
28.23363113
28.16395597
27.9893338
28.01794076
28.06839746
28.14592889
28.31302145
28.50782288
28.90518578
29.7124268
32.18637844
39.73089375
63.89672259
167.962932
143.9292764
85.68483867
58.05944793
43.93392176
36.52038775
32.5835535
30.27249496
29.24016238
28.48533659
28.21081268
28.05767634
27.98715045
57.7783243
139.0182108
72.88810876
64.03862084
177.5417995
144.2611317
72.26801031
176.3551757
179.0613956
82.62311935
160.152946
174.4228394
93.03537435
740.8914795
633.3123196
144.4507147
157.7715723
122.5881377
469.6288461
726.2911451
397.2081729
140.5643317
142.9176121
47.98465113
43.34966818
67.27320981
41.07180106
379.2550261
140.0469184
113.1518863
52.835956
43.91967328
37.49591998
55.08676533
51.52848015
1237.532683
868.5689588
147.1114573
63.58658688
55.83297536
38.24225638
61.12404645
55.74823825
68.1142492
198.9398518
174.5558279
737.5877263
988.9887458
150.3585058
69.5521682
65.5456629
39.10095624
68.33481832
61.93202956
76.90919416
305.074276
235.9906516
433.9902045
563.8801348
40.22009333
78.23834435
69.29378126
86.11217342
494.8857554
384.7835765
1634.540139
284.9398003
331.7119864
42.13028323
99.37740481
79.77895858
102.7946647
1149.19768
734.2897224
150.6756682
360.232995
462.561553
134.0098941
162.8217004
86.93354799
129.2458774
844.1280029
398.1481726
109.7585449
326.027625
602.0110772
171.5446865
151.730849
60.98488098
201.4276815
218.9564479
168.3155634
198.0559534
998.8655017
1239.717519
163.2630492
881.2636589
783.4560464
621.8126726
877.6488904
161.0115618
232.4470871
202.9587499
69.13964336
264.9350886
312.1447718
221.2260789
261.5211128
587.5104065
722.6680588
179.7111492
560.6186924
448.3688191
776.2488497
579.2081228
180.2527454
380.0783917
308.6883521
78.19863486
384.1497904
493.7848949
315.2740464
379.740693
341.4731919
419.1649608
722.3116796
505.4019443
86.52159564
2433.058677
702.8946108
1101.940206
499.5154287
684.9918405
2841.620994
262.598673
280.2175795
1443.406874
8555.47008
1160.913999
104.2555431
536.341468
1830.200085
7690.484349
1112.03636
1796.183129
550.7673736
36.54100178
51.08124205
45.03164745
54.40486431
106.8499429
76.56853452
2096.33972
364.5544592
60.39441626
149.3295765
129.4517837
4714.66011
140.4152582
71.35673876
70.30246779
5126.399602
620.9141173
689.2436267
482.1746049
233.6806588
253.8702837
125.9589054
109.5583565
55.44156305
1238.225113
183.6338989
434.8270667
118.5850736
290.0082335
101.6453951
704.6588597
894.4729842
166.3000784
346.6289487
295.5568633
434.3870658
356.0616645
168.6283771
1015.603175
3940.608475
641.9741634
65.84149163
54.49775059
80.4344947
123.752127
63.87424356
67.47798666
2792.688501
268.5078992
1986.317466
282.922741
1469.697842
242.5597923
1008.034322
994.232462
840.0223853
857.4551656
1674.271667
3877.662885
483.1589356
2000.022246
1111.610875
4385.711115
2369.398059
502.1030232
424.8310474
153.4414881
161.4671923
522.1389789
592.0837301
4525.579965
800.5372763
208.5001123
223.1577405
191.2080886
203.0451807
796.8477837
1049.324039
1237.473106
144.7735341
752.910321
579.8550634
1233.997387
755.9444829
148.1677765
107.706471
305.4872654
150.1488602
501.9496034
332.097255
114.5936571
458.8559475
739.1225921
598.1976461
568.4616954
204.416045
1440.388863
205.0716106
181.2530149
1350.840289
1258.328381
1429.453434
1362.686172
185.3213155
1049.770382
1059.125325
823.1602423
295.7269601
288.0106273
298.0145125
297.0140277
818.1892707
739.883082
263.094618
241.7673928
284.2905925
269.3583452
754.5568915
286.4025391
289.4517193
238.3639835
240.8486838
621.2336416
4559.722935
632.2758148
417.5049253
424.8389079
346.3800469
350.8209867
1051.446187
777.0329125
381.4603029
945.7711488
1554.510069
564.1557966
176.7112132
187.1995915
164.3681174
173.476906
554.4267276
1110.384568
755.0403429
769.4043389
541.3104668
546.5403481
5368.820278
863.0310197
450.7301046
501.6326188
229.5559383
242.7505242
1452.948676
2943.582891
1202.223037
2087.609622
1156.32873
6134.574448
2364.233314
5211.710726
1152.433357
612.7426207
3527.917832
1512.987974
2479.980931
1581.200186
2146.016938
44.07924809
110.0658043
102.6197015
162.9646707
4191.832734
7773.322107
284.9338441
128.5221514
137.6771493
856.1028145
2507.797467
3662.114954
398.8652896
434.9178884
811.8498912
215.4557769
227.1881501
469.7609931
122.5334672
88.70879221
169.1858698
298.5206624
110.8609936
127.3227481
1163.602842
2730.703452
2864.203328
931.16469
782.6185461
2146.956726
1586.88828
3583.874642
3564.195511
948.203462
277.0434527
121.7945008
126.7588611
115.6936468
120.2153006
271.1271736
144.1127632
151.0725787
419.6931045
1053.78106
398.3366065
419.6461483
6417.225361
3033.186793
430.9056905
732.5806247
2459.474992
2716.377857
428.4694465
196.1517229
166.0758171
233.1695323
206.3806788
446.8071138
1022.805213
3504.204542
3585.904434
1184.384326
218.9863217
110.1172921
114.2678866
675.8402832
659.7841324
302.0639454
1503.452307
1388.015486
684.2350545
509.5253779
270.9860561
280.2812931
701.9317694
293.3381179
297.4680685
283.5328722
291.0394017
690.3089188
340.0369328
135.8555867
141.9781356
128.4861034
133.9296385
335.3139249
397.4145143
1021.731345
1009.380119
1669.232743
1616.325297
470.6745012
327.2749727
717.4580305
678.5708729
1003.971546
994.5738712
367.1614801
369.8756191
749.6345495
606.1514796
5623.578606
1636.529892
729.3175161
921.5253903
516.8345915
1707.181686
1677.539427
1719.655664
594.2367589
4406.520773
8890.422355
313.918821
368.8039537
427.7653959
447.4523097
1174.023429
1378.430116
898.7839705
497.5873936
1853.756733
7757.133968
1300.381821
1138.230607
16167.84407
1125.502468
1705.565107
1243.276478
1483.257072
1117.763871
4667.227555
4745.529479
1084.428672
1408.98882
5341.10408
1312.97929
1246.766564
280.7679883
1014.837364
409.1815086
1014.212687
305.2789455
3588.858457
2377.32878
792.7518873
4325.961459
5088.346071
4117.651951
2718.052823
863.9515941
4296.669156
5481.84955
2678.859669
4057.88252
5843.564883
1520.826138
2314.177024
1076.387472
1356.772224
5236.737568
2852.488732
847.1054014
533.5834045
1361.358214
929.5554932
483.7464913
310.9335151
833.5765142
3020.388657
3833.265285
1107.988825
946.3063985
2898.582027
3025.996597
2344.371399
2227.798804
800.08652
3950.461435
3861.911986
2808.059106
3849.132074
3820.662139
924.7818273
3702.285128
2410.623072
2494.713928
2842.112768
1510.986996
714.734203
770.3999835
3200.207317
895.0527289
1010.257816
793.1353446
861.9841521
2982.478983
3138.246323
849.9520254
1000.956222
368.2682689
390.9647911
953.6607899
764.9455678
346.2817597
362.556492
1166.656373
1184.367606
731.9923258
248.2408851
271.452692
222.2200208
241.6592196
723.3132083
815.5610217
312.593069
345.6742374
279.6924622
304.1295668
820.5575457
437.7855685
199.3401028
216.6438872
645.6824523
678.9568381
1776.584339
1857.303656
695.1006058
2603.275049
2623.046338
3303.24722
1811.105058
1510.843055
2538.137904
1792.377945
484.8565308
1280.684914
1698.123171
1495.69777
463.545541
529.7553398
436.1661085
452.0701205
1452.126356
584.6543669
598.4272504
551.9828513
579.7687135
1317.074056
377.793931
392.7078179
354.3209393
372.5945841
1303.46794
1401.538675
416.8084608
430.8074837
397.6070529
412.0088083
1395.081091
3363.60775
3451.384436
1030.017752
1139.416195
3467.888823
3336.60967
941.1977383
948.9313552
910.1495158
938.6945394
966.247284
982.367195
951.6390586
962.7854791
620.1256128
633.3180185
602.7552677
615.5852065
679.7785435
863.392187
639.5689997
654.9438601
1312.681529
1528.81007
1050.89857
1222.841218
4805.00512
2403.864131
2618.124656
1630.429033
2300.927643
1038.753608
1028.98384
402.2168319
1694.80454
1701.084746
1655.58798
1683.242798
1752.481682
458.8247637
1576.502024
1097.983565
958.3524408
739.9497663
331.6815762
1038.308318
1541.686722
983.6428051
1048.975695
1612.46253
1641.212673
1564.189087
1600.339286
363.0704131
991.5172157
978.8052274
5159.532351
1120.047079
5002.606302
4256.234663
4983.135142
1197.598665
5866.903966
1454.139714
5546.567856
4683.247614
737.2541675
828.7600911
1746.600531
1713.12391
522.2441633
576.6797973
1820.400808
1750.089114
5317.391452
1220.860935
461.2924405
510.9054695
5639.632233
6449.397258
1939.497559
7024.121215
4932.428654
1572.639229
1127.738714
6122.506445
3285.631027
6782.646513
3762.906465
1641.766477
61.0655702
41.43740818
36.18215769
5197.279786
5172.68112
131.176389
70.83184947
71.33763047
5421.306906
828.6237121
2382.984865
1582.24134
288.2845563
243.4277418
151.9204473
256.9730595
188.108496
364.248087
1302.339672
254.7556656
278.1306754
51.37080649
59.63370157
108.736448
332.0889961
615.3827969
890.5593647
187.6924978
100.1608327
103.7275717
95.67015767
99.01392331
184.258452
731.0028921
811.7591078
2665.345179
579.0252553
510.4751434
309.6773114
326.8307095
341.4430266
759.0515183
966.0617623
1231.105403
458.8542772
104.9589705
108.7963986
214.957566
274.2719126
618.8772161
590.2998637
567.0769728
498.2361476
251.7113016
636.0465552
307.1442737
322.0437355
4079.435834
3788.259616
2124.858588
1736.357438
1712.346636
1076.708339
3353.612769
5322.44177
4697.003685
1097.578956
645.6826576
712.3650994
1833.250021
1118.43967
1773.915994
1759.677129
1796.089511
2218.033571
4542.490634
3079.405491
3505.736256
5055.865654
1298.699407
1050.617396
628.5597931
1269.580393
155.3252738
124.3252884
209.9740174
766.4040093
2018.229084
1433.607401
5654.753682
6016.631314
6132.374245
4985.698749
5819.00545
85.87386784
106.5479572
244.0251697
2291.387726
1502.628665
1165.082878
2958.531005
2344.412447
1831.867823
3445.809488
3124.083431
5052.364479
4759.29116
3331.44805
649.8057657
698.2692547
1392.585751
4544.699588
2290.486804
2565.309892
3882.898704
2180.647447
2590.425739
1096.583562
1475.782731
1217.761455
744.6461738
499.1676535
507.3341599
1193.501741
717.4094994
759.5601286
512.7742951
524.6215024
772.55722
175.1318818
194.3777589
410.9276823
524.04353
947.4550343
672.6730271
1139.707819
1187.775617
740.892911
1817.708508
1296.77899
1352.540092
868.3752542
871.4702642
1446.361678
1473.283479
1489.226308
1387.373494
1411.820129
1337.50794
808.252406
813.730075
777.9930202
785.2552515
1275.323259
1421.063094
854.94828
860.0025123
819.5690624
825.4357916
1373.810884
637.2592012
623.8655191
277.3081643
298.9766982
655.3729649
641.5809682
465.0808025
451.7744211
230.8096988
1535.581089
1538.587701
1495.993262
1502.049205
1920.864181
1548.014779
1549.4142
248.8841665
486.3926712
470.4239137
4421.943616
4368.629297
2693.241755
2854.762151
4529.214361
4414.610207
4607.796807
671.5291388
1339.76693
1122.147983
289.8648233
302.492502
606.0341363
534.8712886
276.1267535
286.31929
1104.651956
1104.315803
751.4064805
772.2592294
1113.787092
1118.24116
5316.288498
1533.807945
992.1108026
978.4479729
12674.46908
2419.818668
1423.20973
4360.760549
3462.648587
1850.036096
1826.372741
1139.811084
5910.666352
6445.174463
6145.631434
4758.767322
1215.679898
1899.493304
1838.279023
2407.56201
873.9410804
1010.600565
5100.364246
5014.144722
3794.04142
3497.517116
1925.739687
1051.425539
1026.347519
1211.526749
2938.194232
5096.373323
4295.77703
5150.813784
4917.098014
3385.265094
169.9685723
231.4571466
690.5388483
2946.681284
2872.568905
3031.884998
3006.926244
2795.421204
1832.317299
1814.183657
1852.133195
1835.79175
2804.899074
3628.59929
2048.605283
2062.509521
1970.026234
2026.649194
3692.52369
2568.540545
1661.977083
1503.124258
1800.339927
1751.764496
2638.487807
3494.339406
2092.100884
2104.984345
2076.406689
2083.000635
3537.758575
3118.968494
3055.538268
3188.449518
3059.820627
1019.501575
694.8592499
698.950635
1653.029401
1034.765
1039.518583
1005.22426
1027.523235
1640.572032
5256.865403
5490.133543
4726.755078
5339.805926
1730.517271
1745.400387
1699.319454
1715.411033
2208.388212
1018.728968
1663.84384
1596.884099
1695.803053
1047.001139
1051.310306
1041.744265
1044.944901
1688.507595
1632.047972
1676.656884
1132.724838
1566.459656
2178.077771
5678.249409
5261.559941
3865.994469
5544.931047
861.1546428
1227.351146
12954.83713
1175.288692
797.5140742
801.6236542
1856.43711
7359.386639
7600.179312
9220.898891
5707.600106
5222.807559
1790.892542
1778.462896
1119.741266
1756.834589
1905.536713
2706.133062
1875.771134
2488.790527
1870.290591
736.2866834
2649.751183
1863.084415
4718.825596
4928.030356
5283.19465
3831.198237
4472.507547
1269.461933
1608.939679
846.8907083
435.1124421
602.3493946
962.5787843
1074.814152
630.6330058
935.4079656
1245.742097
4936.568738
5226.930032
4851.595635
4944.879273
5787.676674
5726.370477
5540.520686
3159.366977
4841.929185
4356.079952
5515.914672
5726.361161
3599.948411
3961.372125
4432.067516
5773.426538
4607.817808
3103.48559
3468.456544
2151.927769
1555.214272
2190.36154
1160.770085
1674.451097
2230.51669
2452.274981
2261.944418
3148.357114
1995.351963
1888.614295
2711.886091
1971.281483
2952.243265
2941.776166
1872.696122
1855.707364
1898.165211
1872.580458
2961.278613
2307.081403
1392.449136
1414.220258
3902.316789
3890.638082
3298.088536
4327.10095
4162.798657
3987.249304
3877.964361
4062.980122
3037.722299
1653.584008
1841.546038
1449.482937
1519.245513
2585.819653
4800.804831
3993.16578
2091.446019
5148.709205
4908.645017
4891.277054
3006.341477
4777.284687
4617.590114
1742.7851
1959.01915
3792.483771
1138.146935
1208.398975
573.2450995
646.1919504
1145.797828
772.4631401
529.5683365
553.4678948
1062.570548
1023.815244
605.5290737
1030.023075
1360.623607
684.9594754
1125.849029
1104.989996
1778.525122
1231.887355
1211.153593
1354.473805
1310.669382
1878.029753
2750.050675
2585.26176
1694.752221
2483.77601
2598.014309
2337.674461
2456.838625
1663.855415
2483.814392
2447.706101
3116.120215
2330.187547
934.6517548
927.1829955
1414.993021
1459.615819
884.9356546
882.076791
1450.605971
1464.394803
1426.022401
1439.988319
799.062708
804.0014344
1330.876378
1289.288287
789.9259628
794.3984284
842.6118661
847.9079112
1409.621362
1385.973385
831.6389983
837.155244
3416.033925
2135.127457
2146.429527
2111.341955
2121.561839
3411.304342
3336.076238
2352.506898
2708.771408
2170.866286
2223.021049
3341.14456
943.9310104
1536.754261
1525.194068
1553.026922
1545.399947
946.2930887
928.8086873
1486.855337
1467.966138
1514.463718
1501.684018
935.2795307
972.1330944
1604.032255
1592.796478
1620.70796
1609.782097
975.0805233
954.8626563
1567.990928
1561.22418
1585.982564
1575.660048
958.0697428
1522.629188
1527.302003
624.3746763
919.5102596
916.2413045
927.3646019
924.6692008
629.3960876
1509.989198
1515.415528
1597.779547
1510.377191
701.4633651
988.3083688
998.0619379
1430.88228
1375.224142
781.5501452
642.3176848
935.7163676
934.2167315
944.5161041
948.1059805
653.021602
1562.102692
1554.628287
4391.827885
4248.450807
4617.115353
3065.279751
3637.122676
2470.848926
4163.255572
4220.507205
4151.749549
4161.563522
2530.197998
1813.661596
3496.848536
2942.465692
4089.586546
4232.805763
2089.856914
1043.042557
720.7504422
722.7729973
706.0357799
708.8693463
1029.845489
1695.327053
1710.605794
1661.954758
1680.220301
1652.684336
2109.16736
1508.373261
860.6440622
952.7872525
750.3439798
773.9837333
1086.584533
1442.247066
2014.015594
1581.657486
1503.457268
996.6059341
1636.462097
1621.665549
1675.428833
1628.510935
992.7418265
1620.759607
1633.698712
1577.695277
1590.612059
4801.280206
3002.617215
3220.5193
2198.052877
2664.173449
4896.917453
4902.94153
4733.890482
3535.86966
4108.163891
5250.282252
5339.876016
3844.08412
4093.671949
2926.764547
3408.382151
5534.413257
1779.261082
1780.339676
1761.262558
1764.74232
1162.426956
1174.813954
803.3016918
1845.060887
1743.276434
1799.34519
1789.493444
1730.647832
1061.805598
1070.416223
1053.595961
1059.72
1726.514557
1770.391517
1085.215287
1145.276488
1072.285956
1088.139666
1773.752944
5100.703467
832.1512271
838.3088801
1225.161255
5460.202921
8526.504618
8906.710654
8250.561972
8314.825459
6097.163577
1887.321095
6041.822579
4188.636277
4589.50166
1137.087236
1816.857587
1799.451456
6084.478673
6676.804268
6412.443886
5181.31617
5671.034057
7074.949094
6696.182863
4179.281052
6360.157958
5433.382819
2255.128905
1808.908348
1204.027236
31.76857478
31.77902924
31.86426875
31.78340911
31.80213491
31.87590992
31.80934273
31.8379257
31.89436844
31.84777266
31.88194191
31.91792218
31.89122314
31.92018801
31.93921524
31.92666063
31.93473229
31.94784989
31.93411591
31.9195151
31.94076061
31.91214905
31.88444337
31.92085999
31.87476567
31.84306506
31.89845686
31.83399544
31.80826852
31.87991312
31.65569345
31.67748285
31.75207523
31.68721463
31.72663765
31.78012317
31.74282323
31.80145033
31.8234649
31.82352087
31.89142862
31.87512313
31.91143242
31.96397466
31.92195341
31.9759059
31.99129593
31.93785874
31.98303617
31.95684337
31.92068412
31.94093137
31.88512432
31.8771717
31.86607126
31.80537183
31.8292318
31.78673368
31.7372328
31.78732441
31.55486336
31.59874157
31.65521235
31.61859749
31.69717638
31.71397936
31.73055262
31.8568685
31.80406713
31.9072792
32.07788902
31.9108993
32.11541149
32.23825146
32.00710891
32.26660131
32.29497984
32.02531752
32.25364741
32.17958977
31.98232869
32.13560168
32.00642867
31.89854573
31.96233814
31.83807972
31.80648347
31.80092622
31.7079767
31.72473852
31.47057725
31.54845965
31.58333025
31.58357517
31.74041396
31.70005696
31.81444743
32.12207186
31.89716132
32.2553746
32.78627703
32.16027531
32.91037775
33.38312515
32.42427713
33.48430218
33.47932141
32.42541995
33.26913182
32.91276571
32.27505096
32.76262563
32.39455057
32.06373148
32.2858661
32.00872599
31.86358661
31.93162786
31.74608731
31.71004906
31.40811071
31.53558949
31.5416164
31.59976328
31.90615609
31.76890517
32.05990041
32.79255196
32.24007138
33.17096243
35.22888433
33.06523129
36.0460732
41.40656159
34.16479444
41.4387268
39.34464282
34.01519495
37.55914336
35.16538041
33.22617427
34.55836065
33.34230413
32.55013485
33.05623581
32.4124035
32.08055501
32.25094323
31.88409441
31.76894867
31.36135672
31.55896107
31.53805782
31.66509561
32.18911566
31.96635028
32.46982256
33.97533736
33.04659551
34.89655685
43.7232143
36.14772992
41.14804112
47.17417289
39.81856172
58.20301587
56.30571601
44.07671116
46.38207781
41.300788
38.97629467
39.07244851
35.27362259
33.69602324
34.55859381
33.13971231
32.55740263
32.82321417
32.15143858
31.93730975
31.3250658
31.60536072
31.56784631
31.75681476
32.50820062
32.26739484
32.91538219
35.14638612
34.30244548
35.81299132
37.59252429
36.9642446
51.56063039
58.19656306
55.73425427
85.61709647
62.38794416
52.75088648
46.85206726
38.26956795
35.90514781
36.83897956
34.20836728
33.37462521
33.66106975
32.54552299
32.23851253
31.29668958
31.65896415
31.61878514
31.85121946
32.7839681
32.58272878
33.27879327
35.90341344
35.36726404
37.07402521
39.33355931
39.0002916
59.02589253
69.60725025
68.51654337
134.6102708
85.27757425
77.05906036
54.58914379
41.55793705
39.05749138
39.38486841
35.43721436
34.49526693
34.63138069
33.01704066
32.65765029
31.27283423
31.71029162
31.67228519
31.93747594
33.01153896
32.84454859
33.56840529
36.46419062
36.04740632
37.87064545
40.42374386
40.14796374
66.04406021
86.44940651
83.93679096
151.5285881
97.7726848
94.49714277
59.57304234
44.24082166
42.25470512
41.55255146
36.59425739
35.72606609
35.56325984
33.4927009
33.13751012
31.25156514
31.75773323
31.72310192
32.01635389
33.21600362
33.0640074
33.8292671
37.02752248
36.58930264
38.64388635
41.68717781
41.27395276
74.48885334
102.1604327
98.82185723
146.1493913
99.84397797