/*--------------------------------*- C++ -*----------------------------------*\
| =========                 |                                                 |
| \\      /  F ield         | OpenFOAM: The Open Source CFD Toolbox           |
|  \\    /   O peration     | Version:  v1912                                 |
|   \\  /    A nd           | Website:  www.openfoam.com                      |
|    \\/     M anipulation  |                                                 |
\*---------------------------------------------------------------------------*/
FoamFile
{
    version     2.0;
    format      ascii;
    class       surfaceVectorField;
    location    "1.31";
    object      Uf;
}
// * * * * * * * * * * * * * * * * * * * * * * * * * * * * * * * * * * * * * //

dimensions      [0 1 -1 0 0 0 0];


internalField   nonuniform List<vector> 
25162
(
(99.99885706 0.004709033589 -1.874643649e-21)
(99.99558993 0.004187720651 5.555804591e-21)
(99.99820811 0.01154533615 -1.850683483e-21)
(99.9936007 0.01443632338 1.876597551e-21)
(99.99695226 0.02313813217 -3.690850491e-21)
(99.98915051 0.03124577968 1.114355037e-20)
(99.99855554 0.02675516935 1.142169491e-21)
(99.98129688 0.05877199231 -7.329384117e-21)
(99.99177656 0.05950129427 -1.226756797e-21)
(99.99757247 0.04883031112 1.776828012e-21)
(99.99922043 0.02934634492 8.79227935e-22)
(99.99037744 0.08242565739 1.766042602e-21)
(99.99778745 0.0469990085 8.633371216e-22)
(99.99836394 0.0367077797 -8.910484846e-22)
(99.99724956 0.05992815186 8.633018603e-22)
(99.98500646 0.1348509516 1.718241404e-21)
(99.99697728 0.07596193843 0)
(99.99679186 0.09368438591 -3.14773195e-21)
(99.98023675 0.2070716347 -3.147715567e-21)
(99.99632809 0.11482405 -8.174496423e-22)
(99.99580013 0.1392992986 2.743096121e-21)
(99.97403937 0.3048414149 2.990268597e-21)
(99.99529921 0.1670933213 3.686121908e-22)
(99.99488325 0.1978589548 -2.43147154e-21)
(99.96908116 0.4275917767 3.48726207e-22)
(99.99460266 0.230946038 -2.475610702e-21)
(99.99453186 0.2653132031 2.792810266e-22)
(99.96822194 0.5642073004 -1.639068158e-21)
(99.99475649 0.2993169684 2.201557725e-21)
(99.99532813 0.3310368703 1.868462185e-21)
(99.97460016 0.6903089738 -8.197269532e-22)
(99.99625569 0.3582743124 0)
(99.99749479 0.3788376043 0)
(99.9887239 0.7721347107 1.669306684e-22)
(99.99896298 0.3909287673 0)
(100.0005838 0.3935184577 4.690092803e-22)
(100.0066938 0.7826269253 -7.77388062e-24)
(100.0020777 0.3863853939 9.835219535e-22)
(100.0032816 0.370895216 -2.401685806e-22)
(100.0210145 0.7213578194 -6.122772087e-22)
(100.0042252 0.3484104056 -1.09897009e-21)
(100.0048504 0.3209221003 8.528297061e-23)
(100.0285683 0.6122518901 1.741343897e-21)
(100.005163 0.2903823403 4.471251668e-22)
(100.0051931 0.2585956896 0)
(100.0293972 0.4858722962 0)
(100.0050155 0.2271642266 0)
(100.004831 0.1971309205 7.448178632e-22)
(100.025764 0.3667150273 1.544457381e-21)
(100.0049456 0.1695890867 -3.772783043e-21)
(100.0048172 0.1429029258 -1.405736012e-21)
(100.0217901 0.2615800054 3.062376543e-21)
(100.0041662 0.11961487 3.062148025e-21)
(100.0031203 0.0999339061 -8.630501862e-22)
(100.0131828 0.1810555819 -4.918727209e-23)
(100.0008465 0.08585129447 1.680957078e-21)
(100.0084024 0.0840397652 -7.518478873e-21)
(100.0477963 0.2062819889 4.520982201e-22)
(100.0169625 0.1846399285 -2.681112941e-21)
(100.0028201 0.08546265762 -1.567240567e-21)
(100.0059491 0.04901571769 -9.461152325e-22)
(100.032755 0.1275190966 1.49955595e-20)
(100.0049897 0.02318902838 -7.605138969e-21)
(100.0242665 0.06834361417 -1.598947218e-20)
(100.0218531 0.02157056282 1.385049551e-21)
(99.98945861 0.0129292557 9.275683437e-21)
(99.9834387 0.006607162525 2.325618166e-22)
(99.98312368 0.03203771585 1.481228476e-20)
(99.97569057 0.02338996504 -1.297331509e-20)
(99.97129791 0.06427089938 7.685842264e-21)
(99.95898625 0.05221332612 -2.01208598e-20)
(99.96493925 0.104720626 -1.310204315e-21)
(99.93073755 0.1004678936 3.870829338e-20)
(99.94049442 0.1319740004 -8.52412001e-21)
(99.94764777 0.1348531601 -1.82809194e-21)
(99.95999458 0.1345400293 3.597965588e-21)
(99.97555241 0.09528765835 1.78960009e-21)
(99.96113329 0.1607846747 1.74702494e-21)
(99.94848471 0.1752197179 1.777929298e-21)
(99.91344574 0.2315057634 -3.59337257e-21)
(99.93545912 0.226198577 -1.949103048e-23)
(99.93966393 0.2622291334 1.718511061e-21)
(99.92001378 0.2891833081 -1.629607772e-23)
(99.86879714 0.3780181965 0)
(99.9117748 0.3402914782 0)
(99.88793035 0.3896214169 -2.138340543e-21)
(99.91664317 0.394801794 -4.203917601e-21)
(99.90603178 0.4155090267 -5.185005463e-23)
(99.87928152 0.4804243157 -9.455441432e-21)
(99.89817879 0.4554028622 -3.250497262e-21)
(99.8722505 0.619507331 2.819451019e-23)
(99.88927992 0.5854698366 -2.134869298e-21)
(99.83769701 0.7165618461 -1.168461931e-20)
(99.86525844 0.674595216 -2.847309682e-21)
(99.84296454 0.8846166656 -5.321062635e-21)
(99.8669081 0.8288081431 -5.015091284e-21)
(99.80282946 1.020368026 5.134974206e-22)
(99.83891985 0.953041053 -6.382174419e-21)
(99.8311349 1.192529258 -5.052243167e-23)
(99.86245889 1.105662016 -4.15671215e-21)
(99.79156311 1.370211203 -2.148138928e-21)
(99.83420636 1.268221533 -3.119340526e-21)
(99.85411959 1.494970805 -3.61614758e-21)
(99.88940238 1.368570933 -5.226254865e-21)
(99.82460997 1.707786762 -2.800613413e-21)
(99.86759005 1.564076788 -1.527353823e-21)
(99.92024278 1.714693207 -7.146713968e-22)
(99.95177267 1.54699669 -4.254161725e-22)
(99.91094124 1.94005781 1.120373461e-20)
(99.94263475 1.758210784 4.705022316e-23)
(100.0110102 1.778588601 1.772293372e-22)
(100.0274092 1.580281494 -2.430523916e-22)
(100.022272 1.988587178 -1.033202922e-21)
(100.0327126 1.783857255 -6.971160098e-22)
(100.0936441 1.680878872 -2.454711011e-22)
(100.0783513 1.466661266 -2.190082113e-22)
(100.1174677 1.850237997 -8.188017526e-23)
(100.1092245 1.638819492 1.993676842e-21)
(100.1436656 1.452018235 2.29235612e-21)
(100.1059097 1.248542062 3.982788463e-21)
(100.1707917 1.575702353 3.985475393e-21)
(100.1489256 1.382461603 5.222468214e-22)
(100.1561321 1.166664041 -6.452293223e-21)
(100.1089546 0.9919483833 -6.015999286e-21)
(100.1804154 1.250310348 -2.173316595e-21)
(100.1533697 1.090113575 -2.141676936e-21)
(100.1405978 0.8893870587 -5.127624137e-21)
(100.0923627 0.7502245835 4.705629693e-22)
(100.1563083 0.9414478444 -1.374611515e-21)
(100.1333282 0.8209281336 5.602347389e-21)
(100.0878429 0.5183923995 -1.301437641e-20)
(100.1399284 0.7058786024 -1.301336521e-20)
(100.1969066 0.7648962888 1.316422349e-20)
(100.1214972 0.5891578577 -2.666574309e-20)
(100.1031992 0.4883730151 1.15065505e-20)
(100.1434864 0.5220132304 -1.635744993e-20)
(100.0845305 0.402766434 2.336280399e-20)
(100.0633985 0.3557895764 2.596007617e-20)
(100.0796277 0.2451204354 2.228469855e-20)
(100.1808792 0.3859695944 -2.000277941e-22)
(100.1377265 0.4322311351 4.669722524e-20)
(100.0811619 0.3413442849 2.539679009e-21)
(100.0575857 0.1435647166 -7.004144684e-22)
(100.1280486 0.2373027456 3.199532974e-20)
(100.0465613 0.06607280009 -7.443636229e-21)
(100.0973246 0.127418471 -1.696442471e-20)
(100.0841762 0.04013212671 7.599316242e-21)
(99.97200732 0.01600194674 -2.226719044e-20)
(99.96833374 0.005690251781 -1.112890622e-20)
(99.95460139 0.04130379314 -4.821524222e-20)
(99.9518689 0.02192042472 1.042525945e-20)
(99.92288518 0.08601089848 1.012480853e-20)
(99.9170358 0.05433095817 -4.081556559e-20)
(99.88893107 0.1542894721 2.464548383e-20)
(99.86008572 0.1115019778 4.437597187e-20)
(99.85143317 0.1689046004 -3.953093201e-20)
(99.90493756 0.1669687161 -7.304187806e-21)
(99.85318215 0.1877038684 -5.42678173e-20)
(99.86601895 0.2096568404 -3.663739927e-21)
(99.84898061 0.2908353061 -7.165744329e-21)
(99.83152027 0.2787036467 -3.572200195e-21)
(99.76947503 0.335351932 2.504666713e-20)
(99.79099219 0.3638589567 7.057412624e-21)
(99.77238545 0.4801680176 -6.205776294e-21)
(99.74367815 0.4686323394 4.567610656e-21)
(99.65238209 0.5633090528 -3.531759185e-20)
(99.71453558 0.5764724798 2.475592959e-21)
(99.66832276 0.6174713479 -1.536581618e-20)
(99.69828363 0.7237730693 -6.355749497e-21)
(99.67536229 0.7204915261 0)
(99.61975745 0.7944952086 6.571816807e-21)
(99.64760085 0.8044283843 -6.335489541e-21)
(99.5932095 1.099533775 3.100732207e-21)
(99.55862733 1.103903105 1.215603318e-20)
(99.48571047 1.215562039 6.025059516e-21)
(99.52902581 1.218833308 1.510466672e-20)
(99.49852518 1.594603971 1.860887112e-20)
(99.44792036 1.615743133 2.963421844e-20)
(99.36186452 1.777468843 1.11280433e-19)
(99.42621007 1.762312951 2.909701054e-21)
(99.46046703 2.187568654 -4.542349664e-21)
(99.39205659 2.242764529 -6.888789739e-21)
(99.31030006 2.460537277 2.888321118e-19)
(99.39641839 2.406058657 -1.353987399e-19)
(99.5459431 2.772814801 0)
(99.46859247 2.882839014 2.17300697e-22)
(99.41736635 3.145145251 0)
(99.51366409 3.024667342 -8.220336451e-20)
(99.77231127 3.188353511 -9.053607784e-20)
(99.70703761 3.365972523 -3.918709559e-20)
(99.71017894 3.636253707 1.29880002e-20)
(99.78753312 3.437513397 3.201825473e-20)
(100.0722298 3.274599033 -4.885312795e-21)
(100.0447786 3.506541644 0)
(100.10146 3.733548059 -7.445487529e-21)
(100.1289238 3.480060363 0)
(100.3284151 3.025349803 -3.246585651e-20)
(100.346701 3.276198133 5.167041467e-20)
(100.4302858 3.433837984 -3.232690285e-20)
(100.4037732 3.170185172 -9.782233158e-21)
(100.4692367 2.552611533 4.542608955e-21)
(100.5218963 2.787160084 6.882254665e-23)
(100.6046973 2.880027324 3.100995454e-21)
(100.5433901 2.642389382 7.69362072e-21)
(100.4893759 1.999034109 -5.983140798e-21)
(100.5590951 2.197429174 -1.391389164e-20)
(100.62871 2.244424323 -4.850847645e-21)
(100.550695 2.048456735 5.405402807e-21)
(100.5010831 1.631740983 -1.70677051e-20)
(100.4328894 1.478625926 -1.151081258e-20)
(100.5533513 1.648977486 -1.152633538e-20)
(100.4818947 1.502776376 6.15168258e-21)
(100.3480352 0.9959193845 -5.144646803e-20)
(100.4639013 1.215797377 -2.693520175e-20)
(100.5424324 1.206570147 -7.799459565e-20)
(100.4050265 1.00887913 -3.666060914e-20)
(100.2572111 0.6753794443 -5.911937579e-20)
(100.3483887 0.8303536771 2.344118799e-20)
(100.4001436 0.810284315 -2.805691189e-20)
(100.2950884 0.6781793765 -2.454364963e-20)
(100.2222719 0.3752476822 9.690426585e-21)
(100.3822196 0.5143817259 -2.542532428e-20)
(100.3564952 0.6212350239 -1.642193423e-22)
(100.2659686 0.5583722647 -1.453158154e-20)
(100.1627612 0.218232475 1.49920139e-20)
(100.275774 0.3131680118 2.668054484e-20)
(100.1306419 0.1000367421 -1.909364196e-21)
(100.2088367 0.1672118028 -3.856965984e-21)
(100.1785198 0.05234708454 0)
(99.95245397 0.01082374694 2.235688297e-20)
(99.95814027 0.0002204790706 -3.729396353e-21)
(99.91961251 0.03309856585 1.88013501e-20)
(99.93089876 0.006115159024 2.610900087e-20)
(99.86060702 0.07924319882 -7.475518057e-21)
(99.87360114 0.03089420521 -3.699725577e-21)
(99.78438738 0.168196159 0)
(99.779598 0.08249383255 5.696674417e-21)
(99.74155286 0.1617467145 1.732621975e-20)
(99.79490415 0.1966615615 -5.066911926e-20)
(99.73112404 0.1917071986 1.30265351e-20)
(99.73401606 0.2360965071 0)
(99.67771221 0.3619477316 2.448751205e-22)
(99.66663471 0.321946532 -2.879121949e-20)
(99.5765993 0.3681306094 -2.877185084e-20)
(99.58615988 0.4301371801 5.837029757e-20)
(99.51306894 0.6217532909 -8.677724519e-20)
(99.49130676 0.5650085666 3.135071706e-20)
(99.35861649 0.6482285475 -5.802011394e-20)
(99.412089 0.7261902267 -2.888642913e-20)
(99.34923071 0.737811517 -4.743271597e-20)
(99.3341481 0.961730182 6.848522957e-21)
(99.31100895 0.9270551786 1.36131679e-20)
(99.22402706 0.9997199815 3.440373063e-20)
(99.24896787 1.044796909 6.791449652e-21)
(99.08566444 1.510996849 -2.061519859e-21)
(99.04528698 1.470999066 -1.329149047e-20)
(98.92724459 1.588425247 1.051575117e-19)
(98.9736519 1.641276967 -6.801098162e-22)
(98.83725306 2.285811411 1.265989382e-20)
(98.76659874 2.249815761 1.226353405e-19)
(98.62531518 2.433342229 -1.969254825e-19)
(98.70939901 2.482391858 2.0490943e-19)
(98.7151855 3.274588893 7.932002472e-19)
(98.60159323 3.269020968 4.762396343e-19)
(98.45830636 3.544586091 4.851750939e-19)
(98.59740632 3.554697726 1.617750908e-19)
(98.88626322 4.347038622 -4.424339916e-19)
(98.73207177 4.421591778 4.863832824e-20)
(98.64891963 4.78324181 -2.319223109e-19)
(98.83516765 4.69086458 -2.382100658e-22)
(99.46510456 5.132947548 -3.179702489e-21)
(99.31731982 5.329174858 1.563594116e-19)
(99.36002923 5.701446397 0)
(99.5225178 5.460625845 0)
(100.2509723 5.254447469 -6.568559745e-20)
(100.1809488 5.552684859 -6.643467383e-20)
(100.3322187 5.825143857 -6.802506944e-20)
(100.388112 5.486020253 8.248210499e-22)
(100.8681273 4.732168359 1.365031265e-23)
(100.8952099 5.054176273 3.093369209e-21)
(101.0724311 5.19379047 -1.114410595e-19)
(101.0173927 4.852498368 -1.77098276e-22)
(101.1508862 3.869798825 1.387996413e-19)
(101.2417894 4.157384341 1.301149528e-19)
(101.3898027 4.199425881 0)
(101.2741056 3.910962583 0)
(101.1589735 2.943532619 4.35709857e-20)
(101.273966 3.174735089 0)
(101.3796169 3.157872552 -1.759027042e-19)
(101.2483419 2.937817005 2.047938716e-19)
(101.1248689 2.292170537 0)
(101.0112513 2.120074547 4.586673142e-20)
(101.194858 2.259492446 0)
(101.071777 2.096950084 0)
(100.7784247 1.38913683 2.852210523e-20)
(100.972527 1.628484711 1.836303457e-20)
(101.0532315 1.535419803 -1.642587554e-20)
(100.8429507 1.335470449 3.579543473e-20)
(100.5728841 0.9219488968 -3.273922628e-20)
(100.7226508 1.086161138 -1.461783309e-20)
(100.7709126 1.006492811 -1.476048406e-20)
(100.6138302 0.8750999963 -7.119750893e-21)
(100.4230262 0.4499113434 -9.052301608e-21)
(100.6355035 0.567199118 -1.913306555e-20)
(100.6577755 0.734978013 -2.533121441e-21)
(100.5390724 0.7034244234 5.242827076e-21)
(100.3104085 0.2595075368 7.683902546e-21)
(100.4552915 0.3406982705 1.168756506e-20)
(100.2473214 0.1179695402 -1.947257217e-21)
(100.3423259 0.178790674 -3.440790285e-21)
(100.2897749 0.05540375965 -4.953315074e-22)
(99.941179 -0.004770073533 0)
(99.96265535 -0.01041892878 0)
(99.89064783 0.002791643735 3.765352309e-21)
(99.9238241 -0.02598883088 0)
(99.79978936 0.03541679734 9.53052839e-21)
(99.84293128 -0.02214899717 -3.206712225e-21)
(99.67236278 0.1269907141 1.62291607e-20)
(99.7078196 0.00858669459 2.103492005e-20)
(99.63164206 0.09663356509 -6.324302599e-21)
(99.6694964 0.1717765456 2.242977631e-20)
(99.60361706 0.1360348241 1.817448346e-21)
(99.58713587 0.1973113649 -9.06801901e-21)
(99.47043987 0.3515002006 0)
(99.47741792 0.2867306196 -1.879377385e-20)
(99.36340859 0.3101557871 -1.541598817e-20)
(99.34610816 0.4010766755 3.831819257e-21)
(99.1914574 0.6390969409 0)
(99.1909265 0.5472215214 3.83140901e-21)
(99.01927844 0.5940156629 -3.949604142e-21)
(99.03862368 0.7382755399 1.915328636e-20)
(98.96923015 0.7235988579 4.939011724e-21)
(98.86113523 1.041636943 2.203231308e-19)
(98.85090086 0.9735438973 0)
(98.73100157 1.030506977 7.442602288e-21)
(98.74009642 1.111935782 0)
(98.38457232 1.73692705 5.555193083e-20)
(98.35613741 1.642940586 5.58785152e-20)
(98.18784501 1.746278961 5.754995709e-20)
(98.217653 1.862264205 -2.655549353e-20)
(97.86280888 2.784701861 -1.512395633e-20)
(97.79087862 2.671017427 -6.848518776e-22)
(97.5641985 2.861426485 1.869953013e-19)
(97.64940883 3.003241307 4.023810461e-19)
(97.4626374 4.319245646 5.872588798e-19)
(97.30340893 4.211076447 1.895732578e-19)
(97.04168015 4.549191107 1.827094185e-19)
(97.24320117 4.681148724 -3.737888163e-21)
(97.66633172 6.22136479 4.281543608e-19)
(97.38224901 6.217668384 -1.577097521e-19)
(97.21273571 6.744823895 -1.461296184e-19)
(97.57190527 6.729093458 2.043285387e-20)
(98.9376557 7.728950458 -1.18848807e-19)
(98.62217588 7.973650688 -5.159533114e-20)
(98.74215316 8.552821186 1.995355297e-20)
(99.09812413 8.216102367 8.167057661e-20)
(100.7358882 7.819288228 6.418313123e-20)
(100.5994695 8.269147074 1.545958328e-20)
(100.9491357 8.607839293 -1.637916752e-20)
(101.0421224 8.080458505 2.250662333e-20)
(101.9410061 6.676110427 1.636590461e-19)
(102.0135146 7.124698055 2.912428597e-19)
(102.3430166 7.196132336 2.989321972e-19)
(102.2125718 6.733574018 -2.484874015e-21)
(102.3295686 5.141563168 -3.614119195e-19)
(102.5023341 5.495993335 3.574092178e-21)
(102.7354608 5.434494362 -7.958383893e-19)
(102.517671 5.093295107 -6.145939937e-19)
(102.1945678 3.733475356 -1.015751963e-19)
(102.3875144 3.988120566 0)
(102.5172101 3.889231878 -1.276517934e-20)
(102.3040352 3.653948598 7.367619321e-21)
(101.999473 2.76327756 -1.794680156e-20)
(101.8289255 2.586269923 -3.744310224e-21)
(102.0701152 2.66213157 1.800568738e-20)
(101.8903916 2.506094675 2.197738987e-20)
(101.3624113 1.63773813 -9.245776529e-20)
(101.6446486 1.873166139 -5.856070006e-20)
(101.700917 1.686946889 -3.281829811e-20)
(101.4132022 1.51261645 -1.679994673e-20)
(100.9894602 1.058302886 1.138128591e-20)
(101.2023548 1.211192438 3.429722683e-20)
(101.2242847 1.072972078 -3.855618233e-21)
(101.0165801 0.9610547908 -3.760502081e-21)
(100.6552465 0.458188842 1.988805391e-21)
(100.9122866 0.523919099 0)
(101.0075688 0.7490840902 -1.047609499e-22)
(100.8753457 0.7548956848 -1.025822175e-20)
(100.4762465 0.2574986753 4.3885144e-22)
(100.6445494 0.3079974707 1.988626092e-21)
(100.3751788 0.1150203104 -1.994356141e-21)
(100.4767146 0.1559012018 -1.996388721e-21)
(100.3982612 0.047458411 -2.006182254e-21)
(99.9496804 -0.03147461873 0)
(99.99236392 -0.02619223094 1.84493035e-21)
(99.88158035 -0.05117825043 -7.544756851e-21)
(99.9424826 -0.07415781057 -1.858598985e-21)
(99.75850576 -0.04795936863 7.800410077e-21)
(99.84004036 -0.1050141164 -3.753901784e-21)
(99.57398677 0.02023162282 1.023132235e-20)
(99.66699473 -0.1113717371 2.800634726e-21)
(99.54282876 -0.02878895238 2.977539011e-24)
(99.55107897 0.08295403038 -7.592877661e-21)
(99.49148378 0.01421390582 -7.661446947e-21)
(99.45029798 0.08361032369 0)
(99.26067668 0.2428893443 -1.541560761e-20)
(99.29603927 0.1599382066 0)
(99.16691635 0.1499618793 -9.142304928e-23)
(99.10989214 0.2601605405 -6.230879388e-23)
(98.84709832 0.5120409543 7.942406381e-21)
(98.88626988 0.3915632006 1.192199835e-20)
(98.68594136 0.392906376 1.605665108e-20)
(98.65185447 0.5871818195 -2.36498357e-21)
(98.58648544 0.5402144709 -4.390548639e-20)
(98.33796064 0.9172911275 -5.313462189e-20)
(98.35744977 0.8221019397 -4.571559561e-20)
(98.20904192 0.8504580579 -7.963555133e-21)
(98.18189765 0.9615976679 -9.897781164e-20)
(97.56755464 1.641971187 -1.183206378e-19)
(97.57569738 1.500344252 5.970120658e-20)
(97.35919768 1.561878276 0)
(97.34162878 1.731203637 0)
(96.55110476 2.875697749 -5.648535708e-20)
(96.52027878 2.656675595 1.865160994e-19)
(96.18209963 2.799124352 2.991078155e-20)
(96.21649315 3.064151528 -5.784827628e-20)
(95.45926863 5.009064768 -1.277310508e-19)
(95.29553921 4.70778525 -1.612056098e-19)
(94.82130242 5.032108191 1.422303365e-19)
(95.03120103 5.417527499 0)
(95.21659654 8.384789999 3.010269676e-20)
(94.72029713 8.125096831 -1.217303684e-21)
(94.23921031 8.893835035 9.282225027e-20)
(94.92576013 9.191747143 5.445387991e-20)
(97.82585394 11.76612222 0)
(97.05898151 12.09755232 0)
(97.32868683 13.21790805 -1.367909215e-20)
(98.2280224 12.6445688 -7.97797053e-21)
(102.0480009 11.51150618 -2.978255422e-20)
(101.8209223 12.34380222 -4.354308395e-20)
(102.6554991 12.71508277 7.972551011e-20)
(102.7246348 11.74084959 -2.963953041e-20)
(104.0674551 8.779592808 6.913960886e-20)
(104.2948604 9.436121762 3.076951677e-19)
(104.8665828 9.295017048 9.749256545e-20)
(104.5151898 8.656895013 1.501203459e-19)
(104.2326207 6.170014395 5.431748101e-19)
(104.5646391 6.576338785 2.848610392e-19)
(104.8357105 6.339893879 2.498250587e-19)
(104.4550711 5.977160965 2.671215476e-19)
(103.6428235 4.197092713 1.315997307e-19)
(103.9483596 4.447578605 0)
(104.0660147 4.230210068 -1.460335683e-19)
(103.7463799 4.018778104 0)
(103.1185283 2.927096323 -1.062264653e-19)
(102.8696506 2.768594739 -6.499572726e-20)
(103.1616488 2.753102945 -9.467885078e-20)
(102.9120771 2.619911282 -1.139551762e-19)
(102.0583089 1.672856226 2.685344351e-20)
(102.423246 1.860210537 -2.407469849e-22)
(102.4194426 1.587485875 1.637396916e-20)
(102.0647505 1.475362112 1.218567302e-20)
(101.4635824 1.044532255 -1.60433489e-20)
(101.7384105 1.158713682 -8.184997567e-21)
(101.7060284 0.9684264588 -8.186583295e-21)
(101.4535132 0.9009388599 1.248402965e-20)
(100.8875493 0.3796883401 0)
(101.1772197 0.3762145842 1.326115534e-21)
(101.3545225 0.6257000258 -1.102801577e-20)
(101.2300072 0.6955061511 2.732750259e-20)
(100.632994 0.2043949115 -5.031643765e-22)
(100.8098297 0.2068209096 -1.567481939e-21)
(100.4902561 0.08815892747 -2.01738224e-21)
(100.5863219 0.09543251623 -2.286444098e-21)
(100.4814051 0.02774934606 2.577692105e-21)
(99.98899961 -0.06833673527 -1.30809393e-23)
(100.0568379 -0.04641567917 6.032738759e-23)
(99.90560493 -0.1270181151 1.929409183e-21)
(99.9978891 -0.1360606437 -7.26926521e-23)
(99.75459354 -0.1672748026 -1.01062175e-20)
(99.87814205 -0.213308918 1.519569689e-21)
(99.51404077 -0.1402987758 -9.144532259e-21)
(99.67485395 -0.2717022623 -1.536820289e-20)
(99.50300601 -0.2103396582 -1.308356573e-20)
(99.46226232 -0.07192117456 -7.199191982e-21)
(99.42668288 -0.1714304994 -2.851160846e-21)
(99.35317237 -0.102428142 3.197689619e-23)
(99.08758178 0.03252564708 1.162092904e-20)
(99.1589233 -0.05785865389 1.180941766e-20)
(99.02720519 -0.1075288095 5.829238566e-21)
(98.92392637 0.006269297774 2.008336331e-20)
(98.54531404 0.2362780705 -2.022174847e-20)
(98.63821923 0.09625072879 -1.618201263e-20)
(98.4306428 0.04397749513 -5.788796039e-20)
(98.31615262 0.2553537369 -2.166146505e-20)
(98.26763435 0.1837026399 -1.771180315e-20)
(97.85583632 0.5612267412 -3.184999067e-20)
(97.91617758 0.4503767752 -5.97203622e-20)
(97.75577011 0.4366154514 -3.232823784e-20)
(97.68368025 0.5600975397 -9.676509651e-20)
(96.76966159 1.165348585 6.427092312e-20)
(96.84574097 0.9902855417 0)
(96.59770918 0.9821163036 0)
(96.49496299 1.183952027 -6.855491227e-20)
(95.09781638 2.277204795 1.31271266e-19)
(95.18221981 1.983768668 6.044635019e-20)
(94.77241069 1.994766084 1.926999154e-20)
(94.64775469 2.346080129 1.770095699e-20)
(92.68378907 4.4315692 -1.726247985e-21)
(92.70252109 3.896359611 -8.96179263e-20)
(91.98971392 3.956847746 -8.883312526e-20)
(91.92705694 4.649725461 -8.437956663e-23)
(89.80545092 9.525259721 -3.052325266e-19)
(89.29426058 8.413781029 1.203069297e-19)
(87.59097843 9.365002524 6.387050524e-19)
(87.88678328 8.730901004 -3.619307952e-19)
(88.86953194 10.7126584 -2.004024819e-19)
(88.03469225 10.66967935 -7.688858595e-19)
(92.43328358 19.83904022 4.339686372e-20)
(93.65398982 19.66542166 2.360206468e-20)
(92.64048016 21.46233573 2.190256972e-20)
(94.20073415 20.95237675 2.654044962e-20)
(105.9097181 18.64795438 7.98915465e-20)
(106.1535441 17.14221866 2.58277348e-20)
(107.6621457 16.91167691 2.881824827e-20)
(106.6021453 19.49781852 1.939171504e-20)
(108.4934895 18.48020533 2.584496353e-19)
(108.0910257 19.14450172 1.910562741e-20)
(108.7147982 11.35634399 1.456586779e-19)
(108.0308995 10.5008557 4.905638209e-20)
(109.3768428 10.66937539 -4.207467646e-21)
(108.5477724 9.974865519 1.47809977e-19)
(106.955285 6.473397964 1.947470606e-19)
(107.5432462 6.848472901 2.084257868e-19)
(107.7513531 6.343033816 1.459226058e-19)
(107.136806 6.063426854 1.582491306e-19)
(105.4540098 4.050821872 -1.815018948e-19)
(105.893865 4.232760218 5.620423484e-20)
(105.9288681 3.882252421 0)
(105.4925213 3.756620008 0)
(104.3712325 2.610949662 5.813613473e-20)
(104.0453272 2.517771426 -7.438344792e-20)
(104.3423253 2.370793982 1.892526289e-20)
(104.0272687 2.301401316 9.695874113e-21)
(102.7713363 1.423865887 4.313312082e-21)
(103.2169689 1.511030824 -3.864572062e-20)
(103.0981832 1.178038644 -2.513743125e-21)
(102.7019865 1.163925729 -4.515243401e-21)
(101.9360554 0.8398852001 4.493364371e-21)
(102.2563531 0.8867343701 -1.853309555e-23)
(102.1512179 0.6625156719 -7.295773502e-21)
(101.8674035 0.6584894491 9.100481087e-21)
(101.0797457 0.2096363155 -1.82162955e-22)
(101.3658642 0.1250794194 -2.94196078e-22)
(101.6578137 0.3591425149 8.280569912e-22)
(101.5526049 0.4604226976 6.6314207e-21)
(100.7506236 0.09766688812 -3.358455748e-21)
(100.9153369 0.0385980535 -2.43021429e-22)
(100.5678766 0.03592163691 2.503104603e-21)
(100.6445101 -0.0007025677796 -2.254755943e-21)
(100.5152745 -0.003193482536 4.246215143e-22)
(100.0686245 -0.1133278843 1.375075888e-23)
(100.1637442 -0.06983643089 -2.73537677e-21)
(99.97397695 -0.2202434926 -4.98554717e-22)
(100.0987628 -0.2077759079 1.189474753e-21)
(99.80285545 -0.3157024063 -3.927231224e-21)
(99.96824527 -0.3394457324 -2.586307805e-21)
(99.5168911 -0.3476836237 8.058927994e-21)
(99.74609211 -0.4599633535 -8.89061073e-22)
(99.53237024 -0.43459433 8.438760076e-22)
(99.43196967 -0.2848487808 3.939503527e-21)
(99.4329564 -0.4061448757 8.179486945e-21)
(99.32629784 -0.3486374614 5.770907576e-21)
(98.99075335 -0.265853237 -1.964684934e-21)
(99.10203872 -0.3499911428 3.042502571e-21)
(98.98100397 -0.4388145299 2.009381403e-21)
(98.83042233 -0.3395199837 6.089967855e-21)
(98.34940316 -0.1777267946 -2.442101709e-21)
(98.50015961 -0.3130011914 3.324687575e-20)
(98.30667622 -0.4212528779 3.064710774e-20)
(98.1099876 -0.2184485467 6.519628096e-20)
(98.09047283 -0.3151087072 4.269203869e-20)
(97.53450628 -0.01192409365 1.218566077e-20)
(97.63757234 -0.1172576595 -3.272063954e-20)
(97.49064122 -0.1792711519 4.034855869e-21)
(97.37141886 -0.06731116624 -6.119710647e-20)
(96.20471299 0.3051066731 -3.200340816e-20)
(96.36126756 0.137357866 -6.895032521e-20)
(96.12472937 0.04971155661 7.411923864e-20)
(95.9300031 0.2301738517 3.665204488e-21)
(94.04606708 0.8730962362 7.939729013e-20)
(94.28711109 0.5933999545 1.962343781e-20)
(93.91294796 0.445287944 0)
(93.60047958 0.7431267024 0)
(90.54753572 1.762361221 -7.994566703e-20)
(90.95283233 1.253559366 0)
(90.39277132 0.912171031 0)
(89.80107615 1.421190212 2.801779134e-20)
(83.81282185 2.850106996 1.327597183e-19)
(84.41904321 2.21432065 -7.81294718e-22)
(83.83711088 1.584799612 2.405731331e-19)
(82.97088178 2.20495589 9.88216455e-20)
(120.8371037 23.19065333 2.152472816e-21)
(119.2555159 22.05259687 -1.693914364e-19)
(121.6392151 21.46120273 1.853727241e-19)
(120.0577895 20.69349458 -1.956938241e-20)
(115.5374843 10.28358638 2.261136031e-19)
(114.0732554 9.765643385 -5.126771056e-20)
(115.6250554 8.86254163 2.652370743e-19)
(114.230398 8.669995157 1.332875565e-19)
(110.1588851 5.279317045 1.697050251e-20)
(111.0064432 5.41418002 7.897035528e-21)
(110.9087711 4.68227121 1.531193218e-19)
(110.1147628 4.673237013 1.174071016e-19)
(107.2990745 3.020691185 -1.715458432e-21)
(107.8475607 3.04763315 -5.43173061e-20)
(107.7103421 2.611059354 1.529820445e-19)
(107.2036068 2.645825167 -5.140079643e-20)
(105.5328379 1.71163916 -2.616445139e-21)
(105.1554313 1.71822152 4.342183674e-20)
(105.3975427 1.433395118 1.016229437e-22)
(105.0494568 1.46466335 1.056116903e-19)
(103.3811061 0.8550465264 -4.909467162e-21)
(103.8748635 0.8118151293 -3.04359558e-20)
(103.6050159 0.4646861612 7.858072181e-21)
(103.2074143 0.5738944369 1.174498115e-21)
(102.3245489 0.438444184 -1.973646857e-21)
(102.6553096 0.3939645911 1.374211717e-20)
(102.4590896 0.1729151196 5.058170104e-21)
(102.1847471 0.251118554 1.004279314e-20)
(101.1880018 -0.04166531887 -3.414902287e-22)
(101.4436294 -0.2122652938 -1.06299187e-21)
(101.8425202 -0.03523339443 -1.079926257e-21)
(101.7882777 0.1172080443 -1.2339316e-21)
(100.7986769 -0.05784764602 1.078523931e-21)
(100.9304995 -0.1829246995 1.324824419e-21)
(100.5835465 -0.03842036533 -4.289213218e-21)
(100.6261342 -0.1250903074 1.659204297e-21)
(100.4790169 -0.04328558297 -2.121840546e-21)
(100.1954599 -0.1633435532 -1.559618134e-21)
(100.3178275 -0.09480302133 8.638903863e-22)
(100.0948889 -0.3241528376 -9.077518759e-22)
(100.250477 -0.2842087842 -6.435617016e-22)
(99.91370479 -0.481550925 4.645978098e-22)
(100.1167541 -0.4739120841 -2.291090687e-22)
(99.59768704 -0.5847973533 5.196969588e-22)
(99.88909142 -0.661425641 7.815530958e-22)
(99.64320849 -0.6813836805 4.625183387e-22)
(99.47990568 -0.5368328099 1.355889115e-21)
(99.5247801 -0.6697227823 -1.244578948e-23)
(99.38827764 -0.6322844058 -1.244755965e-23)
(99.00046482 -0.6221978865 -2.005799745e-21)
(99.14875408 -0.6879137401 0)
(99.05012669 -0.8114161492 -9.852673689e-22)
(98.8591399 -0.7404388197 -1.041215977e-21)
(98.30605675 -0.6793022393 5.01202195e-22)
(98.5086929 -0.7886335461 -1.252679185e-24)
(98.3485648 -0.9441806714 5.200718491e-21)
(98.08255064 -0.7794442313 6.134561133e-21)
(98.09718016 -0.8877825187 -4.729517097e-21)
(97.45079149 -0.7128910055 -2.157949975e-23)
(97.58736125 -0.7947883967 1.103799899e-19)
(97.4685653 -0.8952828027 -3.253559223e-20)
(97.3128088 -0.8139020001 1.155280289e-19)
(96.03870928 -0.7530442711 1.832243153e-22)
(96.25446289 -0.8758679618 1.804992105e-21)
(96.06097145 -1.020395236 -2.450991972e-22)
(95.80886103 -0.9002090596 7.154174364e-20)
(93.83530055 -0.8430839785 -5.356185015e-21)
(94.16832799 -1.019150609 -1.996520095e-20)
(93.89908447 -1.245244607 -5.207951659e-21)
(93.51431388 -1.089769431 -2.265010543e-20)
(90.70490748 -1.318793975 -6.506145207e-22)
(91.22914833 -1.514744076 -5.454704008e-20)
(90.95142447 -1.89685018 -5.278838723e-20)
(90.37887783 -1.775754186 -1.047023239e-19)
(87.17909845 -3.325410569 -5.756422869e-20)
(87.60713784 -3.256690994 -1.71573766e-19)
(87.62283671 -3.576478147 -1.156549515e-19)
(87.26199622 -3.723779883 1.411737859e-20)
(134.8268381 8.887489406 1.35657002e-19)
(133.1416442 9.618369314 -1.238415665e-19)
(133.7488396 7.470582069 2.818821122e-19)
(132.34048 8.250770577 1.480219736e-19)
(120.7798335 4.052259155 -8.614886649e-20)
(119.1770331 4.54164353 -2.703221952e-19)
(119.8194629 2.764386558 -2.730960078e-19)
(118.533528 3.386458987 -2.66404001e-19)
(112.6416712 2.239070349 3.638950477e-20)
(113.517233 1.954245557 -1.721999642e-20)
(112.9867293 1.269434194 1.890561648e-20)
(112.2443071 1.616743832 1.882067216e-20)
(108.6443597 1.067317502 -2.894508535e-20)
(109.188769 0.876874946 1.15664433e-19)
(108.8327831 0.4743045311 2.688256249e-20)