/*--------------------------------*- C++ -*----------------------------------*\
| =========                 |                                                 |
| \\      /  F ield         | OpenFOAM: The Open Source CFD Toolbox           |
|  \\    /   O peration     | Version:  v1912                                 |
|   \\  /    A nd           | Website:  www.openfoam.com                      |
|    \\/     M anipulation  |                                                 |
\*---------------------------------------------------------------------------*/
FoamFile
{
    version     2.0;
    format      ascii;
    class       surfaceScalarField;
    location    "1.65";
    object      phi;
}
// * * * * * * * * * * * * * * * * * * * * * * * * * * * * * * * * * * * * * //

dimensions      [0 3 -1 0 0 0 0];
oriented        oriented;


internalField   nonuniform List<scalar> 
25162
(
0.0004144456941
0.9162355543
0.0004947876106
0.9166196581
0.0005581971784
0.9165865904
0.0002715102815
0.9166249067
0.0003117801816
0.4583389626
0.0002825476589
0.4583148019
0.0003430334283
-0.0003578353425
-0.000437882639
0.4582934431
0.0004944395837
-0.0005484766349
0.4582429665
0.0006405100946
-0.0007418304152
0.4582186861
0.0008531443043
-0.000984208042
0.4581902555
0.001128952562
-0.001279594739
0.4581791681
0.001435426681
-0.001594254141
0.4581944759
0.001731278217
-0.001850165582
0.4582440334
0.001939632216
-0.001991300138
0.4583213989
0.002004901259
-0.001976891267
0.4584011979
0.00190569339
-0.001808763675
0.4584550144
0.001688749315
-0.001543908278
0.4584759057
0.001403002576
-0.001257130067
0.4584891732
0.001082956865
-0.001004688643
0.4584650034
0.0008896852388
-0.0007406233424
0.4584711373
0.0006194860761
-0.001503007271
0.9187405244
-1.282814384e-05
-0.0005746889072
-0.0009393257372
0.9187863185
6.558426647e-05
0.91584509
0.9138655843
0.00113680006
0.9150987543
0.001768338253
0.9159881199
0.001943033829
0.9164118949
0.0004790891376
0.9172531824
0.0008356690496
0.4581176911
0.0005774454657
-0.4582160474
-0.4582082248
-0.0007139131381
0.4580345163
0.0008876216445
-0.458072277
-0.001106060882
0.4578048765
0.00064822897
0.0007252323238
-0.2289773526
-0.0007977024563
0.2289053505
0.0008697045341
-0.001190164055
-0.2289133557
0.2288164646
0.001287055169
-0.001707841872
-0.2288483754
0.2287158436
0.001840373673
-0.002356232954
-0.228809179
0.2286557947
0.002509617283
-0.003053005816
-0.228831006
0.2287522827
0.003131737662
-0.002843235043
-0.2289472102
0.2287119128
0.003078520148
-0.003977210158
-0.2291292029
0.2290705054
0.004035907692
-0.00395532701
-0.2292759808
0.2293118947
0.003919413097
-0.003602125261
-0.2293789852
0.2295026721
0.003478438401
-0.003028541883
-0.2294159666
0.2295795342
0.0028649743
-0.002403454846
-0.2293988971
0.229558965
0.002243386961
-0.4589146048
-0.003538814487
0.4603972787
0.00205614062
-0.0006954643375
0.4610350339
-0.001039806346
-0.4592997632
-0.001076465271
0.9185050566
1.22777524e-05
0.001299655283
-0.0006542609583
0.9183641142
0.0005155865318
0.9146752425
0.9143811708
0.001424218146
0.9136745361
0.003865756641
0.9135465814
0.006549197911
0.9137284536
0.002596424877
0.91519394
0.006012015465
-0.4581118473
0.4579876349
0.00272063724
-0.4579001253
-0.002647784293
0.4586116628
0.001936246821
-0.4574438008
-0.001946624057
0.4572949015
0.00101726106
0.001078262326
-0.2285569598
-0.001282585745
0.2284066436
0.001432902003
-0.2283222924
-0.001982954608
0.2281042772
0.002200969801
-0.2281659963
-0.001834101661
0.2337355185
-0.003737316205
-0.238406145
0.02294322265
0.2437085875
-0.02825554241
-0.2363841205
0.04000980798
0.2388051945
-0.04243893831
-0.2270355885
0.04521411263
0.2264283438
-0.04460715322
-0.2189222173
0.03828349426
0.2153504066
-0.03470429995
-0.2205480046
0.01985055023
0.2144029552
-0.0136972137
-0.2301098871
-0.005635499687
0.2291703025
0.006575351723
-0.230313181
-0.005655391466
0.2306426575
0.005325914977
-0.004068369794
-0.230313802
0.2310046665
0.003377505319
-0.46309736
-0.000973222318
0.4620423642
0.002028218166
-0.46021658
-0.002050735885
0.4603188897
0.001948426243
0.001056970218
0.9207230222
-0.001864254645
-0.001410681156
0.002170463722
0.9172506207
0.001017222636
0.9158284837
0.9153983935
0.000403550657
0.9132709855
0.0008905072076
0.9130596249
0.001949537657
0.9126694232
0.002883008702
0.9124377575
0.001822711396
-0.4572903459
0.4569312455
0.003242109138
-0.4602316827
-0.004371550915
0.4572745786
0.007328655095
-0.4588772498
-0.008483019005
0.4605541903
0.001725221941
0.005080856608
-0.2278590634
-0.001640523055
0.2276964223
0.001803164175
-0.2305064188
-0.0002637594403
0.2380623217
-0.007297430206
-0.2549679754
0.02926858794
0.2613933543
-0.03571819975
-0.2577445499
0.05092224221
0.2612451245
-0.05445063373
-0.244340774
0.06075155448
0.2452489639
-0.06167862508
-0.2247259137
0.0621144843
0.2242527773
-0.0616449153
-0.2063765369
0.05820716247
0.2043833289
-0.05620116856
-0.197395124
0.04647402576
0.1927738971
-0.04182923438
-0.2070838771
0.02383299971
0.2000369624
-0.01676618832
-0.2342355593
-0.001067306431
0.2358489544
-0.0005450027294
-0.004600902195
-0.231957764
0.2320154779
0.004543188295
-0.4622001266
-0.007108475343
0.4636237615
0.005684840516
-0.4611871198
-0.004274738899
0.4623608155
0.003101043216
0.004157023751
0.9212713377
-0.002471432435
-0.002233906762
0.002801106979
0.9186065375
0.001301999611
0.917327591
0.9167003931
8.298674651e-06
0.9132626868
5.700761874e-05
0.9130109159
0.0002338496987
0.9124925811
0.0009392905577
0.9116053716
0.000126945034
-0.4567324259
0.4559995912
0.001672125307
-0.4559481732
-0.002011327864
0.4554221776
0.002537323482
-0.4546028289
-0.003277188106
0.4539742291
0.002099981748
0.001805806202
-0.2284735446
-0.003839799131
0.2274667556
0.004846040089
-0.260208427
0.01050736134
0.2686623598
-0.01899012959
-0.2765721856
0.03827249472
0.2799940764
-0.04173866107
-0.2662591877
0.04601113653
0.2657688482
-0.04556008072
-0.2438112644
0.04054539304
0.2416614339
-0.03841820725
-0.2233098346
0.03408938558
0.2231768649
-0.03396153946
-0.2030199494
0.03690524436
0.204601051
-0.03847311827
-0.1841684325
0.04142999691
0.1835152561
-0.04074485
-0.1948459048
0.04626547812
0.18374522
-0.03512163523
-0.2077580231
0.01391868518
0.2012336794
-0.007370488582
-0.006704689477
-0.233599568
0.234246015
0.006058242465
-0.4655397023
-0.008458116152
0.4674210736
0.006576744886
-0.4635191687
-0.005154055252
0.4647371423
0.003936081686
0.005100800338
0.9238751958
-0.004246046737
-0.00345861167
0.002874735879
0.9208326019
0.001316692208
0.9188856347
0.9180170853
-0.0002656796361
0.9135283665
-0.0004452479668
0.9131904843
-0.0004044942924
0.9124518274
-8.089348797e-05
0.9113663925
-8.462171159e-05
-0.4551934949
0.4549556335
0.0001569679289
-0.4550165573
-0.001035048398
0.4543505238
0.001701081955
-0.4533037366
-0.002129887898
0.4524364893
0.001464230604
0.001532904631
-0.241686877
0.002399967179
0.2464193497
-0.007148110022
-0.2791641826
0.02022114992
0.2825481877
-0.02365497547
-0.2836972762
0.02716074726
0.2818051548
-0.0253266178
-0.2560319533
0.01312138544
0.2559214479
-0.01304721532
-0.2291918275
-0.007106024784
0.2240022246
0.01228545585
-0.2228732896
-0.02526501561
0.2228543878
0.02528309958
-0.2184096206
-0.0102693889
0.2243185971
0.004368790766
-0.1956950755
0.01899357991
0.1986683582
-0.02193288264
-0.172224466
0.02320828447
0.1715330892
-0.0224654062
-0.1855798029
0.01490856819
0.1818702539
-0.01115555109
-0.002762384805
-0.2311671801
0.2282037244
0.00573123751
-0.4691701728
-0.008962288414
0.470989759
0.007142702178
-0.4655792694
-0.005782330474
0.4663894547
0.004972145253
0.004463534337
0.926922599
-0.003649762076
-0.003861175527
0.002500546485
0.9227955898
0.001074441508
0.9203117397
0.9190915268
-0.0006622076248
0.9141905741
-0.001202268918
0.9137305456
-0.001604826701
0.9128543852
-0.0003729438622
0.911231718
-0.001097208288
-0.4548924078
0.4546528277
-0.0001333638
-0.4533934222
-3.001929918e-05
0.453105604
0.0003178374959
-0.4521849916
-0.001196534421
0.4521604539
0.0006870896049
0.0005334652001
-0.25628766
0.004875895864
0.2590736903
-0.007692839313
-0.2926672868
0.0144066917
0.2883424509
-0.0101442323
-0.2767657176
0.01038379918
0.2747896812
-0.008463238759
-0.2340290691
-0.00407268046
0.2260370897
0.01204503632
-0.2100826408
-0.0337198375
0.1067690945
0.1010496948
0.01585767599
0.02012601308
-0.02489985131
-0.1088150932
0.1082183419
0.02549660258
-0.02032393538
-0.2477375113
0.03879245509
-0.02073834216
0.1245689705
0.1254383633
-0.01715512411
-0.2126685406
0.2196371662
0.0102106599
-0.1742811531
0.0009215138163
0.1789784081
-0.005563737327
-0.1765929127
0.0106981163
0.1748408156
-0.008885902716
0.001252776748
-0.2157953197
0.2129539679
0.00161201599
-0.4728462651
-0.007913753086
0.4741762933
0.006583724891
-0.4676395252
-0.005063348315
0.4688662498
0.003836623685
0.002920576175
0.9292248079
-0.00245014277
-0.002772642306
0.001494568012
0.9242215979
0.0006091373647
0.9211971703
0.9197006642
-0.001067855042
0.9152584291
-0.00208565545
0.914748346
-0.002913254446
0.9136819842
-0.001572337489
0.9120015979
-0.002110796877
-0.4546737333
0.4547256544
-0.001624258632
-0.4530093712
0.001726780385
0.4529654107
-0.001682819915
-0.4518191331
0.001576826504
0.4528661266
-0.0008772528725
-0.001751527954
-0.2634384632
0.001225769189
0.2636064747
-0.001431778995
-0.2891557223
0.001428945694
0.2889775459
-0.001317790659
-0.2682091564
-0.0007645574806
0.2669149198
0.002004891645
-0.2120437142
-0.007144244476
0.2099106329
0.009270834874
-0.09449308965
-0.006120014722
0.09449351984
0.006119584544
-0.02793434703
-0.1365533956
0.1392178829
0.0252698597
-0.02636453148
-0.242434995
0.2484374353
0.02037677394
-0.185585384
-0.009335185312
0.1878093317
0.007170151933
-0.1736044451
-0.003493690018
0.1742310849
0.002934047373
0.002136089017
-0.2084455045
0.2070401252
-0.0006926366315
-0.4758406925
-0.00506576888
0.4772128129
0.003693648473
-0.469856857
-0.002722287436
0.470687486
0.001891658362
0.0003731347963
0.9303964382
-0.0004234778718
-0.001121287253
-6.045561452e-05
0.9246551884
-0.0001049922907
0.921241707
0.9195956719
-0.001461381143
0.9167198103
-0.002849792221
0.9161367571
-0.004304833247
0.9151370252
-0.002537756716
0.9132980708
-0.003063549426
-0.4549603769
0.4551849845
-0.002762364283
-0.4530830106
0.003014808375
0.4533176902
-0.003249487932
-0.4534671165
0.003460595746
0.4543958332
-0.002130407789
-0.00226859634
-0.2652619576
0.003233281268
0.2654146181
-0.003437206662
-0.2871596282
0.003025079842
0.2866138758
-0.002562614553
-0.2630395471
0.0006161056749
0.2622942559
6.699324214e-05
-0.2080009747
-0.001448913804
0.2081850784
0.001261436655
-0.09811273656
0.0009937205208
0.0986345624
-0.00151554636
-0.01251656011
-0.152168845
0.1528279027
0.01185750241
-0.01477891665
-0.2623775983
0.2649758632
0.01219047056
-0.195447019
-0.005711323351
0.1972255046
0.004000332468
-0.1764338112
-0.0002921196947
0.1771701187
-0.0003606679655
0.0008442741305
-0.2060767741
0.2058176626
-0.0005391338513
-0.4787151682
-0.000834280615
0.4798487316
-0.0002992827855
-0.4711257961
0.0008411429207
0.4713544201
-0.001069766946
-0.002739006632
0.929873399
0.001965296713
0.001296749094
-0.001963295069
0.9238794768
-0.001030212725
0.9203086247
0.9185654591
-0.001816481136
0.9185362914
-0.003738474771
0.9180587507
-0.005584159751
0.9169827102
-0.003495326023
0.9152408092
-0.004031572122
-0.4555976243
0.4560045431
-0.003902244867
-0.4536208199
0.004361360045
0.4541401479
-0.004880688077
-0.455429726
0.005363731805
0.4569671404
-0.003257349737
-0.003660507182
-0.2657475029
0.004473265269
0.2659684592
-0.004758090395
-0.2852981916
0.004780206824
0.2849639899
-0.004546038349
-0.2608472872
0.003487590185
0.2604394415
-0.003152133556
-0.2093638602
0.002694977969
0.209772972
-0.003106363229
-0.1010348465
0.002735694255
0.1012697209
-0.001471455941
-0.001499112652
0.004731763541
-0.151163128
0.1502871464
-0.003855781911
0.001776416942
-0.2647864662
0.2629784667
4.370144335e-05
-0.1987231943
-0.002182309305
0.1988112024
0.002171147854
-0.1794820305
-0.00106855751
0.1801400568
0.0005033167931
0.001158613523
-0.2075828113
0.208103082
-0.001628945048
-0.4798274148
0.004877894642
0.4791755074
-0.004225987265
-0.4711249967
0.003959572385
0.4713330795
-0.004167655206
-0.006160460824
0.9275753362
0.004640003871
0.003818519757
-0.004027254737
0.9217462707
-0.002030299911
0.9183116698
0.9165351592
-0.002258354527
0.9207946459
-0.004497401942
0.9202977981
-0.00685753116
0.9193428394
-0.004427793718
0.9177573202
-0.004946248431
-0.4565883747
0.4571674407
-0.005006859751
-0.4547214332
0.005708999743
0.4553585664
-0.006346133029
-0.458901303
0.007078192012
0.4611841297
-0.004594683245
-0.004794016947
-0.2667713511
0.005725733404
0.2670808681
-0.00611328928
-0.2841814184
0.006519734508
0.2839821479
-0.00643778377
-0.2594593752
0.005898705602
0.259193532
-0.005714606927
-0.2111165838
0.005504155217
0.2116059436
-0.005994523967
-0.1026256549
0.003902903991
0.1027745492
-0.002011573798
-0.002040224481
0.01434208582
-0.1423330786
0.1410589159
-0.01306792316
0.01294345165
-0.2529304725
0.2481169607
-0.008106367505
-0.1957439292
-0.002650930169
0.1980100483
0.0004719321116
-0.181965691
-4.429521045e-05
0.1827503728
-0.0006388490459
0.003321527698
-0.2120459596
0.2129884615
-0.004215237988
-0.4780286706
0.01020726962
0.4764549703
-0.008633569327
-0.47131268
0.007272573225
0.4701070882
-0.006066981463
-0.009315010087
0.9237925485
0.006848142278
0.006249655512
-0.006006967176
0.9184382278
-0.002944645198
0.9152493478
0.913590514
-0.002663256767
0.9234579027
-0.005333005229
0.9229675466
-0.008106703355
0.9221165375
-0.005279930013
0.9205283957
-0.005597848884
-0.457897516
0.4586109778
-0.005993391819
-0.4561915204
0.006813499327
0.4570630531
-0.007685032117
-0.4636367135
0.008623305333
0.4653090706
-0.005665710996
-0.004671321232
-0.2681422573
0.007079520369
0.2685731543
-0.007604303886
-0.2835320587
0.008356067868
0.2834219184
-0.008380983824
-0.258507942
0.008049309226
0.2582746367
-0.007906028359
-0.2132988434
0.007715382404
0.2139684714
-0.008385129825
-0.1037288984
0.005154666717
0.1038720207
-0.00262939925
-0.002668389723
0.01783101562
-0.1323890805
0.1311342238
-0.01657615891
0.01676982777
-0.234228719
0.2292689359
-0.01176589344
-0.1941941756
0.006531738968
0.1881218878
-0.0003533122762
-0.1845759197
-0.003167987047
0.1849394514
0.002906665512
0.004984814922
-0.2174031834
0.2188810334
-0.006422070506
-0.4745369379
0.01439582549
0.4723240963
-0.01218298387
-0.4687758787
0.01028855838
0.4671668433
-0.008679523041
-0.01204444245
0.9204127625
0.00803732936
0.007386899112
-0.007699203514
0.9140929888
-0.003729788989
0.9112799333
0.909860725
-0.006715702528
0.9301736052
-0.01359251721
0.9298443613
-0.02053946444
0.9290634848
-0.006228424514
0.9278530554
-0.02163569958
-0.4594886648
0.4603796502
-0.007119409879
-0.4579632066
0.008082450287
0.4590418289
-0.009161072591
-0.4698795903
0.01020919571
0.4740008209
-0.007518594833
-0.006891610513
-0.269244117
0.01071558633
0.2705928535
-0.0121800289
-0.2831235305
0.01077252851
0.2823682647
-0.010169879
-0.2575320659
0.007914942976
0.2590362435
-0.009516362367
-0.2163717267
0.009453124781
0.2172665356
-0.005139130221
-0.005208803443
-0.05264371776
0.003268960976
0.05269736581
-0.003322609031
-0.05806143764
0.00653965023
0.05757443903
-0.01274048276
0.006687831134
0.01643472908
-0.1236537094
0.2438450366
-0.02908612357
0.01606720926
-0.1236071419
-0.2170566407
0.01321293603
0.2102757307
-0.006361643438
-0.1836867963
0.001905231187
0.1834374981
-0.001529629408
-0.1878170168
0.003557214267
0.1891671146
-0.004797602972
0.008742262142
-0.2252668071
0.226377202
-0.009827704988
-0.4697737341
0.01694038854
0.4672325827
-0.01439923711
-0.465493278
0.01241520827
0.4636958956
-0.01061782577
-0.01408699584
0.9158112366
0.009579198435
0.009109323282
-0.009021153236
0.9090271462
-0.004421677614
0.9066804577
0.9054390474
-0.003155268787
0.933328874
-0.006388548325
0.9330776408
-0.009782460622
0.9324573971
-0.006633039179
0.9315006811
-0.006797047195
-0.4632811234
0.464219308
-0.007571223728
-0.4619217067
0.008612458481
0.4630305966
-0.009721348334
-0.4778923967
0.01091548588
0.4758588894
-0.004825933663
-0.004145987245
-0.2723755908
0.003730824737
0.2717013153
-0.003176694928
-0.2826469982
0.0020058284
0.282440646
-0.001955352838
-0.2563306338
0.003505378826
0.2574789216
-0.004746216154
-0.2206019846
0.01071898945
0.2216410981
-0.005864258948
-0.005893843964
-0.05441620557
0.007875752107
0.1092264777
-0.05435584568
-0.004149216825
-0.004180961726
-0.1118430308
0.008997244897
0.1117644414
-0.01767273389
0.008754078431
0.02878784644
-0.2366457248
0.2329862068
-0.02512476761
-0.200109516
0.007049906161
0.1980861666
-0.00492584468
-0.1850494684
0.003041748639
0.1805769139
0.001569019883
-0.1937539321
-0.0006185792814
0.1994140696
-0.004947992253
0.01051193993
-0.2321582991
0.2326153203
-0.01096540564
-0.4649596584
0.01771079624
0.4629246167
-0.01567575453
-0.4618900394
0.01374858968
0.4598607567
-0.01171930702
-0.0136814779
0.9103700778
0.009496247948
0.009626388821
-0.009817441837
0.9051631102
-0.004792792961
0.9016558088
0.9006462545
-0.003317236738
0.9366461108
-0.006713025308
0.9364734294
-0.01026825352
0.9360126253
-0.006971422822
0.9352962268
-0.007092376319
-0.4652464224
0.4662565873
-0.00798158779
-0.4641640518
0.009071419419
0.4653138573
-0.0102212249
-0.4716787244
0.01145240486
0.4673702168
-0.00343087835
-0.003742377719
-0.2668952514
-0.001324718574
0.2644119315
0.003707829532
-0.2805038176
-0.009541246455
0.2792497998
0.01065129301
-0.2626756562
-0.01004367831
0.2643419434
0.008275783495
-0.2300628077
0.002435885178
0.2353505416
-0.007743512843
-0.112272665
0.0152342385
0.2236276019
-0.01482359172
-0.1117655837
-0.2261235697
0.02090142351
0.2267142656
-0.02149211939
-0.219270796
0.01268694881
0.2148876568
-0.008259089587
-0.1900780855
-0.000127208004
0.1891116053
0.001223563219
-0.1804565444
-0.0002175628412
0.1820378509
-0.001213063214
-0.2053861746
0.007129245388
0.2044549172
-0.006122670058
0.01290310957
-0.2326380577
0.2302007422
-0.01046579408
-0.4611342803
0.01905083892
0.4577240375
-0.01564059609
-0.4578415419
0.0139121947
0.4555998028
-0.01167045563
-0.01403358177
0.9051172279
0.009707879547
0.009578552043
-0.009867794962
0.9009973234
-0.005001316869
0.8967893307
0.8956449376
-0.003403868568
0.9400499793
-0.006880779276
0.9399503401
-0.01050395531
0.9396358013
-0.00714190718
0.9391425307
-0.007208352088
-0.4672918561
0.4683249385
-0.008174989672
-0.4664647203
0.009271020651
0.4676106558
-0.01041695618
-0.4655557279
0.01163445109
0.4667788337
-0.006390882103
-0.006466663066
-0.2546804874
-0.0004652508399
0.2508076356
0.004277931439
-0.2729889793
-0.01494538399
0.2700145414
0.01780330878
-0.2669027023
-0.02269554328
0.2666113066
0.02288392207
-0.2469239583
-0.01926217689
0.2491333538
0.01700364516
-0.2275612809
-0.0099470991
0.2294995407
0.008004933856
-0.2218316547
-0.007054106106
0.220651473
0.008264803044
-0.2060425263
-0.01345865608
0.2047229991
0.01486256215
-0.1891857427
-0.01568912485
0.1903922093
0.01461344217
-0.1894997791
-0.007678177132
0.1928683233
0.004430264523
-0.2133463043
0.006373411686
0.216890141
-0.009875212916
0.01195681326
-0.2280895967
0.2274522467
-0.01131946325
-0.4567756148
0.01892701614
0.4539180621
-0.01606946343
-0.4525806252
0.01251237936
0.4508698676
-0.01080162181
-0.01307960791
0.8985222226
0.01007005411
0.009604559101
-0.007381181664
0.8952988971
-0.005024361316
0.8944325104
0.8906205763
-0.003420911425
0.9434708908
-0.006906137328
0.943435566
-0.01051672653
0.9432463905
-0.007160810355
0.9429440395
-0.007157424973
-0.4693435378
0.4703618141
-0.008179086639
-0.468737995
0.009247381475
0.4698439258
-0.0103533123
-0.468047094
0.01151567883
0.469273953
-0.006390438141
-0.006352099774
-0.2381868154
0.006973435892
0.2348003747
-0.003594691585
-0.258761827
-0.009835054111
0.2544350852
0.01409179661
-0.2620204761
-0.02464865563
0.259401055
0.02718645914
-0.2512190801
-0.03160109639
0.2506323258
0.03213766811
-0.2339266286
-0.03209247894
0.2348261716
0.03118984801
-0.2195412855
-0.0300931129
0.2196240069
0.03005475782
-0.2053049102
-0.02771048392
0.2067731783
0.02632806699
-0.1974977537
-0.01946079948
0.2008386247
0.01622095187
-0.2050225748
-0.00426558278
0.2095145042
-0.0001592110257
-0.2262767051
0.01255949481
0.2260205805
-0.01230304574
0.01080950724
-0.2257768245
0.2252775019
-0.01031018463
-0.4501113266
0.01754377009
0.4483177617
-0.01575020519
-0.4492091269
0.01403476859
0.447549862
-0.01237550377
-0.01206245139
0.8911699659
0.01056020787
0.008854500247
-0.006873801064
0.8901102468
-0.004607019773
0.8921657291
0.8860135565
-0.003379183722
0.9468500745
-0.006811929609
0.9468683119
-0.01034493856
0.9467793994
-0.007046483289
0.9466288019
-0.006983217678
-0.4713499387
0.4723277908
-0.008024335369
-0.4709183593
0.009041560627
0.4719610701
-0.01008427147
-0.4704536705
0.01116717671
0.4715815271
-0.006180581719
-0.00611445159
-0.2350032319
0.006772327936
0.2353067884
-0.007075884471
-0.240956557
0.005778809435
0.2366439833
-0.001478780204
-0.2494585085
-0.01084719192
0.2458026865
0.01446216902
-0.2462408083
-0.02300756073
0.2442103025
0.02500523119
-0.2356619279
-0.02848469216
0.2354328043
0.02871135773
-0.220473097
-0.02645032774
0.2210016299
0.02595376444
-0.2137003139
-0.0202544027
0.2165053912
0.01750298307
-0.2125060417
-0.007135076738
0.2165801648
0.003107233216
-0.2230260638
0.009686076521
0.2254250726
-0.01208010489
-0.2247608868
0.01112294627
0.2244011102
-0.01076316976
0.009632304305
-0.2239734689
0.2235805404
-0.009239375795
-0.4466811623
0.0159649093
0.4451900086
-0.01447375555
-0.4460325704
0.01300816637
0.4445815537
-0.01155714968
-0.01468532697
0.8858798621
0.00983424718
0.01014118355
-0.009646228116
0.8850711479
-0.00195724215
0.8844767431
0.8840563144
-0.003289694761
0.9501397692
-0.006621077585
0.9501996947
-0.01002587886
0.9501842007
-0.006824200278
0.9501436865
-0.006716563156
-0.4732688291
0.4741924581
-0.007747829303
-0.4729644645
0.008700139028
0.473930625
-0.009666299567
-0.4726547951
0.01065756353
0.4736724912
-0.005879886722
-0.005795372872
-0.2361598752
0.006406290107
0.2364257747
-0.006672189525
-0.2358111745
0.007473968701
0.2360783189
-0.007741113176
-0.2354286963
0.008535406889
0.2353438428
-0.008451293254
-0.2376661443
0.002081875224
0.2355953259
-1.820145862e-05
-0.2340079072
-0.003924515765
0.2334002042
0.004531290303
-0.2235812307
-0.003062387218
0.2247379309
0.00191532546
-0.2250014687
0.003794229786
0.2275840865
-0.006367469278
-0.2263676922
0.01124006331
0.2262473559
-0.01111972702
-0.2246992001
0.01061668509
0.2244891479
-0.01040663286
-0.2234637747
0.009673484046
0.2231914568
-0.009401166119
0.008525636543
-0.2225572114
0.2222429112
-0.008211336365
-0.4438304776
0.01436050534
0.4425900273
-0.01312005502
-0.4432645036
0.01187474476
0.4420070045
-0.01061724565
-0.01363258202
0.8811180956
0.009028268593
0.00936607991
-0.009003934558
0.8804425005
-0.004471824866
0.8799446334
0.8795844895
-0.003164003356
0.9533037726
-0.006357876898
0.9533935682
-0.009599590138
0.953425914
-0.006525074792
0.9534562337
-0.00638706257
-0.4750755596
0.4759369281
-0.007386443275
-0.4748541365
0.008267074969
0.4757386178
-0.009151556264
-0.4746351418
0.01004875904
0.4755450754
-0.005525268065
-0.00543342456
-0.2371683973
0.005987637223
0.2373988927
-0.006218132677
-0.2368097168
0.0068996669
0.2370319279
-0.007121877982
-0.2360377298
0.007766445503
0.2362434271
-0.007972142809
-0.2348218838
0.008553504535
0.2350017033
-0.008733324054
-0.2323489037
0.00917880557
0.2322402621
-0.009070163925
-0.2268901959
0.00946940953
0.2271888394
-0.009768053026
-0.2284552587
0.009842585984
0.228436025
-0.009823352312
-0.2259262339
0.009648932758
0.2258297188
-0.009552417603
-0.2239376097
0.009160587394
0.2237754822
-0.008998459804
-0.2224708378
0.008430513902
0.2222580275
-0.008217703669
0.007524230242
-0.2214286948
0.2211758777
-0.007271413088
-0.4414544356
0.01283425771
0.4404142633
-0.01179408536
-0.4408695749
0.01073439962
0.4397820876
-0.009646912391
-0.01250157678
0.8768674627
0.00820543758
0.008546772159
-0.008296528504
0.8762374522
-0.004131817251
0.8757799222
0.8754526722
-0.00301351429
0.9563172869
-0.006046070706
0.9564261247
-0.009103558439
0.9564834017
-0.006176889558
0.9565501387
-0.006020573902
-0.47675674
0.4775531621
-0.006973311678
-0.4765802191
0.007780939092
0.4773836193
-0.008584339257
-0.4764021114
0.009389969354
0.4772085813
-0.005140065117
-0.005056374138
-0.2380414111
0.005549821241
0.2382407765
-0.005749186586
-0.2376405662
0.006328130383
0.2378257559
-0.006513320105
-0.2367952643
0.007039769113
0.2369599035
-0.007204408326
-0.2354775077
0.007662375615
0.2356174021
-0.007802270003
-0.2318756919
0.008083037463
0.2317450507
-0.007952396315
-0.2279253316
0.008353307974
0.2281217895
-0.008549765901
-0.2283625752
0.008555552763
0.2283341686
-0.008527146202
-0.22556354
0.008361886724
0.225481281
-0.008279627749
-0.2233400957
0.007958135772
0.2232093196
-0.007827359598
-0.2216862895
0.007370944208
0.221514873
-0.00719952773
0.006636665402
-0.2205159728
0.2203085125
-0.006429205129
-0.4394593932
0.01142795519
0.4385814066
-0.01054996862
-0.4387994519
0.009644017656
0.4378575471
-0.008702112813
-0.01136626507
0.8730901851
0.007406915406
0.007736627229
-0.007573060272
0.8724442474
-0.003780241416
0.8719871033
0.8716724308
-0.002847752702
0.9591650396
-0.005705122204
0.9592834942
-0.00856791101
0.9593461905
-0.005799120148
0.9594195146
-0.00563816676
-0.4783081492
0.4790415427
-0.006532513748
-0.4781459859
0.00726949158
0.4788725131
-0.007996018809
-0.4779670226
0.008717323839
0.4786801667
-0.004751530786
-0.004678937217
-0.2387963579
0.00511468127
0.2389688394
-0.005287162708
-0.2383342518
0.00578024676
0.2384893873
-0.005935382239
-0.2374044745
0.006369117022
0.237538007
-0.00650264959
-0.2359895002
0.006869886627
0.2360993254
-0.006979711819
-0.2313370763
0.007143204874
0.2311979726
-0.007004101106
-0.2285928064
0.007402071625
0.2287165552
-0.007525820446
-0.2282404498
0.007491672499
0.2282069363
-0.007458159049
-0.2252499856
0.007299942922
0.2251773593
-0.007227316669
-0.2228516635
0.006953515185
0.2227424371
-0.006844288748
-0.2210480673
0.006466134756
0.2209063195
-0.006324386957
0.005857414726
-0.2197631862
0.2195899157
-0.005684144196
-0.437771933
0.010157609
0.4370242102
-0.009409886256
-0.4370061819
0.008630494952
0.4361876052
-0.007811918202
-0.01027224284
0.8697405877
0.006657770421
0.006964069826
-0.006866491579
0.8690384961
-0.003434215984
0.8685548277
0.8682382148
-0.002675682545
0.9618407221
-0.005353108775
0.9619609204
-0.008020465858
0.9620135476
-0.005415047197
0.9620698211
-0.005255725137
-0.4797332203
0.4804062374
-0.006088064325
-0.4795611774
0.006758831385
0.4802171322
-0.00741478627
-0.4793509146
0.008060362036
0.4799820279
-0.004377061443
-0.004314413865
-0.2394500643
0.004699209151
0.2395997516
-0.004848896475
-0.2389169394
0.005271058093
0.2390478891
-0.0054020078
-0.2379013285
0.00576330352
0.2380113301
-0.005873305043
-0.2363921499
0.006172914812
0.2364786945
-0.006259459446
-0.2307789948
0.006339815532
0.2306403963
-0.006201217061
-0.2290103828
0.006586898956
0.2290867891
-0.006663305283
-0.2281013063
0.006604104737
0.2280647479
-0.006567546345
-0.2249706004
0.006415414652
0.2249049978
-0.006349812056
-0.2224394069
0.006110243768
0.2223456555
-0.006016492356
-0.2205157932
0.005695185601
0.2203959126
-0.005575304939
0.005180263345
-0.2191312276
0.2189841474
-0.005033183229
-0.4363313914
0.009029736291
0.4356883278
-0.008386672669
-0.4354466313
0.007711277551
0.4347317985
-0.006996444815
-0.009250675013
0.8667698148
0.005971291834
0.006250156076
-0.006199828689
0.8659876498
-0.003105811464
0.8654608105
0.8651324034
-0.002503892817
0.9643446149
-0.005003166051
0.9644601936
-0.007480586268
0.9644909678
-0.005037791895
0.9645122226
-0.004885195857
-0.4810383905
0.4816550041
-0.005654405517
-0.4808388041
0.006264526016
0.4814311965
-0.00685691836
-0.4805762886
0.007435412912
0.4811362486
-0.004025592569
-0.003969780305
-0.2400181387
0.004311733727
0.2401486566
-0.004442251696
-0.2394102922
0.004806102154
0.2395218176
-0.004917627586
-0.2383130527
0.005222341444
0.2384051969
-0.005314485634
-0.2367095146
0.00556246809
0.2367777298
-0.005630683365
-0.2302331502
0.005651195797
0.23010134
-0.005519385566
-0.2292659794
0.005886425746
0.2293117631
-0.005932209429
-0.2279521467
0.005856843069
0.2279138636
-0.005818559907
-0.2247167043
0.005672004778
0.2246565195
-0.005611819954
-0.2220827283
0.005398028711
0.2220005523
-0.005315852698
-0.2200624906
0.005037257288
0.2199591913
-0.004933957934
0.004594174315
-0.218592315
0.2184656984
-0.00446755766
-0.4350896283
0.008036906787
0.434531346
-0.007478624586
-0.4340834911
0.006889071448
0.4334559535
-0.006261533858
-0.008316583259
0.8641308965
0.005352951056
0.00560255051
-0.005585248639
0.8632563152
-0.002801640765
0.8626772026
0.8623307626
-0.002337678214
0.9666822931
-0.004665739384
0.9667882548
-0.006963343046
0.9667885714
-0.004677361639
0.9667617589
-0.00453551772
-0.482232422
0.482797373
-0.005242312651
-0.4819930068
0.005797796485
0.4825289656
-0.006333755238
-0.4816643378
0.006853576531
0.4821630542
-0.003700717142
-0.003651575761
-0.240514264
0.003954927632
0.2406286694
-0.00406933304
-0.239831829
0.004385182645
0.2399277235
-0.00448107718
-0.2386598906
0.004741439409
0.2387382979
-0.0048198467
-0.2369594245
0.005027375768
0.2370130369
-0.005080988137
-0.2297215187
0.005057957949
0.2296007965
-0.004937235772
-0.2294163956
0.005281879376
0.2294420917
-0.005307575561
-0.2277975455
0.00522170338
0.2277584125
-0.005182570337
-0.2244828264
0.00504127669
0.2244270148
-0.004985465156
-0.2217682152
0.004791899867
0.2216950271
-0.004718711738
-0.2196697015
0.004473263027
0.2195793298
-0.004382891332
0.004086585843
-0.2181264662
0.2180161605
-0.00397628008
-0.4340092223
0.007169216072
0.4335202083
-0.006680202047
-0.4328854881
0.006161838524
0.4323314676
-0.005607818007
-0.007476862569
0.8617803092
0.004803860338
0.005023589513
-0.005029239961
0.8608086925
-0.002525438867
0.8601734015