/*--------------------------------*- C++ -*----------------------------------*\
| =========                 |                                                 |
| \\      /  F ield         | OpenFOAM: The Open Source CFD Toolbox           |
|  \\    /   O peration     | Version:  v1912                                 |
|   \\  /    A nd           | Website:  www.openfoam.com                      |
|    \\/     M anipulation  |                                                 |
\*---------------------------------------------------------------------------*/
FoamFile
{
    version     2.0;
    format      ascii;
    class       pointVectorField;
    location    "2.05";
    object      pointDisplacement;
}
// * * * * * * * * * * * * * * * * * * * * * * * * * * * * * * * * * * * * * //

dimensions      [0 1 0 0 0 0 0];


internalField   nonuniform List<vector> 
26316
(
(0 0 0)
(0 0 0)
(0 0 0)
(0 0 0)
(0 0 0)
(0 0 0)
(0 0 0)
(0 0 0)
(0 0 0)
(0 0 0)
(0 0 0)
(0 0 0)
(0 0 0)
(0 0 0)
(0 0 0)
(0 0 0)
(0 0 0)
(0 0 0)
(0 0 0)
(0 0 0)
(0 0 0)
(0 0 0)
(0 0 0)
(0 0 0)
(0 0 0)
(0 0 0)
(0 0 0)
(0 0 0)
(0 0 0)
(0 0 0)
(0 0 0)
(0 0 0)
(0 0 0)
(0 0 0)
(0 0 0)
(0 0 0)
(0 0 0)
(0 0 0)
(0 0 0)
(0 0 0)
(0 0 0)
(0 0 0)
(0 0 0)
(0 0 0)
(0 0 0)
(0 0 0)
(0 0 0)
(0 0 0)
(0 0 0)
(0 0 0)
(0 0 0)
(0 0 0)
(0 0 0)
(0 0 0)
(0 0 0)
(0 0 0)
(0 0 0)
(0 0 0)
(0 0 0)
(0 0 0)
(0 0 0)
(0 0 0)
(0 0 0)
(0 0 0)
(0 0 0)
(0 0 0)
(0 0 0)
(0 0 0)
(0 0 0)
(0 0 0)
(0 0 0)
(0 0 0)
(0 0 0)
(0 0 0)
(0 0 0)
(0 0 0)
(0 0 0)
(0 0 0)
(0 0 0)
(0 0 0)
(0 0 0)
(0 0 0)
(0 0 0)
(0 0 0)
(0 0 0)
(0 0 0)
(0 0 0)
(0 0 0)
(0 0 0)
(0 0 0)
(0 0 0)
(0 0 0)
(0 0 0)
(0 0 0)
(0 0 0)
(0 0 0)
(0 0 0)
(0 0 0)
(0 0 0)
(0 0 0)
(0 0 0)
(0 0 0)
(0 0 0)
(0 0 0)
(0 0 0)
(0 0 0)
(0 0 0)
(0 0 0)
(0 0 0)
(0 0 0)
(0 0 0)
(0 0 0)
(0 0 0)
(0 0 0)
(0 0 0)
(0 0 0)
(0 0 0)
(0 0 0)
(0 0 0)
(-6.111247357e-07 1.190391025e-05 2.775557562e-17)
(0 0 0)
(0 0 0)
(-3.372161106e-07 0.0001333421475 3.469446952e-16)
(1.556839571e-06 0.0001133494574 2.91433544e-16)
(0 0 0)
(0 0 0)
(0 0 0)
(0 0 0)
(0 0 0)
(0 0 0)
(0 0 0)
(0 0 0)
(0 0 0)
(0 0 0)
(0 0 0)
(0 0 0)
(0 0 0)
(0 0 0)
(0 0 0)
(0 0 0)
(0 0 0)
(0 0 0)
(0 0 0)
(0 0 0)
(0 0 0)
(0 0 0)
(0 0 0)
(0 0 0)
(0 0 0)
(0 0 0)
(0 0 0)
(0 0 0)
(0 0 0)
(0 0 0)
(0 0 0)
(0 0 0)
(0 0 0)
(0 0 0)
(0 0 0)
(0 0 0)
(0 0 0)
(0 0 0)
(0 0 0)
(0 0 0)
(0 0 0)
(0 0 0)
(0 0 0)
(0 0 0)
(0 0 0)
(0 0 0)
(0 0 0)
(0 0 0)
(0 0 0)
(0 0 0)
(0 0 0)
(0 0 0)
(0 0 0)
(0 0 0)
(0 0 0)
(0 0 0)
(0 0 0)
(0 0 0)
(0 0 0)
(0 0 0)
(0 0 0)
(-3.807229299e-05 0.0001808184539 4.857225733e-16)
(-0.0002190821657 0.001134231779 3.080868893e-15)
(-2.865142594e-06 1.506673941e-05 4.163336342e-17)
(-0.0004158243845 0.002996017197 8.007483565e-15)
(-0.001031845233 0.007333415388 1.99146255e-14)
(-0.001223667328 0.009933401443 2.69784195e-14)
(-0.0005712513119 0.004697155185 1.254552018e-14)
(-0.0006937990393 0.009898011946 2.645106356e-14)
(-0.001213274991 0.01716167588 4.660161146e-14)
(-0.001009754792 0.01896288531 5.150047055e-14)
(-0.0005964537417 0.01126410487 3.011479954e-14)
(-2.220897162e-05 0.01317335989 3.520794767e-14)
(-2.401255493e-05 0.02143405951 5.821731985e-14)
(0.0003422397439 0.02115697444 5.746791931e-14)
(0.0001987589251 0.01295739141 3.463895837e-14)
(0.0006579449545 0.00993216924 2.654820808e-14)
(0.001167280541 0.01720532447 4.674038934e-14)
(0.001277830198 0.01503277789 4.082845173e-14)
(0.0006914583175 0.008314284041 2.223221607e-14)
(0.0004062106831 0.003033787243 8.10462808e-15)
(0.001008540657 0.007394518416 2.009503675e-14)
(0.0007584745285 0.004940537538 1.341982081e-14)
(0.0002372574533 0.001573062277 4.204969706e-15)
(0 0 0)
(3.994074011e-05 0.0001947270237 5.273559367e-16)
(0 0 0)
(0 0 0)
(0 0 0)
(0 0 0)
(0 0 0)
(0 0 0)
(0 0 0)
(0 0 0)
(0 0 0)
(0 0 0)
(0 0 0)
(0 0 0)
(0 0 0)
(0 0 0)
(0 0 0)
(0 0 0)
(0 0 0)
(0 0 0)
(0 0 0)
(0 0 0)
(0 0 0)
(0 0 0)
(0 0 0)
(0 0 0)
(0 0 0)
(0 0 0)
(0 0 0)
(0 0 0)
(0 0 0)
(0 0 0)
(0 0 0)
(0 0 0)
(0 0 0)
(0 0 0)
(0 0 0)
(0 0 0)
(0 0 0)
(0 0 0)
(0 0 0)
(0 0 0)
(0 0 0)
(0 0 0)
(0 0 0)
(0 0 0)
(0 0 0)
(0 0 0)
(-0.0001063294797 0.0003553356754 1.026956298e-15)
(-0.0005807511445 0.002069975304 6.022959909e-15)
(-0.0001375871038 0.0004986584326 1.415534356e-15)
(-0.001961001987 0.00888961642 2.536859611e-14)
(-0.003134433219 0.01399226646 4.060640713e-14)
(-0.003995235056 0.01948265821 5.653810753e-14)
(-0.002694075775 0.01333449398 3.805289417e-14)
(-0.004173832119 0.02853095198 8.137934771e-14)
(-0.005513213483 0.0371968296 1.078859224e-13)
(-0.005533469434 0.04279129175 1.241229342e-13)
(-0.004280926 0.03351439348 9.559020242e-14)
(-0.003314701479 0.04585691521 1.307981501e-13)
(-0.00410402422 0.05632194311 1.633970736e-13)
(-0.003215856747 0.05938007407 1.723066134e-13)
(-0.002624726503 0.04870087721 1.389305337e-13)
(4.981833e-05 0.05247387879 1.49769086e-13)
(0.0001036723493 0.06339609053 1.840610997e-13)
(0.001266346831 0.06294318599 1.82798221e-13)
(0.0009951939581 0.05205088377 1.485894741e-13)
(0.003364214535 0.04589068736 1.310757058e-13)
(0.004238413695 0.05633373402 1.63702385e-13)
(0.004909163974 0.05250308651 1.526001547e-13)
(0.003866037879 0.04235795569 1.209865541e-13)
(0.004149119333 0.02863029431 8.179568134e-14)
(0.005519271138 0.03728615953 1.083855228e-13)
(0.005220034527 0.03142153781 9.134359935e-14)
(0.003822019374 0.02348381219 6.708522626e-14)
(0.001945849418 0.008997272964 2.570166302e-14)
(0.003113207665 0.01412470563 4.105049634e-14)
(0.002199695202 0.009221225887 2.679800826e-14)
(0.001220941589 0.005213793404 1.489086632e-14)
(0 0 0)
(0.000105564336 0.0003592183543 1.040834086e-15)
(0 0 0)
(0 0 0)
(0 0 0)
(0 0 0)
(0 0 0)
(0 0 0)
(0 0 0)
(0 0 0)
(0 0 0)
(0 0 0)
(0 0 0)
(0 0 0)
(0 0 0)
(0 0 0)
(0 0 0)
(0 0 0)
(0 0 0)
(0 0 0)
(0 0 0)
(0 0 0)
(0 0 0)
(0 0 0)
(0 0 0)
(0 0 0)
(0 0 0)
(0 0 0)
(0 0 0)
(0 0 0)
(0 0 0)
(0 0 0)
(0 0 0)
(0 0 0)
(0 0 0)
(0 0 0)
(0 0 0)
(0 0 0)
(0 0 0)
(0 0 0)
(0 0 0)
(-4.574774751e-05 0.0001194479269 3.747002708e-16)
(0 0 0)
(-0.0019462466 0.006173723189 1.890154699e-14)
(-0.002892079151 0.008996807763 2.806088695e-14)
(-0.004523226882 0.01503999282 4.6893045e-14)
(-0.003322191525 0.01125392403 3.444466934e-14)
(-0.007572880984 0.03223782455 9.858780459e-14)
(-0.009185249224 0.03845385489 1.197375532e-13)
(-0.01025689111 0.04697132099 1.462163723e-13)
(-0.008634376364 0.04019747572 1.229016888e-13)
(-0.009770146373 0.06316696693 1.930539062e-13)
(-0.01112825158 0.07081222639 2.203653926e-13)
(-0.01060373721 0.07747363373 2.411126854e-13)
(-0.009402921079 0.06978928956 2.133015986e-13)
(-0.006375696496 0.08468451176 2.589595205e-13)
(-0.007029376032 0.09199077239 2.864652959e-13)
(-0.005352686499 0.09493766975 2.95749536e-13)
(-0.004882188 0.08782163051 2.686323386e-13)
(0.0002924326106 0.0917707529 2.810113253e-13)
(0.0003395832681 0.09855597936 3.073929999e-13)
(0.002287310063 0.09812659458 3.061717546e-13)
(0.002071385225 0.09131017546 2.797068133e-13)
(0.006841630561 0.08457164039 2.593342208e-13)
(0.007590572312 0.09182185539 2.86853874e-13)
(0.009000481459 0.08792039429 2.74752443e-13)
(0.008066196714 0.08050253123 2.469413563e-13)
(0.009959705587 0.06312704629 1.937339178e-13)
(0.01139047624 0.07065514341 2.209482597e-13)
(0.01143208666 0.06327361135 1.978694986e-13)
(0.009886969754 0.05590667985 1.715849685e-13)
(0.00753616181 0.0321397348 9.861556016e-14)
(0.009394490152 0.03910677371 1.223188217e-13)
(0.008093827107 0.03113271838 9.739431484e-14)
(0.006413974156 0.02522789642 7.741030039e-14)
(0.002221040131 0.007120324032 2.184363801e-14)
(0.003319762722 0.01043546451 3.261280135e-14)
(0.00187291891 0.005547964664 1.734723476e-14)
(0.001070212684 0.003232073228 9.908740495e-15)
(0 0 0)
(0 0 0)
(0 0 0)
(0 0 0)
(0 0 0)
(0 0 0)
(0 0 0)
(0 0 0)
(0 0 0)
(0 0 0)
(0 0 0)
(0 0 0)
(0 0 0)
(0 0 0)
(0 0 0)
(0 0 0)
(0 0 0)
(0 0 0)
(0 0 0)
(0 0 0)
(0 0 0)
(0 0 0)
(0 0 0)
(0 0 0)
(0 0 0)
(0 0 0)
(0 0 0)
(0 0 0)
(0 0 0)
(0 0 0)
(0 0 0)
(0 0 0)
(0 0 0)
(0 0 0)
(0 0 0)
(-0.0002114390287 0.0004950916036 1.637578961e-15)
(-0.000480831281 0.001103562981 3.719247132e-15)
(-0.001707608534 0.004125565867 1.393329896e-14)
(-0.001148077965 0.002829384009 9.36750677e-15)
(-0.006741092432 0.01976342923 6.530886942e-14)
(-0.00797390469 0.02292567753 7.727152251e-14)
(-0.01027356433 0.03154549351 1.062483435e-13)
(-0.008908013697 0.02789080751 9.212075547e-14)
(-0.01403241324 0.0552453346 1.821598428e-13)
(-0.01549495067 0.05975335858 2.009920008e-13)
(-0.01631588242 0.06877608942 2.312733338e-13)
(-0.01491564975 0.06425238081 2.117472864e-13)
(-0.01468129 0.08814460845 2.90253932e-13)
(-0.01559055656 0.09140763724 3.070460552e-13)
(-0.01436736108 0.09675278912 3.250039127e-13)
(-0.01357676052 0.0935704117 3.081701561e-13)
(-0.008464137539 0.1044400472 3.442662821e-13)
(-0.00875630275 0.1052279662 3.538003224e-13)
(-0.006534646068 0.1061846042 3.57158747e-13)
(-0.006355288604 0.1060833291 3.498312751e-13)
(0.0003507739206 0.10761024 3.553823902e-13)
(0.0003072352609 0.1065882425 3.590738817e-13)
(0.00259774514 0.1065157414 3.590183706e-13)
(0.002611774361 0.1074069229 3.549105454e-13)
(0.009178076919 0.1042383711 3.450018049e-13)
(0.00942054316 0.1049254082 3.542860449e-13)
(0.01149117925 0.1031353747 3.484434963e-13)
(0.01111405984 0.1017285441 3.368694212e-13)
(0.01514281769 0.0877212655 2.908784325e-13)
(0.0160984449 0.09100890276 3.081146449e-13)
(0.0168626961 0.0849398322 2.877559302e-13)
(0.01569764946 0.08087825097 2.683686606e-13)
(0.01446838216 0.05643466126 1.873362576e-13)
(0.01594492598 0.06090391093 2.063349491e-13)
(0.01459738341 0.0516331189 1.74887882e-13)
(0.01309270738 0.04729340497 1.569439023e-13)
(0.007121928663 0.02106471416 6.981915046e-14)
(0.008395095053 0.02431686435 8.225364834e-14)
(0.006050699279 0.01652689881 5.587197371e-14)
(0.004957203868 0.01382513661 4.579669977e-14)
(0.0003271046704 0.0007776218661 2.581268532e-15)
(0.0005619491547 0.001308592055 4.413136523e-15)
(1.426519734e-05 3.164067971e-05 1.110223025e-16)
(0 0 0)
(0 0 0)
(0 0 0)
(0 0 0)
(0 0 0)
(0 0 0)
(0 0 0)
(0 0 0)
(0 0 0)
(0 0 0)
(0 0 0)
(0 0 0)
(0 0 0)
(0 0 0)
(0 0 0)
(0 0 0)
(0 0 0)
(0 0 0)
(0 0 0)
(0 0 0)
(0 0 0)
(0 0 0)
(0 0 0)
(0 0 0)
(0 0 0)
(0 0 0)
(0 0 0)
(0 0 0)
(0 0 0)
(-2.012534312e-05 3.775146574e-05 1.387778781e-16)
(-5.491657081e-07 1.053565895e-06 0)
(0 0 0)
(-0.001509442001 0.003254210828 1.169897512e-14)
(-0.001905133808 0.0040190239 1.476596623e-14)
(-0.003951863416 0.008778185552 3.222422329e-14)
(-0.003371652811 0.007653488324 2.749189765e-14)
(-0.01093975048 0.02955852945 1.059569099e-13)
(-0.01190751806 0.0314808832 1.152966611e-13)
(-0.01445768882 0.04081237288 1.49380508e-13)
(-0.01369750868 0.03952985375 1.416089468e-13)
(-0.01889973991 0.06841217554 2.447209102e-13)
(-0.01968169626 0.06965060725 2.545602618e-13)
(-0.02018648633 0.07797416932 2.849248615e-13)
(-0.01947899823 0.07698290087 2.753353101e-13)
(-0.01752271992 0.09532087685 3.409633687e-13)
(-0.01789442493 0.09495328041 3.471112286e-13)
(-0.0160814865 0.0973856283 3.561040351e-13)
(-0.01585074123 0.09856066781 3.525929548e-13)
(-0.009179411541 0.1003379748 0)
(-0.009326132364 0.0981188976 0)
(-0.008171741041 0.09810994429 0)
(-0.006954079647 0.09814962406 0)
(-0.006871233695 0.09924785868 0)
(-0.00683389343 0.1003205494 0)
(0.0001450346142 0.1001897208 0)
(0.0001183023432 0.09912281071 0)
(0.001287166255 0.09909445961 0)
(0.001307565713 0.100161428 0)
(0.009541819701 0.09986678473 0)
(0.009549248262 0.0987701421 0)
(0.009564541531 0.09765631528 0)
(0.01072643496 0.09759366325 0)
(0.01187197879 0.09755255438 0)
(0.01187651912 0.0997542986 0)
(0.01792326555 0.0951501849 3.433225926e-13)
(0.01819392839 0.09467476974 3.49179019e-13)
(0.01957773878 0.09083945862 3.351763311e-13)
(0.01916013174 0.09074590252 3.275574256e-13)
(0.01935930384 0.06938850109 2.505495811e-13)
(0.0200533058 0.07031017341 2.595978987e-13)
(0.01903573291 0.06175223298 2.279704203e-13)
(0.01817419317 0.06028477351 2.176314684e-13)
(0.0117243144 0.03181216537 1.14713794e-13)
(0.01282218947 0.03402567201 1.25441324e-13)
(0.01010211258 0.02528133104 9.314771177e-14)
(0.009098512106 0.02328155719 8.390510509e-14)
(0.002025558399 0.00442449914 1.591782262e-14)
(0.002531884892 0.005409681961 1.988686993e-14)
(0.0009070465237 0.001847158196 6.786238238e-15)
(0.0006171409343 0.001284732783 4.62130334e-15)
(0 0 0)
(0 0 0)
(0 0 0)
(0 0 0)
(0 0 0)
(0 0 0)
(0 0 0)
(0 0 0)
(0 0 0)
(0 0 0)
(0 0 0)
(0 0 0)
(0 0 0)
(0 0 0)
(0 0 0)
(0 0 0)
(0 0 0)
(0 0 0)
(0 0 0)
(0 0 0)
(0 0 0)
(0 0 0)
(0 0 0)
(0 0 0)
(0 0 0)
(0 0 0)
(0 0 0)
(0 0 0)
(-0.0001813395097 0.000309326107 1.276756478e-15)
(-0.0001033402959 0.0001806628885 7.21644966e-16)
(-8.454137145e-05 0.000151374804 5.967448757e-16)
(-0.00273738832 0.005390207802 2.119138198e-14)
(-0.002838970655 0.005457538254 2.198241589e-14)
(-0.005256049479 0.01063819352 4.281297539e-14)
(-0.005117147228 0.01060939908 4.168887457e-14)
(-0.01375782037 0.03392714486 1.330047184e-13)
(-0.01397840737 0.03364192946 1.350586309e-13)
(-0.01663929335 0.0427340949 1.714323128e-13)
(-0.01640363703 0.04317185007 1.691286e-13)
(-0.02127189684 0.07001862173 2.73905898e-13)
(-0.02149560832 0.06900188648 2.764177776e-13)
(-0.02177180656 0.07618027598 3.051447983e-13)
(-0.0215691438 0.07741502467 3.0281333e-13)
(-0.01848575049 0.09075819591 3.552436123e-13)
(-0.0185854913 0.08883131897 3.561040351e-13)
(-0.01645965259 0.08952173299 0)
(-0.01640231781 0.09169218696 3.590738817e-13)
(-0.009567277211 0.09154812814 0)
(-0.00960117099 0.09044739652 0)
(-0.008462640301 0.09042555904 0)
(-0.00842888971 0.09152455899 0)
(0.009476675481 0.09110513168 0)
(0.009455931111 0.09001475684 0)
(0.0105938849 0.08998182681 0)
(0.01061578734 0.09107055789 0)
(0.0185011974 0.09038294712 3.573114027e-13)
(0.01849413498 0.08844674396 3.581857033e-13)
(0.02034054827 0.08659829345 3.508998647e-13)
(0.0202737153 0.08820598285 3.489014633e-13)
(0.0219825331 0.0721168704 2.854105841e-13)
(0.02223652909 0.07131494197 2.891575868e-13)
(0.02146832766 0.06365217098 2.580297087e-13)
(0.02117203029 0.06423044245 2.541578059e-13)
(0.0150481032 0.03729451424 1.473265954e-13)
(0.01538538431 0.03724259905 1.507266534e-13)
(0.01249290371 0.02850506254 1.152689055e-13)
(0.012172913 0.02844211296 1.122713034e-13)
(0.003673488508 0.007325540496 2.885192085e-14)
(0.004148202739 0.008074431498 3.258504577e-14)
(0.001978347285 0.00367069092 1.47937218e-14)
(0.001628609186 0.00309571828 1.21846977e-14)
(0 0 0)
(0 0 0)
(0 0 0)
(0 0 0)
(0 0 0)
(0 0 0)
(0 0 0)
(0 0 0)
(0 0 0)
(0 0 0)
(0 0 0)
(0 0 0)
(0 0 0)
(0 0 0)
(0 0 0)
(0 0 0)
(0 0 0)
(0 0 0)
(0 0 0)
(0 0 0)
(0 0 0)
(0 0 0)
(0 0 0)
(0 0 0)
(0 0 0)
(0 0 0)
(0 0 0)
(0 0 0)
(-0.0002976804767 0.000457436006 2.095545959e-15)
(-0.0002688646904 0.0004245114471 1.887379142e-15)
(-0.0002358704966 0.0003823863958 1.665334537e-15)
(-0.003373319322 0.006012983097 2.610411887e-14)
(-0.003488197819 0.006055766276 2.700617507e-14)
(-0.006082903814 0.01111743 4.95159469e-14)
(-0.005939067839 0.01114540246 4.835021272e-14)
(-0.0148547608 0.03312209937 1.433159147e-13)
(-0.01503558469 0.03264029985 1.44995127e-13)
(-0.01767746141 0.04092384892 1.816324868e-13)
(-0.01749928577 0.04161676198 1.799255189e-13)
(-0.02214192345 0.06567405056 2.835370827e-13)
(-0.02228174793 0.06428888469 2.849248615e-13)
(-0.02243541761 0.07047368532 3.123196146e-13)
(-0.02231449779 0.07207709671 3.111677582e-13)
(-0.01881313509 0.08272342031 3.574918139e-13)
(-0.01887512647 0.08062826094 3.577138585e-13)
(-0.01666968149 0.08088250152 0)
(-0.01661865674 0.08303696782 0)
(-0.009795009509 0.08286824865 0)
(-0.009821189725 0.08179028273 0)
(-0.008685658881 0.08176236465 0)
(-0.008659328868 0.08284032682 0)
(0.009285202584 0.08240667714 0)
(0.009258364619 0.08132238224 0)
(0.01039366829 0.08129337063 0)
(0.01042069226 0.08237711128 0)
(0.01837621907 0.08216000371 3.590322484e-13)
(0.0183217649 0.08000641711 3.590738817e-13)
(0.02036122448 0.07903618702 3.549521788e-13)
(0.02038560704 0.08105028519 3.54410945e-13)
(0.02287797038 0.06831079866 2.989275494e-13)
(0.02297795287 0.06691660611 3.007594174e-13)
(0.02244644033 0.06036217301 2.712552405e-13)
(0.02230265932 0.06151023215 2.69131939e-13)
(0.01659518058 0.03729344515 1.628974733e-13)
(0.01683292761 0.03685824737 1.653538417e-13)
(0.01397201225 0.0288225928 1.291883267e-13)
(0.01372350072 0.02905885332 1.26815225e-13)
(0.004756416228 0.008588650374 3.738676035e-14)
(0.004949651709 0.008704796071 3.891331701e-14)
(0.002552512451 0.004278533164 1.910971381e-14)
(0.002406374659 0.00414158029 1.801336857e-14)
(0 0 0)
(0 0 0)
(0 0 0)
(0 0 0)
(0 0 0)
(0 0 0)
(0 0 0)
(0 0 0)
(0 0 0)
(0 0 0)
(0 0 0)
(0 0 0)
(0 0 0)
(0 0 0)
(0 0 0)
(0 0 0)
(0 0 0)
(0 0 0)
(0 0 0)
(0 0 0)
(0 0 0)
(0 0 0)
(0 0 0)
(0 0 0)
(0 0 0)
(0 0 0)
(0 0 0)
(0 0 0)
(-0.0004391234585 0.0006006932554 3.094746681e-15)
(-0.0003958978449 0.0005582544214 2.775557562e-15)
(-0.0003574120601 0.0005190652119 2.525757381e-15)
(-0.003774268766 0.006027230421 2.919886555e-14)
(-0.003890150543 0.006031955126 3.010092176e-14)
(-0.006581391936 0.01074125317 5.355438315e-14)
(-0.006438637788 0.01082291954 5.240252676e-14)
(-0.0154821713 0.03088310926 1.490613188e-13)
(-0.01565821778 0.03031701628 1.5068502e-13)
(-0.01829260028 0.03774496719 1.874195243e-13)
(-0.01811954739 0.03852531251 1.857819454e-13)
(-0.02263899964 0.05987005815 2.882694083e-13)
(-0.02277399828 0.05841003874 2.895739204e-13)
(-0.02286577723 0.0637759083 3.161637618e-13)
(-0.02274938736 0.06544305062 3.150951722e-13)
(-0.0190492618 0.07429948151 3.581718255e-13)
(-0.01910719666 0.07218805901 3.58338359e-13)
(-0.01687003216 0.0722826796 0)
(-0.01682029806 0.07443148225 0)
(-0.01000108985 0.07426307383 0)
(-0.01002651616 0.07318928604 0)
(-0.00889252699 0.07316165629 0)
(-0.008879712724 0.07369859763 0)
(-0.008866909684 0.07423508957 0)
(0.009058252703 0.07374211701 0)
(0.009028221469 0.07266199892 0)
(0.01016227179 0.07263481732 0)
(0.0101924441 0.07371458214 0)
(0.01814215731 0.07351585112 3.590461262e-13)
(0.01807774679 0.07134846401 3.589767372e-13)
(0.02007981222 0.07033267559 3.541056337e-13)
(0.02016600152 0.0725534359 3.545774785e-13)
(0.02275760496 0.06123750215 2.995242943e-13)
(0.022632395 0.05922626342 2.984557046e-13)
(0.02209525927 0.05333307518 2.687017275e-13)
(0.02222455783 0.05517785785 2.698397061e-13)
(0.01662378901 0.03353858606 1.63702385e-13)
(0.01650547997 0.03235360043 1.626615509e-13)
(0.01366538128 0.02521920945 1.266764471e-13)
(0.01377362523 0.02616673408 1.276062589e-13)
(0.004815314904 0.007791712913 3.788636072e-14)
(0.004752216238 0.007467540967 3.738676035e-14)
(0.002407586481 0.003605037562 1.804112415e-14)
(0.002452085938 0.003781074056 1.837419106e-14)
(0 0 0)
(0 0 0)
(0 0 0)
(0 0 0)
(0 0 0)
(0 0 0)
(0 0 0)
(0 0 0)
(0 0 0)
(0 0 0)
(0 0 0)
(0 0 0)
(0 0 0)
(0 0 0)
(0 0 0)
(0 0 0)
(0 0 0)
(0 0 0)
(0 0 0)
(0 0 0)
(0 0 0)
(0 0 0)
(0 0 0)
(0 0 0)
(0 0 0)
(0 0 0)
(0 0 0)
(0 0 0)
(-0.000628872131 0.0007542058176 4.427014311e-15)
(-0.0005774699702 0.0007169037072 4.066191828e-15)
(-0.0005277544049 0.0006774346868 3.719247132e-15)
(-0.004252571698 0.006002146658 3.28903571e-14)
(-0.004380290296 0.005979201693 3.388955783e-14)
(-0.007178886279 0.01031254999 5.836997552e-14)
(-0.007024170257 0.01043367985 5.712097462e-14)
(-0.01619763757 0.02851735218 1.555977569e-13)
(-0.01638383286 0.02788765352 1.57290847e-13)
(-0.01900340421 0.03444999065 1.940947403e-13)
(-0.01882143857 0.03529721672 1.924016502e-13)
(-0.02318302633 0.05393500324 2.935013343e-13)
(-0.02332214102 0.05241541934 2.94833602e-13)
(-0.02333528148 0.05697207987 3.204658761e-13)
(-0.02321669104 0.05869124048 3.193834086e-13)
(-0.01927596785 0.06582323541 3.587130593e-13)
(-0.01933043758 0.06369338155 3.588240816e-13)
(-0.01706679639 0.06368241832 0)
(-0.01701797983 0.065832493 0)
(-0.01020295849 0.06566448896 0)
(-0.01022776062 0.0645896863 0)
(-0.009095720074 0.06456205527 0)
(-0.009083194177 0.06509945348 0)
(-0.009070620842 0.06563675058 0)
(0.008809873559 0.06511376642 0)
(0.008776783919 0.06403522366 0)
(0.009909764416 0.06400921795 0)
(0.009943096235 0.06508745489 0)
(0.01784545532 0.06473493338 3.5814407e-13)
(0.01774523975 0.06246071883 3.57422425e-13)
(0.01953973309 0.06091631188 3.488181965e-13)
(0.01971375141 0.06337248384 3.508443536e-13)
(0.02181110778 0.05220503026 2.892269757e-13)
(0.02134813161 0.04949471443 2.835925939e-13)
(0.02075164725 0.04432600556 2.539080057e-13)
(0.0211325779 0.0466139545 2.581823644e-13)
(0.01528608356 0.02732800445 1.510042091e-13)
(0.0148987107 0.02577662033 1.472988398e-13)
(0.01208535538 0.01967361565 1.122851812e-13)
(0.01244600487 0.02093870586 1.155742169e-13)
(0.003884032854 0.005559002971 3.058664433e-14)
(0.003675466015 0.005088766318 2.894906537e-14)
(0.00163428809 0.002155556909 1.224020885e-14)
(0.00177416303 0.002419184031 1.329492072e-14)
(0 0 0)
(0 0 0)
(0 0 0)
(0 0 0)
(0 0 0)
(0 0 0)
(0 0 0)
(0 0 0)
(0 0 0)
(0 0 0)
(0 0 0)
(0 0 0)
(0 0 0)
(0 0 0)
(0 0 0)
(0 0 0)
(0 0 0)
(0 0 0)
(0 0 0)
(0 0 0)
(0 0 0)
(0 0 0)
(0 0 0)
(0 0 0)
(0 0 0)
(0 0 0)
(0 0 0)
(0 0 0)
(-0.000794839209 0.0008191825651 5.606626274e-15)
(-0.0008219916493 0.0008818423652 5.787037516e-15)
(-0.0007503522423 0.0008366301339 5.287437155e-15)
(-0.004797895822 0.00588167337 3.71092046e-14)
(-0.004961214769 0.005851752346 3.83582055e-14)
(-0.007874550535 0.009772874789 6.397660179e-14)
(-0.007680251559 0.009906960925 6.240841177e-14)
(-0.01697815038 0.02592792489 1.626754287e-13)
(-0.01720423797 0.02527099976 1.647293413e-13)
(-0.01980062595 0.03095689428 2.015609901e-13)
(-0.01958189316 0.03183390489 1.995209553e-13)
(-0.02375703693 0.0477897363 2.989691827e-13)
(-0.02391682985 0.04623967589 3.005096172e-13)
(-0.02383546319 0.05000902277 3.250316682e-13)
(-0.02370261151 0.05175618723 3.237965451e-13)
(-0.01948830528 0.05728353206 3.590322484e-13)
(-0.01953918756 0.05513943077 3.590738817e-13)
(-0.01726035126 0.05508462503 0)
(-0.01721199656 0.05723421161 0)
(-0.01039810371 0.05706703518 0)
(-0.01042195462 0.05599230869 0)
(-0.009292054949 0.05596498096 0)
(-0.009280024637 0.05650254144 0)
(-0.009267954371 0.05703970122 0)
(0.00853739028 0.05650655316 0)
(0.008501243446 0.0554316342 0)
(0.009633846935 0.05540653726 0)
(0.009670343297 0.05648144749 0)
(0.01736807653 0.05546642923 3.537309334e-13)
(0.01720131032 0.05303961177 3.516631431e-13)
(0.01869427941 0.0509219876 3.378408664e-13)
(0.01894974855 0.05350018367 3.414213356e-13)
(0.02004393113 0.04192139358 2.676192601e-13)
(0.01969811691 0.03969680024 2.634559237e-13)
(0.0186870789 0.03465204944 2.298577995e-13)
(0.01928444651 0.03712617742 2.369215935e-13)
(0.0131602877 0.02048429802 1.303540609e-13)
(0.01233444356 0.01848197845 1.22235555e-13)
(0.009566110606 0.01348160497 8.903988657e-14)
(0.01039430733 0.01521782758 9.671430323e-14)
(0.002607626946 0.003244451008 2.055300374e-14)
(0.002277344611 0.00272689877 1.794397964e-14)
(0.0007397136031 0.0008436483282 5.551115123e-15)
(0.0009310500468 0.001103417605 6.980527267e-15)
(0 0 0)
(0 0 0)
(0 0 0)
(0 0 0)
(0 0 0)
(0 0 0)
(0 0 0)
(0 0 0)
(0 0 0)
(0 0 0)
(0 0 0)
(0 0 0)
(0 0 0)
(0 0 0)
(0 0 0)
(0 0 0)
(0 0 0)
(0 0 0)
(0 0 0)
(0 0 0)
(0 0 0)
(0 0 0)
(0 0 0)
(0 0 0)
(0 0 0)
(0 0 0)
(0 0 0)
(0 0 0)
(-0.001413229379 0.00121783461 9.950373858e-15)
(-0.001288405261 0.001164888654 9.076073226e-15)
(-0.001102639772 0.001043431571 7.771561172e-15)
(-0.005486223203 0.005707761391 4.239664175e-14)
(-0.005894792611 0.005859698751 4.554689959e-14)
(-0.00894225777 0.009351768248 7.255307466e-14)
(-0.008442149001 0.009240539999 6.854239398e-14)
(-0.01796818033 0.02325913584 1.716682352e-13)
(-0.01830423535 0.02263179339 1.747213485e-13)
(-0.02081351557 0.02737423352 2.11053397e-13)
(-0.02053477138 0.02827958122 2.084443729e-13)
(-0.02443847661 0.04154046903 3.055888875e-13)
(-0.02453087741 0.03979860897 3.062550213e-13)
(-0.02441274212 0.04293626956 3.304162499e-13)
(-0.0242626094 0.04472154472 3.290145933e-13)
(-0.01968907757 0.04869331533 0)
(-0.01974037331 0.04654400208 0)
(-0.0174581217 0.04648808623 0)
(-0.01743268292 0.04756237334 0)
(-0.01740754124 0.04863676781 0)
(-0.01058650178 0.04846966267 0)
(-0.01059825997 0.04793299474 0)
(-0.01003315535 0.04791952686 0)
(-0.01002145083 0.04845604624 0)
(-0.0007856709301 0.04809731117 0)
(-0.000798584684 0.04782982746 0)
(-0.0008097001107 0.04756224885 0)
(-0.0002562760953 0.0475547187 0)
(-0.0002314030448 0.04808936023 0)
(0.008223471227 0.04792071033 0)
(0.008179147832 0.04685049239 0)
(0.008134382527 0.04578058526 0)
(0.01040626178 0.04572947524 0)
(0.01049292997 0.04787071002 0)
(0.009358622531 0.04789559971 0)
(0.01658930662 0.04559434196 3.430172812e-13)
(0.01629432063 0.04293074864 3.381322999e-13)
(0.01738557932 0.040338564 3.178984853e-13)
(0.01785241269 0.04324187049 3.255173908e-13)
(0.01801248092 0.03213960216 2.419314749e-13)
(0.01736165034 0.02963160419 2.334937799e-13)
(0.01610938994 0.02527533949 1.99021355e-13)
(0.01679012173 0.02754673427 2.072231275e-13)
(0.01022147869 0.0135300873 1.014327511e-13)
(0.00960600745 0.01215453255 9.535428003e-14)
(0.007028494358 0.008361515737 6.550315845e-14)
(0.007570528517 0.00942269035 7.052691764e-14)
(0.001076917276 0.00113823808 8.493206138e-15)
(0.0008754408239 0.0008842700895 6.911138328e-15)
(6.941340181e-05 6.677030669e-05 5.273559367e-16)
(0.0001326180573 0.0001334920038 9.992007222e-16)
(0 0 0)
(0 0 0)
(0 0 0)
(0 0 0)
(0 0 0)
(0 0 0)
(0 0 0)
(0 0 0)
(0 0 0)
(0 0 0)
(0 0 0)
(0 0 0)
(0 0 0)
(0 0 0)
(0 0 0)
(0 0 0)
(0 0 0)
(0 0 0)
(0 0 0)
(0 0 0)
(0 0 0)
(0 0 0)
(0 0 0)
(0 0 0)
(0 0 0)
(0 0 0)
(0 0 0)
(0 0 0)
(-0.0013402368 0.0009327384696 9.478529073e-15)
(-0.001514597689 0.001118365142 1.071365219e-14)
(-0.001618443331 0.0012636965 1.146305273e-14)
(-0.006529578861 0.005608280939 5.066780329e-14)
(-0.006319810028 0.005133403616 4.903022433e-14)
(-0.00942945048 0.0080598684 7.68274333e-14)
(-0.00968059002 0.008749444892 7.88813459e-14)
(-0.01913770011 0.02045572461 1.833533325e-13)
(-0.01883153912 0.01903457871 1.80314097e-13)
(-0.02131100556 0.02291085691 2.166877788e-13)
(-0.0216087954 0.02456810775 2.1987967e-13)
(-0.02503554845 0.03510305954 3.135131044e-13)
(-0.02484246894 0.03292026021 3.106820357e-13)
(-0.0245378829 0.03524201962 3.326505738e-13)
(-0.02467327729 0.03750452408 3.350375533e-13)
(-0.01964227724 0.04006868257 0)
(-0.01969597848 0.03791907967 0)
(-0.01740736293 0.03786190563 0)
(-0.01738051855 0.03893645741 0)
(-0.0173536617 0.04001150852 0)
(-0.01048791493 0.03983998889 0)
(-0.01051477178 0.03876493778 0)
(-0.009370513942 0.03873635201 0)
(-0.009357079277 0.03927412722 0)
(-0.009343657086 0.03981140312 0)
(-0.009915786006 0.039825696 0)
(-0.001333604185 0.03961129651 0)
(-0.00134702542 0.03907402059 0)
(-0.001360459606 0.03853624536 0)
(-0.0002161666071 0.03850765871 0)
(-0.0001893097513 0.03958270982 0)
(0.007820709838 0.03938260404 0)
(0.0077670086 0.03723300114 0)
(0.01002115648 0.03703458366 3.577138585e-13)
(0.01010211574 0.0392945255 3.58796326e-13)
(0.01543177093 0.03533794914 3.238659341e-13)
(0.01504505591 0.03270606769 3.169547957e-13)
(0.01580449244 0.03016301358 2.924605003e-13)
(0.01626894897 0.03273766642 3.001765503e-13)
(0.01511140097 0.02225184851 2.038785807e-13)
(0.01449983785 0.02021599695 1.958710971e-13)
(0.01293052395 0.01655024258 1.601913047e-13)
(0.01381552955 0.01868735897 1.710853681e-13)
(0.007250158965 0.007900471923 7.202571872e-14)
(0.006318661823 0.006514905547 6.278311204e-14)
(0.004294112291 0.00416185493 4.005129561e-14)
(0.004893081347 0.00501233934 4.563016631e-14)
(0.0001802445584 0.0001567200301 1.415534356e-15)
(8.141534841e-05 6.697101399e-05 6.383782392e-16)
(0 0 0)
(0 0 0)
(0 0 0)
(0 0 0)
(0 0 0)
(0 0 0)
(0 0 0)
(0 0 0)
(0 0 0)
(0 0 0)
(0 0 0)
(0 0 0)
(0 0 0)
(0 0 0)
(0 0 0)
(0 0 0)
(0 0 0)
(0 0 0)
(0 0 0)
(0 0 0)
(0 0 0)
(0 0 0)
(0 0 0)
(0 0 0)
(0 0 0)
(0 0 0)
(0 0 0)
(0 0 0)
(0 0 0)
(0 0 0)
(-0.0003130254239 0.0001646942019 2.220446049e-15)
(-0.0005679938438 0.0003229549286 4.024558464e-15)
(-0.0008438685076 0.0005156470994 5.967448757e-15)
(-0.004842535486 0.003255596251 3.758104938e-14)
(-0.004137262482 0.002588272294 3.211320099e-14)
(-0.006740311759 0.004438275031 5.495603972e-14)
(-0.007624889208 0.005395032574 6.21447338e-14)
(-0.01650325953 0.01381333509 1.579986142e-13)
(-0.01529959223 0.01192131325 1.465494393e-13)
(-0.01776420414 0.01472335069 1.806055305e-13)
(-0.01898766362 0.01690348254 1.929706395e-13)
(-0.02308629035 0.02531239897 2.880612415e-13)
(-0.02207154716 0.02253120973 2.753908213e-13)
(-0.02226614265 0.02461573809 3.008426841e-13)
(-0.02313304719 0.02747151798 3.126249259e-13)
(-0.01962997047 0.03112393877 3.552019789e-13)
(-0.01933791954 0.02851024898 3.493316747e-13)
(-0.01746252635 0.02901033788 3.560346462e-13)
(-0.01755733543 0.03139314404 3.588657149e-13)
(-0.01070274482 0.03124057865 0)
(-0.01075645854 0.02909047642 0)
(-0.008467892923 0.02903330363 0)
(-0.008414179212 0.03118340585 0)
(-0.009558486984 0.03121199287 0)
(-0.001548432442 0.03101188622 0)
(-0.001602146154 0.028861784 0)
(0.0006864344382 0.02880461083 0)
(0.0007401481499 0.03095471305 0)
(0.00754872122 0.03051032767 3.558819905e-13)
(0.007398301798 0.02794062346 3.503447532e-13)
(0.009371760336 0.02703825092 3.396033454e-13)
(0.009618794642 0.02976239982 3.477357291e-13)
(0.01377542349 0.02483738515 2.911559882e-13)
(0.01318064127 0.02210699642 2.785688347e-13)
(0.01348140163 0.0198182618 2.49772425e-13)
(0.01417822752 0.02241074085 2.627759121e-13)
(0.0119966979 0.01384722752 1.62064806e-13)
(0.01114615431 0.01196509593 1.504768532e-13)
(0.009461481924 0.009327898664 1.171285291e-13)
(0.01029603326 0.01091335745 1.2753687e-13)
(0.004044216505 0.00345501665 4.01761957e-14)
(0.003474892176 0.002762179301 3.450018049e-14)
(0.001778186672 0.001329108341 1.658395643e-14)
(0.002415320039 0.001940106165 2.252364961e-14)
(0 0 0)
(0 0 0)
(0 0 0)
(0 0 0)
(0 0 0)
(0 0 0)
(0 0 0)
(0 0 0)
(0 0 0)
(0 0 0)
(0 0 0)
(0 0 0)
(0 0 0)
(0 0 0)
(0 0 0)
(0 0 0)
(0 0 0)
(0 0 0)
(0 0 0)
(0 0 0)
(0 0 0)
(0 0 0)
(0 0 0)
(0 0 0)
(0 0 0)
(0 0 0)
(0 0 0)
(0 0 0)
(0 0 0)
(0 0 0)
(0 0 0)
(0 0 0)
(0 0 0)
(0 0 0)