/*--------------------------------*- C++ -*----------------------------------*\
| =========                 |                                                 |
| \\      /  F ield         | OpenFOAM: The Open Source CFD Toolbox           |
|  \\    /   O peration     | Version:  v1912                                 |
|   \\  /    A nd           | Website:  www.openfoam.com                      |
|    \\/     M anipulation  |                                                 |
\*---------------------------------------------------------------------------*/
FoamFile
{
    version     2.0;
    format      ascii;
    class       volScalarField;
    location    "2.38";
    object      p;
}
// * * * * * * * * * * * * * * * * * * * * * * * * * * * * * * * * * * * * * //

dimensions      [0 2 -2 0 0 0 0];


internalField   nonuniform List<scalar> 
12556
(
1018.8483
1016.676296
1011.702453
1002.096323
989.3426297
963.1692922
922.1787847
859.2891083
768.5161743
643.7762454
483.1070455
291.237197
82.92094754
-122.285403
-306.1977166
-457.9993651
-575.8905948
-662.9583079
-724.6574364
-766.3472686
-800.0072403
-814.6928847
-822.9435471
-826.6720088
1020.206108
1018.583326
1014.689703
1007.032982
994.1259642
971.2963188
934.2315713
882.54669
799.1043704
680.4930991
521.7092453
326.2810146
110.0771143
-106.2042227
-300.6218059
-459.2703279
-579.969051
-667.7054192
-735.3533126
-773.7564442
-806.3180969
-818.8334297
-825.8960959
-829.0710296
1023.461336
1023.035728
1021.662937
1018.27574
1008.265756
992.9901237
965.6051503
919.1420434
845.5138343
731.7144364
568.323537
356.135032
111.018808
-134.3163776
-345.3897757
-507.448429
-623.1963517
-702.0324851
-764.3651804
-794.4884377
-820.7009364
-828.6444373
-833.0372386
-834.9314395
1027.668424
1028.941001
1031.164249
1033.474876
1029.589648
1025.051363
1013.205163
980.2574714
926.248788
827.8320648
667.8219518
431.3469101
127.1362256
-184.8964671
-433.5133451
-598.2442426
-700.3372324
-762.6484973
-808.3063854
-825.2877852
-840.8632579
-842.757799
-843.2277187
-843.2415084
1031.013257
1034.236765
1040.702339
1049.689956
1053.795001
1063.45878
1071.968257
1063.650454
1041.441041
977.9129353
845.1016684
587.7625204
169.3092001
-283.4372469
-594.1984927
-750.6257254
-816.6497693
-844.8855943
-864.0273493
-863.3250914
-863.8464946
-858.3454485
-854.0900042
-851.8901838
1031.566112
1036.740747
1047.475123
1063.917993
1075.778568
1102.233676
1134.739696
1157.926954
1181.010482
1184.289136
1132.987808
902.3542143
239.3799914
-536.9959048
-904.8035137
-988.2606042
-970.7513584
-944.0155731
-926.4796017
-903.6995371
-886.1886452
-872.5255838
-863.1907987
-858.6821157
1027.463823
1034.368635
1048.701978
1071.537636
1093.063904
1134.090005
1190.440649
1245.26692
1319.032781
1407.292672
1532.290872
1606.538065
413.3268457
-1343.526441
-1469.142484
-1311.706436
-1154.353818
-1048.907174
-986.6508958
-940.4643201
-904.2822516
-882.1916732
-868.1554149
-861.5050059
1017.107003
1025.233243
1042.076574
1069.335566
1099.028859
1150.856568
1224.532073
1304.937191
1415.944798
1572.442523
1863.844442
2487.364838
-3336.784917
-2247.760741
-1666.914351
-1328.852586
-1141.30808
-1032.878585
-966.8293181
-912.8764252
-884.27053
-866.6773003
-858.3013778
999.2878067
1007.967523
1025.918706
1055.097539
1090.681011
1147.493744
1228.466895
1322.640056
1446.690903
1611.533335
1877.17341
2253.110302
-4702.965147
-2749.542333
-1896.799048
-1438.923465
-1196.348591
-1054.852434
-975.2635917
-908.707389
-876.4492998
-856.8396046
-847.4539652
973.3856774
981.8976038
999.4271129
1027.810373
1066.386924
1122.094595
1200.063285
1292.839889
1406.059549
1544.896122
1729.539323
1921.229433
-4181.229711
-2666.603133
-1889.091488
-1439.981621
-1196.288118
-1045.093898
-962.5582904
-890.0038862
-857.3730167
-837.5330355
-828.0032242
939.4470496
947.1348084
962.8403103
987.9196824
1026.820861
1076.18291
1143.498016
1226.4283
1319.683272
1425.885032
1553.402408
1679.106501
-3059.355687
-2200.131542
-1679.942747
-1341.713417
-1141.309724
-1003.446244
-928.2699095
-856.7656579
-826.9824852
-808.6760516
-799.8321586
898.1228539
904.4660446
917.368352
936.8589782
974.8491954
1013.474657
1065.171795
1133.5373
1204.213181
1280.498014
1368.716768
1477.793443
-1949.218439
-1611.682162
-1371.65453
-1179.019578
-1045.018762
-935.5266266
-875.4176137
-810.6222367
-786.5504367
-771.1412908
-763.650492
850.5841201
855.2607017
864.913089
878.5759935
911.0043222
938.2986426
971.729948
1024.00206
1071.333705
1117.989647
1164.082908
1244.886264
-695.4697791
-970.4386086
-1070.715123
-1058.44377
-994.4536398
-926.6078159
-850.7074417
-808.7261341
-755.9091858
-738.34295
-726.5373115
-720.8272945
798.2484014
801.1650174
807.3782279
815.6624255
841.2355679
856.854372
872.9267162
906.7163183
931.7589977
948.6328295
944.8413128
936.7155829
319.5006661
-373.0975056
-671.2371143
-796.1232361
-819.8813571
-801.8254648
-759.0770802
-734.8458443
-695.9862426
-684.7686081
-676.8747651
-673.121295
742.6818266
743.7913986
746.2440089
749.0145118
768.3591058
771.8717983
772.1274235
786.2501791
789.8452642
780.9885427
736.0817116
606.1524227
299.9234317
-127.8861877
-433.1754352
-602.4520528
-670.0889385
-683.5887022
-667.3534841
-659.3283623
-633.5252526
-628.278996
-624.2571158
-622.3975134
685.4239137
684.9150036
683.9020119
681.6616709
695.222456
688.9063568
676.8051444
671.2171103
653.0538299
623.198962
559.8671336
447.5451588
223.8265188
-66.772912
-314.627308
-470.4564127
-548.085343
-578.1732975
-581.4653049
-585.9258509
-571.3007253
-571.2120005
-570.6294584
-570.4240245
627.9366132
626.1194417
622.308961
616.0664084
624.2415425
610.5289426
589.2177528
569.5704124
529.2782682
479.717633
407.2623243
300.4822833
125.1995096
-75.47301483
-255.3398132
-379.6435477
-449.3195453
-487.958378
-503.8158337
-517.0606244
-511.433287
-515.4573885
-517.6463686
-518.7287077
571.4842802
568.6730646
562.7400001
553.5377905
557.3190052
538.43794
511.1714284
484.6966989
430.8015897
366.4923742
287.1677877
191.4749082
54.16287915
-88.88710471
-214.6619414
-306.6390742
-368.2800426
-411.26932
-435.1783422
-453.9868988
-455.2411425
-462.2390535
-466.5221671
-468.5500882
517.0322263
513.5197584
506.0903094
494.8796105
495.4428714
473.4786414
443.029112
414.0880655
360.5756717
294.3111632
214.0416012
124.3474826
19.14483391
-84.56504495
-174.0602396
-247.4388243
-304.8196395
-347.9936461
-375.6774994
-397.4351027
-403.3989498
-412.3377597
-418.0476441
-420.773853
465.2692784
461.3275456
452.9847236
440.6002526
439.0065098
415.6201674
384.1353504
355.097487
304.5991693
244.2276131
175.0007648
100.7539338
15.38474062
-66.01515158
-139.6980539
-202.9110047
-254.7394013
-295.8554848
-324.4942015
-347.3118219
-356.2136177
-366.2316364
-372.7943368
-375.9262562
416.6443379
412.5064662
403.7560679
390.908796
387.9182016
364.3826914
333.4690983
305.5317356
259.2025202
205.8897986
147.0903582
83.77271401
14.4610649
-52.58510275
-114.2663187
-168.6052497
-214.6679298
-252.5986391
-280.6092824
-303.1632186
-313.6401862
-324.0766531
-331.0228385
-334.3407259
371.4001821
367.2475159
358.48064
345.7194651
341.9309429
319.1080057
289.8731233
263.598089
221.815663
174.9344931
124.4702003
70.72756467
13.10472139
-42.79892452
-94.83161271
-141.5482161
-182.109693
-216.3929684
-242.9040887
-264.376957
-275.457139
-285.8155063
-292.7893194
-296.125015
329.6053271
325.5705091
317.0669281
304.7792589
300.6518735
279.0980647
252.0102176
227.8556759
190.5724976
149.45524
106.0071259
60.1744063
11.68625143
-35.39202862
-79.55586812
-119.7509088
-155.2684232
-185.8793062
-210.3455519
-230.3118001
-241.3164099
-251.2521891
-258.0043269
-261.2386484
291.1968577
287.3732735
279.3254629
267.7687954
263.6396596
243.6870891
218.9837016
197.1250932
164.1138881
128.139358
90.66511884
51.4238537
10.31871315
-29.59884442
-67.2481594
-101.8535394
-132.8347536
-159.9383151
-182.0959589
-200.3422558
-210.8212437
-220.1158496
-226.4820393
-229.5347958
256.0229014
252.4727128
245.0067524
234.3408716
230.4443524
212.2608368
190.013086
170.482682
141.4362691
110.0475889
77.70799326
44.03988903
9.042605977
-24.94238507
-57.11901763
-86.90933452
-113.8438956
-137.6786469
-157.470761
-173.9078984
-183.5753284
-192.1021423
-197.9804439
-200.8008338
223.8737803
220.6342952
213.8247525
204.1371668
200.6296093
184.2743093
164.4534215
147.1972088
121.7859632
94.49652059
66.60938815
37.7191168
7.870571461
-21.11167985
-48.62765574
-74.24136205
-97.57384579
-118.4036929
-135.8771663
-150.5086809
-159.1993832
-166.8958072
-172.2294486
-174.7887641
194.5004271
191.5903693
185.4737077
176.800703
173.7890631
159.2513015
141.7702746
126.6875593
104.5915059
80.97537495
56.98828867
32.24282489
6.802406711
-17.89686213
-41.39413391
-63.35714193
-83.4797809
-101.5676538
-116.8264639
-129.7094228
-137.3349115
-144.1818822
-148.9463834
-151.2319638
167.6302561
165.0555346
159.6420167
151.9858703
149.5404705
136.7682275
121.5102762
108.480272
89.40547583
69.0947718
48.55358513
27.44589303
5.831721798
-15.15072441
-35.1421052
-53.88753231
-71.13984495
-86.73255749
-99.90534517
-111.1254328
-117.6482526
-123.6547388
-127.8474705
-129.857532
142.981708
140.7400736
136.0232092
129.3648136
127.5340063
116.4532047
103.2903776
92.18563045
75.87044294
58.55027683
41.08247489
23.20081251
4.949400392
-12.76727446
-29.66609393
-45.55104848
-60.22291336
-73.54313262
-84.76744626
-94.42126376
-99.83360894
-105.0254236
-108.6573601
-110.396835
120.2728504
118.3570454
114.3203427
108.6287524
107.4461608
97.97516628
86.79390245
77.46948836
63.6914821
49.09580017
34.39735194
19.40554968
4.145126953
-10.66747783
-24.8081568
-38.12666098
-50.46200979
-61.69392374
-71.1196233
-79.30095365
-83.61191572
-88.0234204
-91.1132791
-92.59102424
99.22008714
97.62124086
94.24386364
89.47976201
88.98608657
81.03363287
71.77393922
64.05609097
52.62612635
40.52987735
28.35206469
15.97640087
3.408141896
-8.790876226
-20.44407755
-31.43808237
-41.64351822
-50.95023006
-58.6922427
-65.50136829
-68.72265748
-72.39354423
-74.96328909
-76.18925862
79.57017894
78.27682233
75.53674286
71.66351018
71.86282833
65.35271211
57.90144625
51.732678
42.47274085
32.68447574
22.82238796
12.84284064
2.727738587
-7.089852952
-16.47335682
-25.34063052
-33.59222972
-41.1419976
-47.24276987
-52.78343717
-54.94526477
-57.91299781
-59.98540348
-60.97152696
60.98236557
59.9928709
57.87691022
54.84672154
55.87995274
50.68556654
44.84024265
40.29028122
33.04672323
25.40974475
17.7014528
9.943581024
2.093458345
-5.525270561
-12.81096622
-19.70869789
-26.14702097
-32.06854996
-36.59681442
-40.93307922
-42.00501248
-44.31692146
-45.90784746
-46.65751225
43.48077188
42.7671707
41.25451224
39.09908008
40.544483
36.80519867
32.50942425
29.50601905
24.17585524
18.57074712
12.89375895
7.224072286
1.495345994
-4.064085876
-9.383641414
-14.43208953
-19.16263286
-23.53709107
-26.58346123
-29.73321686
-29.95127087
-31.58871706
-32.71829631
-33.25764365
25.80662856
25.44728634
24.5522668
23.25879824
25.94044798
23.51119732
20.69635426
19.2043137
15.70246652
12.04009559
8.311261498
4.634048299
0.92381873
-2.676946023
-6.126210532
-9.412525919
-12.51063732
-15.40478515
-17.0207788
-19.09004756
-17.85784083
-18.84047939
-19.50472171
-19.76546145
12.11754823
11.83054016
11.39880669
10.76265482
11.68708529
10.47739735
9.122915069
9.224955524
7.474695134
5.691295915
3.858472448
2.12878068
0.3715116189
-1.335112695
-2.979352996
-4.561759699
-6.073122186
-7.51581698
-7.672401796
-8.626298513
-8.544694181
-9.02109477
-9.343143361
-9.580030816
2305.436435
-5076.758717
-3571.779935
1956.101103
-4568.585202
-5101.500955
1705.900496
-3333.638853
-4432.44394
1503.540538
-2126.234871
-3174.805298
1263.17532
-744.0599633
-791.4486144
-1082.961521
-1985.374443
965.9815075
404.0436606
-695.3513372
265.1494308
-380.241861
-968.1307071
2422.804866
687.4438009
-3178.214907
-1138.923099
-7073.416466
-4864.262304
-4667.074304
-2980.039597
-2448.462494
1771.356987
1934.68848
2204.283478
-6553.934681
-7110.774829
-4297.263867
-3018.070354
-3060.472097
1598.112671
1693.611981
1901.528339
1822.927201
1861.996645
1990.144692
-4666.943949
-5614.395626
-3204.277721
-2522.83106
-2928.768836
1416.257065
1489.621651
1666.998613
1602.989502
1644.271535
1728.45023
-2998.804891
-3698.470995
1217.070516
1260.597702
1463.737293
1386.214982
1448.471289
1545.602537
-1579.370141
-1568.367011
-2170.940601
999.840898
975.0329364
1227.472282
1117.811804
1149.507786
1310.771237
676.8671388
419.3391311
419.1753489
2884.222363
2434.161522
3273.791585
2965.741101
-7140.557674
-7113.295005
-4747.730915
-6777.685444
-6959.229484
2008.133324
2142.718802
2069.801513
2149.234401
2012.021089
2389.753645
2171.714067
-5673.324856
-6509.278557
-4847.39635
-6372.446658
-5579.773372
-6933.451328
-6416.084931
-4896.560472
1741.651983
1844.984499
1792.147243
1854.183554
1743.329349
2002.539546
1863.520422
-3803.266801
-4601.733486
-3813.360621
-4491.778859
-3730.633104
-5522.091561
-4611.628196
-3973.076563
1552.10878
1639.079749
1578.353533
1642.926026
1556.858701
1736.285162
1647.909697
-2259.934025
-2903.210574
1319.798792
1441.539032
1370.932051
-1528.694034
1447.277614
1325.488885
1550.212085
1454.279168
-1571.309935
-972.2309491
-1487.09677
-1526.609853
1036.313876
1136.255177
1097.762265
26.86241923
1141.940583
966.4423048
1316.474785
1154.435107
-46.28900215
1898.188568
2247.591674
2359.088611
2495.815621
2900.944841
3118.564695
-9469.904586
-6430.307977
2111.540543
2165.791768
2384.730461
-3594.737283
-2082.058656
-1846.010477
-2359.978405
-2008.172184
-1970.5701
-2288.00438
-104.7691231
-438.4980557
-825.6728724
2427.273601
2831.596676
2458.052624
2605.133985
4138.235852
3839.814188
-4585.63036
-6661.641006
-4532.832527
-2340.623758
-2684.687577
-2563.377997
-2859.66719
-2235.077983
-3629.80753
-2952.446781
-2713.17522
-1103.680748
-201.9466545
-380.0831038
987.9302743
2195.821496
3197.564688
-4324.932256
-1519.116117
606.5617215
-9535.318153
-6558.219717
-9083.23579
-6076.497938
-8942.0379
-6218.549666
-6809.023102
-6848.216826
-5111.482799
-5175.896426
-3158.287678
-3508.477192
-3291.247309
-3493.055659
-3129.838936
-3956.495937
-3548.529446
-3391.435583
1494.427543
1461.372764
1419.807445
-1586.937289
-1874.463456
-1919.423054
1233.429615
1198.47514
1132.610227
1274.816315
1218.529068
1243.295054
2991.579007
2646.515505
2657.999141
2650.974979
3006.479471
2409.013866
2611.810892
2594.473495
3266.248388
3759.44749
3994.144865
3072.615967
3670.071382
3205.126033
3731.168749
3074.3956
-7239.454882
-7246.211657
2083.337853
2169.794308
2073.638251
2279.659092
2269.37797
2391.13049
2177.919287
2255.857327
2249.209598
-6060.612357
-6114.038418
-6010.082881
-5387.55445
-5600.446256
-5054.80438
-5309.037595
-5958.127983
-6708.685636
-5864.339281
-5944.419573
-5662.732072
-5822.534237
-6671.43025
1798.906931
1790.952932
1937.558871
1927.424642
-4132.724927
-4003.4146
-4190.117534
1603.721364
1597.724028
1691.624097
1685.832825
-3073.520142
-2714.73923
-2622.350599
-2732.891464
-3094.194933
1375.718044
1342.802732
1292.362293
1405.194738
1359.037504
1385.040909
-1155.108577
1389.591645
1379.768724
1504.782829
1498.960543
-1924.677225
-1160.451478
-1213.480118
-1492.715645
1108.895935
1036.734374
953.4230914
978.1460783
528.8387016
252.423973
1249.494471
-189.0552988
213.2602757
-103.8321591
1240.245072
-290.6103131
-139.7023149
181.5648412
-8372.735809
-2176.535164
-2344.305944
784.7888008
719.6718058
938.0797331
822.8063182
844.0157524
1001.147482
310.6727562
-62.34486133
-261.7759319
4896.736342
-2376.839613
-2563.950996
-860.8251025
-1122.417733
-1110.398732
-79.05930019
-331.4058884
-34.2722123
1448.069895
2828.3477
4043.908936
-5714.307807
-2067.660067
390.1874517
-6673.947024
-7677.914996
-7508.869672
-7005.716981
-4854.230513
-5051.322976
-4836.014679
-5892.255019
-5699.670991
-5431.542603
1682.932199
1658.933708
1623.008105
1709.641449
1671.265318
1689.041844
1513.672661
1474.662903
1500.488838
1187.483729
1173.635654
1136.420734
922.735652
734.8332868
469.029409
-7192.5931
-7761.570701
-7744.72082
-7038.756953
-5867.626598
-5631.354116
-5952.987907
-5909.411088
-7028.064431
-5845.096338
-6139.236378
-5959.596342
-6352.459644
1782.958661
1764.239776
1722.914944
1751.221833
1769.864844
1762.788782
-4769.251202
-4560.972287
-4420.751199
-4151.52865
-3897.653999
-4187.976024
-5101.69738
-4680.266148
-4964.100074
-4286.361352
-4582.678245
-5040.102859
1593.731233
1563.462518
1526.375335
1611.219494
1575.582647
1599.672615
1627.412223
1642.395183
1654.466394
1570.787553
1594.578989
1575.802593
1716.988602
1723.705859
1744.547275
1658.12386
1671.119703
1663.316154
-2530.851841
-2665.996761
-2337.143616
-1347.031953
-1366.148358
1425.273498
1342.197253
1529.784766
1539.106479
1564.668325
1493.875808
1473.822393
-1711.290451
788.7011987
1012.749023
966.996592
1122.977871
1077.79578
1084.776822
221.235054
442.7715875
215.4397517
1091.878901
473.2245455
759.6048669
567.4010139
584.1531931
1283.828407
1191.743602
-8728.03457
-8081.456294
-8332.413314
-3751.25471
-3821.824506
-1978.803452
-2126.100504
-2126.71722
2513.170533
2484.887833
4181.128495
4725.548954
4685.629277
4583.597703
4125.554864
-2758.513187
-2568.064186
-2533.249249
-2566.244605
-2774.56349
-1102.992115
-921.6701451
-946.8777842
-923.2704424
-1100.556252
-695.2231457
-873.0083064
-446.2374118
-483.7436067
-646.5661114
-278.2807309
-431.2666981
-345.6911569
-9338.488466
-8062.958276
-7631.500258
-8300.450813
-8155.223674
-7446.108274
-6699.511229
-8101.934733
-7212.387784
-7081.401448
-6706.324837
-6967.688676
-7446.392908
-7269.452725
-5334.65138
-5124.244226
-4918.756078
-5184.533939
-5400.775642
-4902.723607
-5119.289156
-5476.584327
-5368.359987
-5639.511134
-5412.343689
-3304.358559
-3374.667157
-3344.215139
-3263.491476
-3415.522127
-3796.622057
-3683.739388
-3847.316359
-3466.292298
-3629.985695
-3737.548267
-1788.032356
-1774.251272
-1924.963632
1218.090006
1186.024501
1196.334088
1269.885616
1257.44989
1228.839461
2823.909946
2774.993259
2780.456828
2783.487009
2660.31451
2980.720094
2829.016414
2830.837483
2486.412038
2497.496313
2422.260853
2623.38511
2525.958354
2516.055762
3308.133731
3214.033735
3038.426573
3429.28997
3329.667381
-7922.613373
-7781.353806
-7206.31863
-7982.593005
-8187.332809
-7925.889384
-8267.511028
-8357.956776
-8268.925189
-8231.849864
-7228.756073
-7976.111523
-7979.179814
2125.848601
2122.991464
2096.835141
2164.458053
2133.119143
2137.785291
2058.143256
2034.94354
2089.48641
2065.760833
2315.327171
2323.829819
2275.904239
2400.686144
2341.579381
2331.765166
2211.602972
2209.913204
2175.11876
2261.465806
2222.279138
2224.481927
-6360.639726
-6197.578506
-5900.388504
-6291.268052
-6606.254432
-6408.685153
1829.747045
1807.265747
1863.939977
1836.612252
1771.695775
1754.09847
1799.016099
1777.416324
1985.544654
1953.926687
2026.40303
1996.107931
1901.711943
1872.390442
1943.440008
1912.232044
-4120.904499
-4308.446524
-3905.371701
-4068.661827
-4156.146747
-4612.659146
-4827.439946
-4364.773303
-4549.24254
1615.005865
1636.424992
1621.784369
1642.32995
1617.852308
1657.874655
1648.792741
1612.237572
1580.992468
1597.389208
1608.95894
1700.442419
1716.919896
1710.085177
1720.16651
1703.094735
1747.308608
1726.319092
1672.536518
1660.711734
1694.752848
1677.307
1668.722957
1676.098955
1693.842178
-2773.529733
-2891.685414
-2955.339374
-2762.666825
-3010.330284
-2939.196004
-1110.203365
-1318.083968
-1335.659105
-1112.360075
1417.702494
1352.312215
1515.433464
1531.953751
1523.16411
1480.5627
1501.104652
1511.448993
-1803.000278
1061.618468
1061.208283
1009.701471
638.5158106
562.038424
1070.412207
321.5577345
458.562657
371.8965031
1272.429084
-337.1132507
74.5758434
272.8170162
34.04156037
1195.371966
-3012.987016
-2202.815844
-1486.428555
-2324.176067
-2380.916698
-1109.145301
-1198.807141
-1675.576566
-2383.563864
-896.085094
-873.2188333
-706.0075592
-2148.694161
-1602.750679
-1577.502576
1438.073978
3293.214942
4503.399957
-6982.198618
-2791.041985
190.8032152
-2095.218269
-1806.040016
-4135.684735
-6851.854805
-7771.240277
-7955.753303
1916.040759
1890.327184
1840.116777
1961.052582
1907.682413
1934.614893
-1572.941414
-1722.995634
-1722.473768
-2241.313356
-1955.400439
-1907.603283
1294.796326
1267.622596
1280.39233
-7993.097039
-7992.137826
-7226.056186
1824.093093
1778.672331
1797.65616
1829.78374
1835.53641
1861.884667
1870.624756
1899.147804
1889.866778
1340.766571
1328.685822
1304.030023
-1539.420053
-1491.301745
-1482.624804
1330.606155
1339.945738
1333.531967
-1646.702962
-1654.843686
-1549.860056
-1369.076192
-1370.722138
-1522.866098
1127.555566
1307.373174
1314.330744
1322.226983
1163.597845
-9375.038824
-3633.446559
-1991.515114
-2066.463575
-2069.515699
-2327.675194
-2169.875292
-2142.008611
2568.320456
-5507.20642
-4990.634339
-6059.367215
-2485.250881
-2535.891571
-2373.209252
-688.6736891
-702.8010144
-520.8234466
-528.0867828
-630.9301763
-2833.323122
-2407.59784
-5486.262276
-9264.023477
-8732.753729
-8572.096365
-8966.131259
-9022.827472
-3207.836564
-3242.035222
-3189.851761
-3523.077339
-3526.443911
-3501.182364
-3058.347554
-3209.279114
-3281.681938
-3917.995607
-3859.710461
-3917.924641
-1916.859965
-1896.317973
-1928.952262
2928.807337
3011.409727
2688.004436
2692.044581
2696.220363
2655.755904
2427.403905
2438.846437
2416.565995
2617.626607
2582.43673
2576.260599
3457.605987
3279.167076
3397.84489
3625.960239
3647.893009
3791.026456
3078.493866
3149.798283
3150.576627
2107.204833
2104.252881
2102.387328
2167.760407
2157.798244
2160.219999
2055.213991
2049.125405
2097.121607
2088.510997
2285.281762
2287.543348
2272.413568
2395.577325
2375.000397
2371.448807
2186.544689
2187.067507
2177.151823
2258.561498
2246.480514
2245.518646
1805.282553
1827.962083
1821.235449
1770.09794
1776.128411
1797.51906
1949.90903
1980.57177
1965.45188
1972.202267
1961.125267
2041.970813
2031.537367
1883.706256
1950.159514
1939.299463
1899.814995
1909.247427
1939.690612
-4306.865212
-4383.502762
-3978.196797
-4049.403874
-4071.500003
-4454.219574
-4463.68028
-4359.552575
-4498.352956
-4319.735086
1362.445569
1337.600651
1349.068689
1411.580887
1395.327241
1371.361133
1393.866489
1405.178911
1399.628123
1370.396152
1374.141559
1383.448224
-1926.911254
986.2466738
1001.54522
968.1914724
672.4887171
993.2210499
411.3092561
520.012459
625.379564
1255.908661
1261.458395
1257.0319
-252.4197984
-96.7076909
-78.10396507
-94.00576502
1228.776056
1235.820173
1247.457433
-1.674777628
-87.13863162
-227.8795411
-2209.111833
-2257.458103
-2368.224868
-2318.389453
-2298.770408
5074.012416
5088.445446
5056.536269
-2439.007536
-2463.720976
-2373.129823
-2579.734499
-2521.51128
-2512.952219
-3851.103137
-3173.60717
-6600.385916
-6937.685875
-6955.904523
-6844.569405
-6894.42675
-7618.423574
-7430.344195
-7480.389877
-7333.907788
-7382.76106
-7564.08122
-5832.336718
-5744.449453
-5806.854497
-5609.36106
-5680.141411
-5769.724419
-7805.658941
-7585.293677
-7589.827419
-7531.425286
-7570.928853
-7797.312344
-6075.743663
-5986.812606
-6045.79719
-5869.412243
-5928.673333
-6020.237886
-6754.023854
-6799.282643
-6630.216914
-6693.079818
1646.963724
1641.868342
1636.870722
1577.349449
1573.452403
1566.556577
1587.428066
1580.972587
1585.798468
-1487.956901
-1544.671527
-1343.955289
-1430.678839
1442.437655
1437.92605
1455.425942
1447.676249
1346.128462
1338.198131
1344.167439
1340.347612
1547.626068
1544.598842
1536.860436
1559.910748
1552.58967
1556.828894
1469.972173
1464.851494
1486.115884
1468.513895
1476.542389
-1715.518754
-1710.86877
-1704.054031
-1549.362594
991.2317127
1005.871183
1072.332723
1104.277977
1098.863941
1080.120085
1111.600054
425.3464482
415.9295218
1036.876335
931.5662946
727.8900374
1285.630836
1302.051684
1296.469642
1177.210144
-9333.176711
-9613.045945
-9074.086611
-8978.895074
-8442.059021
-7507.56434
-9309.764357
-8972.172579
-3684.590629
-3836.596552
-2127.992367
-2119.825677
-2123.627125
2539.384309
2453.39143
4780.611558
4590.758763
4539.456661
4116.325728
3982.725909
4417.49132
4250.000454
4390.604021
-2656.455359
-2577.090283
-2714.583304
-936.5921618
-931.2031007
-919.402293
-1041.650956
-732.734113
-706.6208888
-695.9707858
-858.9689367
-796.4059039
-798.3142632
-455.8846541
-511.1811215
-504.6332606
-329.5342191
-337.8881817
-383.4000943
-8935.686858
-8852.370765
-9322.014834
-8260.986628
-8646.495155
-8645.780731
-9079.736559
-9063.656536
-7152.697859
-7035.14455
-7079.466649
-6977.717161
-6992.201557
-7097.321616
-7382.384956
-7228.484549
-7282.091994
-7127.724829
-7176.888653
-7325.210928
-5264.933744
-5188.906862
-5258.110517
-5251.872448
-5327.306555
-4945.328761
-4975.522279
-4952.265696
-5055.208654
-5558.369816
-5590.700027
-5544.141541
-5459.953587
-5534.738178
-5330.46272
-5399.053708
-5489.709678
-3344.303809
-3247.463725
-3244.882029
-3261.722435
-3200.587901
-3261.061314
-3449.030812
-3471.375882
-3400.456478
-3753.982377
-3797.029666
-3818.747123
2875.621832
2729.9192
2491.57862
2463.375788
2451.841756
2545.012233
2550.349258
2520.490668
3432.250515
3534.194374
3527.836322
3843.419175
3711.072724
3235.089789
3232.684351
3329.303787
-7864.930372
-7652.972526
-7686.215827
-7600.315532
-7623.120611
-7818.267235
-8048.328902
-8112.113014
-8323.780052
-8679.461159
-8584.162943
-8771.410155
-8773.959897
-8367.483807
-8295.3031
-8522.95788
-8479.653283
-8220.521135
2125.425579
2115.95927
2116.515047
2149.470605
2147.207588
2136.307569
2067.110505
2061.03926
2080.358702
2073.464573
2318.85462
2302.954674
2300.502964
2350.823345
2354.910865
2336.040325
2210.891343
2198.510035
2198.040467
2235.633033
2235.058272
2223.267998
-6311.288366
-6214.357286
-6264.562582
-6102.905209
-6159.185972
-6252.157402
-6552.135614
-6455.179219
-6538.761257
-6315.665386
-6378.880956
-6475.580666
1822.789069
1824.883061
1830.908404
1809.250087
1817.691598
1815.291385
1853.908903
1852.878387
1864.603033
1836.292234
1843.040904
1844.427228
1766.154834
1768.517546
1773.222118
1757.31503
1763.295895
1760.347201
1791.087768
1791.668646
1800.224359
1778.055661
1784.117869
1783.848134
1994.699894
1983.476475
1975.026197
1979.528591
1990.352263
1957.79202
1968.632386
1964.470662
2018.456106
2005.999808
1907.499033
1897.751077
1891.426999
1894.451804
1904.616909
1873.424464
1877.881938
1880.435313
1933.005859
1936.383774
1947.048119
1915.320386
1925.821934
1922.61597
1928.670456
1918.137828
-4213.187689
-4250.067398
-4142.439653
-4110.539978
-4131.907278
-4672.753529
-4703.61391
-4652.521819
-4864.85145
-4772.518281
-4743.01217
-4410.591654
-4442.185005
-4418.55644
-4596.953236
-4542.143054
-4479.196825
1621.571773
1617.860424
1611.372016
1631.12196
1624.616951
1629.054184
1633.286543
1624.610611
1655.273048
1652.42079
1608.103179
1598.019915
1592.426452
1592.502443
1590.424809
1605.065841
1599.368064
1604.279646
1706.848751
1711.815378
1723.360372
1707.71476
1740.188864
1742.670178
1750.246642
1729.120295
1735.65584
1733.235163
1668.02158
1664.042281
1687.576574
1682.141145
-2892.048781
-2877.238565
-2946.389541
-2761.093556
-2814.615152
-2849.497105
-3083.861129
-3132.113874
-2994.874752
-2996.040457
-3006.369768
-1269.707617
-1278.051588
-1333.216031
-1132.763716
-1199.683521
-1204.399713
1410.569378
1397.265984
1432.360198
1423.349342
1357.0753
1364.970708
1361.074462
1367.970309
1360.497855
1386.066417
1376.800325
1520.312348
1517.938976
1512.634789
1529.918573
1523.679231
1525.805153
1505.362899
1498.741529
1492.934552
1507.806754
1503.334761
1508.371778
-1866.969826
1058.537804
1034.462955
1035.3943
604.5053488
609.4105525
654.8358818
562.4175506
566.0707135
555.6640572
1046.582506
410.7095379
365.860193
304.2248127
1263.938667
1265.816172
1272.506912
-317.3737298
156.8683708
103.7374927
259.1974015
251.8753389
260.5289888
89.03804007
-37.75465499
-19.08788021
78.94255088
1208.79475
1224.962613
1217.331105
907.420043
853.214914
823.692559
830.5313361
748.4877403
714.3527692
714.9880034
597.729362
565.261879
552.1906155
400.9374688
376.7821161
345.099203
170.1057558
162.85986
109.4677696
-68.16209468
-54.83794318
-125.5918516
-282.7882297
-255.3377416
-330.5659385
-455.3471171
-422.9531333
-491.8189229
-583.2355143
-552.4836693
-609.1721786
-672.9964801
-647.7339112
962.8119849
921.2064682
867.2939643
902.768825
829.9237887
764.8435489
798.9970326
683.5563533
614.1447906
636.8080242
470.64781
413.4647994
406.7647496
195.6181589
173.9629546
121.0710075
-99.92567885
-74.84885331
-169.3646958
-353.9180461
-296.8525148
-406.3474662
-535.9212302
-471.2960696
-570.7828592
-654.9796685
-598.0328582
-677.4913857
-731.3327455
-685.0659008
1041.034914
1020.688986
943.1855805
1009.584227
958.9270317
857.5697504
935.0716562
836.0897547
714.5578177
791.7848467
614.2061997
497.9692738
537.9865852
260.223168
207.1446283
155.8987647
-156.1482559
-110.6535948
-251.0287862
-484.7353116
-379.4061959
-544.2173822
-674.2234858
-564.0814816
-704.8613513
-769.4817328
-678.957062
-784.0964366
-815.0864273
-750.19523
1134.285765
1144.372592
1050.290094
1145.795727
1136.889172
998.8288476
1128.55189
1077.88453
887.3125966
1048.790737
889.6245323
667.4583518
801.1494712
394.8709052
285.6547449
221.2043906
-301.0527721
-178.9750855
-446.1780114
-745.7462456
-533.2593633
-806.6019885
-906.0788618
-721.9430622
-918.9101245
-930.9853307
-805.3802425
-929.2924986
-920.8669496
-839.6453371
1225.332157
1271.398489
1177.227057
1286.934594
1335.795379
1186.312303
1353.515474
1410.157956
1154.748439
1426.693141
1423.159576
991.7405187
1367.620556
623.3077107
445.288641
399.8277696
-839.2860688
-375.6545284
-1044.343602
-1290.244369
-847.5260357
-1300.753287
-1251.292628
-981.1577793
-1222.727502
-1134.114841
-977.9187463
-1107.169975
-1040.769141
-949.9883002
1293.645966
1369.25444
1300.039728
1397.354109
1498.848089
1382.481155
1541.775091
1720.76153
1497.62517
1806.999817
2305.418155
1617.860177
1949.911877
1958.503761
1395.834563
421.5459714
-1095.992173
-420.6070257
-1850.098968
-1760.438562
-1438.332893
-2053.149527
-1682.488135
-1355.363483
-1583.223937
-1348.818164
-1189.117813
-1289.215522
-1154.248231
-1070.797116
1321.991572
1412.181737
1385.721242
1445.689027
1565.151547
1525.77627
1614.626828