/*--------------------------------*- C++ -*----------------------------------*\
| =========                 |                                                 |
| \\      /  F ield         | OpenFOAM: The Open Source CFD Toolbox           |
|  \\    /   O peration     | Version:  v1912                                 |
|   \\  /    A nd           | Website:  www.openfoam.com                      |
|    \\/     M anipulation  |                                                 |
\*---------------------------------------------------------------------------*/
FoamFile
{
    version     2.0;
    format      ascii;
    class       surfaceScalarField;
    location    "2.38";
    object      phi;
}
// * * * * * * * * * * * * * * * * * * * * * * * * * * * * * * * * * * * * * //

dimensions      [0 3 -1 0 0 0 0];
oriented        oriented;


internalField   nonuniform List<scalar> 
25162
(
0.0004921052069
0.9161578948
0.0006641855518
0.9165279197
0.0008550414351
0.9164591441
0.0004241320217
0.9164374324
0.0006434770542
0.4583355929
0.0004385391576
0.458275505
0.0005662979822
-0.0005418029606
-0.0007083376335
0.4582384271
0.0008199105739
-0.0009303768659
0.4581801831
0.00108519375
-0.00125138693
0.4581548108
0.00142657612
-0.001615322426
0.4581450585
0.001805263966
-0.001982770726
0.4581749135
0.002142857187
-0.002278003255
0.4582498165
0.002359686755
-0.002395970655
0.4583505271
0.0023789436
-0.002309868127
0.4584476314
0.002197236683
-0.002052396068
0.4584997192
0.001882676837
-0.001709631622
0.4585100446
0.001534586992
-0.001354725571
0.4584939431
0.00119578252
-0.00104524638
0.458484051
0.0008761953487
-0.0008094123079
0.458448857
0.0007105553124
-0.0005788143318
0.4584583358
0.0004704784954
-0.001846825911
0.9185920138
0.0003193025338
-0.0004144903892
-0.00115644138
0.9186596155
-4.060856982e-05
0.9157341672
0.9137593914
0.001359535682
0.9147983591
0.002257555114
0.9156299002
0.00279723481
0.9159194644
0.0010856231
0.9165279229
0.001621121148
0.4578819614
0.001306322414
-0.4581026607
-0.4580476026
-0.001609388418
0.4576733658
0.001983625255
-0.4578497193
-0.002438101027
0.4573130904
0.001391463419
0.001583266481
-0.2288449423
-0.001661284464
0.2287094267
0.001796800052
-0.002342780209
-0.2287773379
0.2286061224
0.002513995659
-0.003144697462
-0.2287551777
0.2285551717
0.003344703453
-0.003956396526
-0.2288196778
0.2286303805
0.004145693794
-0.004587501006
-0.2289766149
0.2288312778
0.004732780227
-0.004911707148
-0.2291910421
0.2291602263
0.004942618668
-0.004677112269
-0.2293578605
0.2294493469
0.004585625803
-0.004112559871
-0.2294521052
0.2296289906
0.003935674421
-0.003359828854
-0.2294772079
0.2296879773
0.003149059472
-0.002584353733
-0.2294474624
0.2296452698
0.002386546278
-0.001910961759
-0.2293904919
0.2295519634
0.001749490194
-0.4588478084
-0.00254331994
0.460239541
0.001151587354
0.0001122657865
0.4608678592
-0.001755871378
-0.4592242536
-0.002106106363
0.9179209203
0.0008224933817
0.001954706427
-0.001301194602
0.9178547037
0.0002037899
0.9142291827
0.9139631813
0.001755618621
0.9130427405
0.00459672661
0.9127887922
0.007819403585
0.9126967875
0.003555727909
0.9137032203
0.007088378334
-0.4576761195
0.4573083837
0.003923463652
-0.457261617
-0.004149032094
0.4576202194
0.003790429661
-0.4565744834
-0.004216747026
0.4559417629
0.002339440166
0.002510027324
-0.2280473443
-0.002855189368
0.2277555478
0.003146985836
-0.2277668083
-0.004160677043
0.227389384
0.004538101351
-0.2276279015
-0.005906586295
0.2264033764
0.007126836336
-0.2265166131
-0.01148218497
0.2251332345
0.01284715452
-0.2272472754
-0.01628279958
0.2264077729
0.01710906246
-0.2292704875
-0.01840857807
0.2292924057
0.0183893028
-0.2312548131
-0.01697012139
0.2321969155
0.01604470414
-0.2316639547
-0.0122728769
0.233175593
0.01077822912
-0.2305856529
-0.006381003656
0.2311727122
0.00579483529
-0.2304628127
-0.004664932464
0.2308232791
0.004304466088
-0.00305481354
-0.2302651764
0.2309307125
0.002389277431
-0.4628070674
0.0008987821694
0.4615537643
0.0003545209852
-0.4598995535
-0.0005809089492
0.4598050886
0.0006753738331
-0.0005956377011
0.9193624419
-0.0005377140598
-0.0003081697568
0.001135371115
0.9161236949
0.0005190149581
0.9148455389
0.9144821963
0.0007817424593
0.912260998
0.001734545896
0.9118359888
0.003447783049
0.9109835503
0.004065396928
0.9100175972
0.003068009146
-0.4563012832
0.4556063579
0.0047603223
-0.4588233324
-0.006290793059
0.4553916821
0.009722443304
-0.4569176908
-0.01143998635
0.4579286678
0.003520578084
0.006908431248
-0.2266670439
-0.003817590748
0.2262853239
0.004199310668
-0.2253719228
-0.006153457271
0.223081785
0.0084333659
-0.2201270037
-0.01610906285
0.2174536021
0.01873705611
-0.2195220373
-0.02616282674
0.2172690219
0.0283684356
-0.2229935081
-0.03381353194
0.2216127009
0.03516928106
-0.2291337482
-0.03759808436
0.228950386
0.03778781932
-0.2356965502
-0.03626132354
0.2369798068
0.03501392211
-0.2394619303
-0.02921643566
0.242023855
0.02670629794
-0.2378018774
-0.01816636222
0.240815894
0.01519263251
-0.2344626378
-0.002178279496
0.2389911316
-0.002348579953
-0.002953015783
-0.2317550499
0.2317471477
0.002960917994
-0.4614307485
-0.004296164207
0.4624937008
0.003233211936
-0.4604263938
-0.00216141174
0.4612850281
0.001302777461
0.001973500748
0.9189193468
-0.0008328150326
-0.0006975906621
0.001442370432
0.9166548252
0.0006524809917
0.9156354283
0.9151346773
0.0003557493264
0.9119052487
0.0008478332176
0.9113439049
0.001676925501
0.910154458
0.002217649417
0.9081550829
0.001321790396
-0.4550535689
0.453993434
0.00327778431
-0.4535378131
-0.00405615692
0.4524637455
0.005130224535
-0.4512102509
-0.006548751758
0.4497685558
0.004129255276
0.003861191589
-0.2263289608
-0.006375580051
0.2240031818
0.008700811695
-0.2151771598
-0.0188036624
0.2140360083
0.01988950915
-0.208378652
-0.02624747288
0.2052652465
0.02928077111
-0.210066585
-0.03744631773
0.2077134647
0.03973638551
-0.2170900237
-0.0453490409
0.2155584533
0.04685348984
-0.2277909707
-0.05024105875
0.2271358243
0.05090347414
-0.2405374873
-0.05078042511
0.2416452215
0.04971499166
-0.2504515531
-0.04274996343
0.253503931
0.03977218277
-0.2574830654
-0.02358625032
0.258194558
0.02295091651
-0.2422173574
-0.01532525368
0.2458051187
0.01178072634
-0.004337004345
-0.2330261734
0.2335130376
0.003850140206
-0.4639725135
-0.004792124845
0.4653477079
0.003416930404
-0.4620606254
-0.00248342539
0.4628376217
0.001706429148
0.002521338357
0.920265467
-0.002266231689
-0.001601226898
0.001296048355
0.9178801152
0.0005669839616
0.9163644927
0.9157016612
-3.832484113e-05
0.9119435736
0.0001051543715
0.9112004257
0.0006535335716
0.9096060788
0.0009212620109
0.9070838873
0.000803467171
-0.4528469334
0.4522387791
0.001529416316
-0.4515044416
-0.002839051543
0.4503037713
0.004039721881
-0.4482655503
-0.005135881452
0.4465813657
0.003421919266
0.003398146758
-0.2164831803
-0.00605055349
0.2137229624
0.008782283342
-0.2003728378
-0.01843557291
0.1968625984
0.02185759058
-0.1985557294
-0.03358681039
0.1941288103
0.03791767719
-0.2042098181
-0.04404255627
0.2035189484
0.04467772139
-0.2117150964
-0.04635251732
0.2119832423
0.04607127838
-0.224040538
-0.05010098496
0.2227081219
0.05143483072
-0.2450567184
-0.05108201721
0.2446043722
0.0515583119
-0.267492254
-0.04272151583
0.2651395392
0.04514759204
-0.2667285672
-0.03822193312
0.2707721647
0.03427781832
-0.2579108358
-0.02158100125
0.2622114834
0.01736077919
-0.005352746226
-0.2375131637
0.2396454887
0.003231679999
-0.4664794584
-0.004659277755
0.4675853933
0.003553342857
-0.4632042661
-0.002773018065
0.4635034163
0.002473867822
0.001738531749
0.9218969445
-0.001573222009
-0.001796787182
0.0008472766696
0.9187713703
0.0002921387755
0.9169196306
0.9159938
-0.000635148215
0.9125787218
-0.001072812303
0.9116380898
-0.001225292768
0.9097585593
0.0001809291392
0.9064297794
-0.0007521139206
-0.4519020343
0.4513720566
0.0007109069002
-0.4488637937
-0.00120723333
0.448162741
0.001908285994
-0.4456217925
-0.003270784846
0.4445778577
0.002095795698
0.002218791169
-0.2059292049
-0.006215367166
0.203306737
0.008785484011
-0.1856777338
-0.01752341747
0.1850010272
0.01808957276
-0.1861967768
-0.02589909206
0.1842643423
0.02773543673
-0.1975003909
-0.03224216911
0.196040407
0.0336694717
-0.204620175
-0.04894763994
0.1035407261
0.09764738178
0.02402064092
0.02835906614
-0.03480919401
-0.1086712192
0.1081084117
0.03537200152
-0.02808315136
-0.2523802353
0.05290674547
-0.0284540012
0.1276234991
0.1283871432
-0.04719948107
-0.2689983617
0.2716119705
0.04463418145
-0.2829251667
-0.03329497418
0.2850786078
0.0312466907
-0.2736166705
-0.02326273296
0.277704166
0.01927449466
-0.008472901127
-0.2487095832
0.2516800315
0.005540642493
-0.4686471944
-0.00348998676
0.4691446952
0.002992485966
-0.4642355395
-0.002102133347
0.4649422509
0.001395421971
0.0003645599646
0.9228678534
-0.0005402652942
-0.000795203543
-6.090943996e-05
0.9191968397
-0.0001250633115
0.9169837845
0.9158687367
-0.001306351184
0.913885073
-0.002514428492
0.9128461671
-0.0034450091
0.9106891399
-0.001672204747
0.907142989
-0.002486014049
-0.4512519331
0.4511545842
-0.001574855837
-0.4477609063
0.001521249438
0.4475331478
-0.001293490932
-0.4424123674
0.0009758439104
0.4410581653
7.396709056e-05
0.0002996501577
-0.1969604131
-0.002385959092
0.1955245345
0.003756466268
-0.1773470642
-0.008828653912
0.1755183324
0.01054281817
-0.1799161006
-0.01552712763
0.1784419211
0.01691035048
-0.1944094686
-0.01939676595
0.1942513774
0.01954408398
-0.08827151799
-0.01250987205
0.08795988156
0.01282150848
-0.0346430145
-0.1422708497
0.1453007701
0.03161309405
-0.03920927108
-0.2789536799
0.2817587389
0.03642912368
-0.2953971287
-0.02756072282
0.2985788453
0.02447762422
-0.288788608
-0.01537386622
0.291766211
0.01250756941
-0.008025467662
-0.2591792061
0.2617024696
0.005555320197
-0.4700037421
-0.001351162893
0.4706560199
0.0006988850536
-0.4654694646
-0.0002737903052
0.4658736748
-0.0001304198718
-0.001680407358
0.9230032432
0.001032144793
0.0005128727364
-0.001314934399
0.9188313668
-0.0006999169148
0.916368767
0.9151688198
-0.002002589557
0.9158876625
-0.003917361609
0.9147609392
-0.005880548127
0.9126523264
-0.003408920658
0.9089166901
-0.004245328531
-0.4514116525
0.4516640528
-0.003661320983
-0.4476028924
0.003976977972
0.4479264604
-0.004300545978
-0.4403160061
0.004622923845
0.4398972729
-0.001889730102
-0.002325601031
-0.1912211267
0.0003596746905
0.1899820852
0.0008114617003
-0.170467287
-0.004935941992
0.1689869306
0.006305037017
-0.1759617663
-0.009461817657
0.1753455527
0.009994370341
-0.1958933357
-0.009352038547
0.1968748345
0.008366049192
-0.0917745982
-0.001984314671
0.09251010401
0.001248808864
-0.01530087076
-0.1584982503
0.158961625
0.01483749608
-0.0218804609
-0.2871432579
0.2878547672
0.02118237288
-0.3052433087
-0.01774147082
0.3068646667
0.01621067809
-0.2991971175
-0.01071227203
0.3011672871
0.008851922225
-0.003452683867
-0.2669731597
0.2685462994
0.001938818476
-0.471559374
0.001453251788
0.4722715864
-0.002165464229
-0.465982142
0.002390086811
0.4659708272
-0.002378771939
-0.004084171362
0.921906191
0.002809563917
0.002371659619
-0.002810983343
0.9175581787
-0.001437283983
0.9149950676
0.9137315358
-0.002666043833
0.9185537064
-0.005455051105
0.9175499465
-0.008216654642
0.91541393
-0.005161171067
0.9118641357
-0.006002929146
-0.4522779076
0.4528966476
-0.005779911129
-0.4484520432
0.006522290055
0.449313661
-0.007383907846
-0.4397651
0.008273732519
0.4397447688
-0.003895789956
-0.004373446238
-0.1866980894
0.002610229189
0.1856048065
-0.001584556413
-0.1650049038
-0.001941174919
0.1637979763
0.003041475857
-0.174059668
-0.005173831852
0.1738677528
0.005288147525
-0.2003880083
-0.003227258832
0.2016830414
0.001929847281
-0.0964516312
0.001096760035
0.09689272275
-0.0007477308864
-0.0007901206851
0.003504726772
-0.1556978803
0.1546040487
-0.002410895196
-0.002864486449
-0.288440527
0.2879156778
0.003403083605
-0.3108623024
-0.00319556391
0.3115151441
0.002630418676
-0.3055763743
-0.0002508794107
0.306520677
-0.0005870469212
0.0024531618
-0.2704431659
0.2707993728
-0.002752003786
-0.4720497853
0.005357140007
0.4714120142
-0.004719368915
-0.465626211
0.004440580744
0.465812428
-0.004626797768
-0.006685397559
0.9195545793
0.004803801568
0.004233207721
-0.004398107213
0.9152708884
-0.002218192739
0.9128151532
0.9115133431
-0.003391595935
0.9219453023
-0.00680801402
0.9209663645
-0.01044433774
0.9190502537
-0.006819734704
0.9158571187
-0.00761758603
-0.453844726
0.4547982529
-0.007773261618
-0.450346507
0.008941441842
0.4515295934
-0.01012452829
-0.4400311886
0.01149128897
0.440410025
-0.005793091617
-0.006099132492
-0.1824409287
0.004348022477
0.1814017429
-0.003376299808
-0.1604378403
0.0001500072119
0.1593877995
0.0007979632255
-0.1737024063
-0.00229222395
0.1737691745
0.002153951384
-0.2055799103
0.0006539831708
0.2068645323
-0.00193943685
-0.09951431372
0.002732122982
0.09982642541
-0.001506992525
-0.001537242141
0.01340013615
-0.1452936584
0.1438500371
-0.01195651488
0.01176289184
-0.2862241662
0.2860588203
-0.01157499275
-0.3136742023
0.01370562731
0.3106729949
-0.01061742534
-0.3078823317
0.009816771562
0.3075649028
-0.009398606323
0.007650275998
-0.2685665762
0.2678058775
-0.006840942961
-0.4704749172
0.009037503712
0.4692764907
-0.007839077212
-0.4658894469
0.006747044627
0.4648829711
-0.005740568823
-0.009069900897
0.9161554238
0.006427186093
0.006041870342
-0.005924884299
0.9121258718
-0.002922554276
0.9098128231
0.9085907888
-0.004031270454
0.9259765728
-0.008133171098
0.9250682652
-0.01246455249
0.9233816351
-0.008267685918
0.9203946046
-0.00873435249
-0.4560083299
0.457210464
-0.009469820013
-0.4529845928
0.01088786169
0.4545398167
-0.01244308564
-0.4404704339
0.01416376052
0.4416253839
-0.006900479295
-0.008447818766
-0.1782364241
0.005209994901
0.1771155368
-0.004156136716
-0.1564010282
0.0009248265108
0.1554552653
-7.617568244e-05
-0.1743310517
-0.0008561403312
0.174675646
0.00044639982
-0.2106995383
0.0033274158
0.2119851969
-0.004613139709
-0.1018923846
0.004131311531
0.1021954694
-0.002196623488
-0.00223777285
0.01664247368
-0.1341611472
0.132783157
-0.01526448344
0.02074710067
-0.2851359883
0.2855074234
-0.021083139
-0.3104063024
0.01699484873
0.3152404371
-0.02174099136
-0.3055776514
0.02270379282
0.3046288492
-0.0216611483
0.01223224881
-0.2621154526
0.259748531
-0.009829087108
-0.4678583463
0.01212117738
0.466220663
-0.0104834941
-0.4638315484
0.009024431648
0.4625569276
-0.007749810856
-0.01120814058
0.9135002911
0.00714538349
0.006717889757
-0.007258603203
0.9081763345
-0.003538557652
0.9060927776
0.9050522312
-0.008270015349
0.9342465881
-0.01676629253
0.9335645424
-0.02546449879
0.9320798414
-0.009653410358
0.9297168414
-0.02513332519
-0.4587005474
0.4601615462
-0.01111440912
-0.4561692604
0.01275517869
0.4580141084
-0.01460002673
-0.4390381916
0.01650167862
0.4356245667
-0.006124340132
-0.007007550873
-0.1744246876
0.002128215805
0.1721035979
0.0001279504988
-0.1527323149
-0.0005874635522
0.1526867305
0.0005419460845
-0.1761913525
0.001545677097
0.1746476002
-6.185575662e-05
-0.2158807455
0.00482029057
0.2172200557
-0.003075551726
-0.003084049039
-0.05241555173
0.00269894191
0.0525144112
-0.002797801372
-0.05832291534
0.006233195868
0.05782976188
-0.01210540506
0.006365362651
0.0147669827
-0.1246796453
0.2456249428
-0.0253947545
0.01431141473
-0.1246289403
-0.2859614026
0.02730615932
0.2893530325
-0.03064878957
-0.3147947378
0.02858741722
0.3135786509
-0.02728035313
-0.3000900174
0.02198647629
0.2979523953
-0.01976846307
0.012265546
-0.2492787679
0.2466249674
-0.009593320323
-0.4642720236
0.01423959254
0.4623258448
-0.01229341373
-0.4612372849
0.0107821385
0.4598217646
-0.009366618109
-0.01292238638
0.9096541407
0.008611246263
0.008157290561
-0.008356657033
0.9036106051
-0.004121230475
0.9018573511
0.9009310007
-0.004799860085
0.9390464483
-0.009750414137
0.9385150965
-0.01501172021
0.9373411475
-0.01027463532
0.9354849898
-0.01050523329
-0.4636820018
0.4652295409
-0.01182217439
-0.4616372008
0.01355420295
0.4635172693
-0.01543427144
-0.4343268174
0.01748997268
0.4399301224
-0.0109392129
-0.01220650529
-0.167753933
0.01234249082
0.1679892866
-0.01264683407
-0.1495702478
0.01209692773
0.1489006991
-0.01151737908
-0.1797550936
0.009021538253
0.1786857516
-0.008006141819
-0.2216739289
0.005175430567
0.2229755408
-0.003244868036
-0.003232174376
-0.05484309787
0.005591928471
0.1101115603
-0.05482103204
-0.003018176898
-0.003021181993
-0.1122162825
0.008092709566
0.1120552587
-0.01577785057
0.007846164807
0.02436033712
-0.2389257398
0.239232732
-0.02466532109
-0.291503824
0.0283423981
0.2924447902
-0.02922417348
-0.3090004523
0.02852031027
0.3155328053
-0.03496651343
-0.2906666143
0.03058664481
0.2828717903
-0.02272826886
0.01139287463
-0.2348855244
0.232657788
-0.009162354277
-0.4606238283
0.01512669603
0.4590964336
-0.01359930125
-0.4583914811
0.01209095886
0.4567146797
-0.01041415747
-0.01240758503
0.9049720181
0.008481249083
0.008608458619
-0.009067168026
0.9002701882
-0.004447666996
0.8972378501
0.8964833337
-0.004995582586
0.9440420309
-0.01013435802
0.9436538719
-0.01556295029
0.9427697398
-0.01065984929
0.9413763928
-0.01079450401
-0.4668648126
0.4684879965
-0.01228303311
-0.4654009684
0.01403828772
0.4672691036
-0.01590642286
-0.4494968063
0.01792658321
0.4602909583
-0.01445256939
-0.01428969305
-0.1734045982
0.02258229912
0.1769293399
-0.02616587581
-0.1489714135
0.03373396673
0.1500451634
-0.03489423419
-0.1722202248
0.03332551115
0.1697871881
-0.03095624991
-0.2183472382
0.0180104204
0.2122214894
-0.01189834715
-0.1132656934
0.008990403083
0.2266651117
-0.009154193545
-0.1132356278
-0.226318924
0.0156870122
0.2268701971
-0.01623828533
-0.2509888276
0.02836043421
0.2565701232
-0.03392003373
-0.2991738076
0.04305071089
0.299918046
-0.04372714249
-0.3115176862
0.04001908919
0.3088421177
-0.03726162601
-0.2705477493
0.02612530381
0.2709267359
-0.02646022632
0.01135625845
-0.2307461337
0.2284468749
-0.009056999589
-0.4577350356
0.01693511516
0.454693301
-0.01389338053
-0.455003611
0.01247886453
0.4530323472
-0.01050760063
-0.01283801627
0.9003541389
0.008810184923
0.008645710589
-0.009148362307
0.8965805342
-0.004664630583
0.8927541184
0.8918187032
-0.005054232573
0.9490962635
-0.0102340851
0.9488337245
-0.01566293216
0.9481985868
-0.0107402005
0.9472046598
-0.01075099865
-0.4700937739
0.4717016114
-0.01234803804
-0.469098444
0.01405460132
0.4708827128
-0.01583887006
-0.4676850625
0.01773257661
0.4698490528
-0.01005690775
-0.009839762471
-0.1930208337
0.02410284511
0.200191237
-0.03130923712
-0.1581305234
0.05004242462
0.1627745818
-0.05475853241
-0.1655221221
0.06267027309
0.1658592439
-0.06307576357
-0.1975420209
0.05833817623
0.1945761374
-0.05541066508
-0.2176981803
0.04618021815
0.2127119757
-0.04120468876
-0.238964157
0.04924275852
0.2423208493
-0.05259088612
-0.2703242998
0.06331175966
0.2729726209
-0.06592269271
-0.2992857342
0.067429154
0.2974343443
-0.06551235287
-0.2963811486
0.0531419491
0.2905517496
-0.04724851868
-0.2536560598
0.02669019306
0.2464878301
-0.01949900367
0.0109484309
-0.2265797942
0.2259928061
-0.01036144275
-0.4540135544
0.0174290961
0.4513721791
-0.01478772076
-0.4502262329
0.01143320941
0.4486756006
-0.009882577119
-0.01209722205
0.8942350338
0.009383768197
0.008832558917
-0.006784978981
0.8912682911
-0.004735326311
0.8907044657
0.8870833769
-0.004994268427
0.9540905319
-0.01009272706
0.9539321831
-0.01539280193
0.9534986617
-0.0105637125
0.9528284354
-0.01045286505
-0.4732492239
0.4747799028
-0.01209439139
-0.4726044449
0.01370013673
0.474259863
-0.01535555478
-0.4717693058
0.01707932856
0.4735755575
-0.009505948869
-0.009379631394
-0.2262229574
0.01061074939
0.2341586121
-0.01855135824
-0.1830340383
0.04743482585
0.1917329339
-0.05617765654
-0.1738352476
0.0773862543
0.1788817471
-0.08248816438
-0.1927315385
0.0921894988
0.1941058386
-0.09360522168
-0.2023316494
0.08760906659
0.202982119
-0.08827570596
-0.2470142712
0.09538318549
0.2470187589
-0.09537662617
-0.273610931
0.09286439685
0.2714020563
-0.09061876454
-0.2854729849
0.07815456931
0.2793840656
-0.07201592309
-0.268030864
0.04855357892
0.2590750469
-0.03956259874
-0.2255735832
0.01279286938
0.2245965928
-0.0118156502
0.01027170286
-0.2243928383
0.2238973269
-0.009776191463
-0.447722038
0.01665447113
0.4460086268
-0.01494105993
-0.4471261369
0.01330548558
0.4455444048
-0.01172375342
-0.01135334152
0.8871955281
0.01009941858
0.008293428725
-0.006432245649
0.8863471953
-0.00438980355
0.8886620236
0.8826935733
-0.004840991948
0.9589315239
-0.00976270731
0.9588538985
-0.0148335511
0.9585695055
-0.01017208026
0.958139244
-0.009972279439
-0.4762358772
0.4776589758
-0.01159517884
-0.4758357889
0.01306990818
0.4773341505
-0.01456826976
-0.4752647313
0.01610242498
0.4768400402
-0.008917245993
-0.0087604879
-0.2370950411
0.009731956812
0.2375070937
-0.01014400935
-0.2218493719
0.01641389387
0.2325451858
-0.02711766332
-0.2001619289
0.05688722197
0.2087506947
-0.06550370088
-0.2001545618
0.08440772545
0.2025864791
-0.08686634373
-0.2140292537
0.09499065927
0.2179278108
-0.09890067473
-0.2434590369
0.09842380639
0.241353725
-0.09631005732
-0.2587983629
0.08461387044
0.2531067962
-0.07889901372
-0.2560956186
0.05660309522
0.247241959
-0.04772669982
-0.2297318042
0.01854757559
0.2236338267
-0.01244708957
-0.2231708137
0.01113472226
0.2227503692
-0.01071427779
0.00946670057
-0.2225596873
0.2221477482
-0.009054761521
-0.4443997494
0.01559084581
0.4428957717
-0.0140868681
-0.444067586
0.01262336445
0.4426297701
-0.01118554853
-0.01424762914
0.8820548958
0.009594336623
0.009793924746
-0.00936190704
0.8814614732
-0.001828967167
0.8811290838
0.8808646062
-0.004617995358
0.9635495192
-0.009293241759
0.9635291449
-0.01406656925
0.963342833
-0.009627376347
0.9630722087
-0.009372157529
-0.4790013944
0.4803038017
-0.01092978365
-0.4787472108
0.01226221739
0.4800813322
-0.01359633878
-0.4783017771
0.01493911962
0.4796537947
-0.008221228989
-0.008069908147
-0.2386299434
0.008918237385
0.2389704371
-0.009258731068
-0.2375953512
0.010261499
0.2379223195
-0.01058846737
-0.2355689745
0.01154483088
0.23670469
-0.01268085547
-0.2136125962
0.02971377644
0.2184848124
-0.03459170012
-0.2260838326
0.04783090217
0.2280310351
-0.04978154553
-0.2336629188
0.04802716521
0.2309884904
-0.04535001348
-0.2340893353
0.03147137427
0.2277631526
-0.02514112794
-0.2238974933
0.01232222077
0.2236465466
-0.01207127406
-0.2225628578
0.01122692452
0.2222569948
-0.0109210615
-0.2216289315
0.009955531216
0.221296593
-0.009623192678
0.008613787146
-0.2210394531
0.2206979799
-0.008272314013
-0.4414928872
0.0143755041
0.4401878303
-0.01307044719
-0.4413004082
0.01177908891
0.4400131724
-0.01049185315
-0.01346235854
0.8773120192
0.008976464541
0.009228770636
-0.008883719063
0.8768828337
-0.004410662173
0.8766560269
0.876453944
-0.004347845495
0.9678973647
-0.00873188665
0.9679131861
-0.0131691336
0.96778008
-0.008987253883
0.9675972069
-0.008706877963
-0.481523143
0.482704707
-0.0101688179
-0.4813326106
0.01136079104
0.4825097212
-0.01253790162
-0.4809031184
0.01370479676
0.4820565428
-0.007493534386
-0.007364686687
-0.2398987916
0.008093168593
0.2401810116
-0.008375388605
-0.2388012807
0.009191692536
0.2390634107
-0.009453822474
-0.2373703464
0.01018366105
0.2375486391
-0.01036195368
-0.2218368326
0.01036044497
0.2219083916
-0.01043200397
-0.2304876169
0.01151288404
0.2305421199
-0.01156738696
-0.2277053887
0.01157378588
0.2276682232
-0.01153662037
-0.2250966589
0.01128794953
0.2249734306
-0.01116472115
-0.2229938881
0.01069030738
0.2228046501
-0.01050106943
-0.2214505752
0.00985621906
0.2212138047
-0.009619448535
-0.220405074
0.008859780339
0.2201390448
-0.008593751144
0.007770264422
-0.2197796321
0.219494186
-0.007484818245
-0.4389752863
0.01311479319
0.4378497415
-0.01198924836
-0.4388300501
0.01085833292
0.4376874324
-0.009715715239
-0.01255525081
0.8729852453
0.00830230385
0.008579720883
-0.008318529672
0.8726461126
-0.004139656732
0.872477154
0.8723142873
-0.004050937853
0.9719483026
-0.008120468057
0.9719827163
-0.01220724343
0.9718668553
-0.008306142332
0.9717137326
-0.008017626802
-0.4838011453
0.484865338
-0.009370335016
-0.4836106631
0.01043035695
0.4846449072
-0.01146460107
-0.4831207409
0.01247683081
0.4841031579
-0.00678374744
-0.00667550033
-0.2409521447
0.007299944269
0.2411874136
-0.007535213206
-0.2397701819
0.008206093056
0.2399821735
-0.008418084614
-0.2379921558
0.008982185132
0.2381144864
-0.009104515716
-0.2221893536
0.009077505218
0.2222988999
-0.009187051542
-0.2306537963
0.0100041948
0.2306787003
-0.0100290988
-0.2275631532
0.01001438969
0.2275296513
-0.009980887758
-0.2246480269
0.009781102055
0.2245517776
-0.009684852741
-0.2223050192
0.009316526538
0.2221578626
-0.009169369888
-0.2205827929
0.008664143788
0.220395489
-0.008476839868
-0.2194205279
0.007868412187
0.2192045928
-0.007652477068
0.006973807474
-0.2187296701
0.2184894906
-0.006733627945
-0.4368043031
0.01188232393
0.4358333351
-0.01091135593
-0.4366410969
0.009923426128
0.4356307428
-0.008913072064
-0.01159385162
0.8690700997
0.007613833659
0.007895163468
-0.007709010249
0.8687612712
-0.003844226654
0.8686123704
0.8684700606
-0.003743089547
0.9756913921
-0.007490718209
0.975730345
-0.01122830592
0.975604443
-0.00761704284
0.9754369681
-0.007334498576
-0.4858457281
0.486799559
-0.008570873708
-0.485611233
0.009510769738
0.4865187381
-0.01041827486
-0.4850133147
0.01129767715
0.4858568446
-0.006120944048
-0.006020262923
-0.2418320505
0.006559299315
0.2420294388
-0.006756687653
-0.240557538
0.007314093035
0.2407312459
-0.007487800962
-0.2384206386
0.007931185634
0.2385054042
-0.008015951201
-0.22265987
0.007989061728
0.2227883815
-0.008117573263
-0.2307276838
0.008748088878
0.230737314
-0.008757719008
-0.2274325785
0.008725831452
0.2274011792
-0.008694432136
-0.2242920267
0.008526363794
0.2242137259
-0.008448062993
-0.2217636933
0.008152264567
0.2216459827
-0.008034553967
-0.2198912211
0.007629241844
0.2197400714
-0.007478092083
-0.2186173786
0.006982683128
0.2184397559
-0.006805060463
0.006240159927
-0.2178485803
0.2176455124
-0.006037091947
-0.4349306481
0.01071555552
0.4340906175
-0.009875524931
-0.4347078793
0.009012359897
0.4338160285
-0.008120509128
-0.01062638966
0.8655446607
0.006939969621
0.007211859106
-0.007087559405
0.865222441
-0.003540778586
0.8650655896
0.864929282
-0.003437486183
0.9791288783
-0.006868742251
0.979161601
-0.01027025396
0.9790059548
-0.006947451218
0.9787923329
-0.006678167544
-0.4876736439
0.4885265153
-0.007800322617
-0.4873666931
0.00863307008
0.4881634258
-0.009429802772
-0.4866395643
0.01019472147
0.4873666903
-0.005507287579
-0.005414559871
-0.24257295
0.005882725567
0.2427402299
-0.006050005478
-0.2412059563
0.006518756955
0.2413502296
-0.006663030187
-0.2387183625
0.007016190488
0.2387776289
-0.007075456815
-0.2231901092
0.007065042021
0.2233276472
-0.007202580077
-0.2307513525
0.007691318591
0.2307519539
-0.007691920025
-0.2273094893
0.007648931661
0.2272797303
-0.007619172708
-0.2239990967
0.007473743744
0.2239334989
-0.007408145932
-0.2213266768
0.007164019251
0.2212301823
-0.007067524796
-0.2193293119
0.00673536058
0.2192050784
-0.006611127008
-0.2179535608
0.006201408812
0.2178055505
-0.006053398604
0.005578479332
-0.2171048575
0.2169324503
-0.005406072172
-0.4333076873
0.009639419306
0.4325779501
-0.00890968208
-0.433002119
0.008153766629
0.4322143124
-0.007365960021
-0.009689653392
0.8623785193
0.006299850716
0.006555944044
-0.006479794486
0.8620125821
-0.003242375341
0.8618281704
0.8616869067
-0.003142836574
0.9822717149
-0.00627154594
0.9822903104
-0.009357103882
0.9820915127
-0.006312849595
0.9818102058
-0.006062127155
-0.4893049082
0.4900667837
-0.007074725079
-0.4889083751
0.00781284106
0.4896090994
-0.00851356537
-0.4880430877
0.009180982168
0.4886730433
-0.004948647379
-0.004862290419
-0.2432029629
0.005272530463
0.2433461243
-0.005415691828
-0.2417468524
0.005814468934
0.24186811
-0.005935726506
-0.2389276132
0.00622047292
0.2389697797
-0.006262639347
-0.2237452237
0.006276057786
0.2238848691
-0.006415703177
-0.2307442165
0.006795133575
0.2307389354
-0.006789852484
-0.2271927353
0.006739892953
0.2271644823
-0.006711639946
-0.2237516784
0.006583454932
0.2236955307
-0.006527307176
-0.2209657281
0.006321464551
0.2208850083
-0.006240744761
-0.2188647187
0.005963500852
0.2187609346
-0.005859716774
-0.2173979546
0.005516013256
0.2172730918
-0.005391150549
0.004987657344
-0.216472104
0.2163243904
-0.004839943688
-0.4318967109
0.008660381064
0.4312604479
-0.00802411804
-0.4314955287
0.007360137977
0.4307985037
-0.006663113045
-0.008805717306
0.8595381316
0.00570507645
0.005941028508
-0.00590178188
0.8591086466
-0.002957326069
0.8588837146
0.8587295806
-0.002865449343
0.9851371642
-0.005711262128
0.9851361232
-0.008505488431
0.984885739
-0.005723491014
0.9845232009
-0.005494992563
-0.4907600843
0.4914408477
-0.006404254404
-0.4902650312
0.007059437319
0.4908829458
-0.007677352002
-0.4892606376
0.008262060793
0.4898094392
-0.004444094356
-0.004366767989
-0.243743813
0.004725354918
0.2438674516
-0.004848993603
-0.2422030199
0.005191703756
0.2423059092
-0.00529459312
-0.2390778573
0.00552695312
0.2391087665
-0.005557862302
-0.2243010227
0.0055969679
0.2244380979
-0.005734043027
-0.2307165619
0.006028548532
0.230707222
-0.006019208613
-0.2270819115
0.005964990359
0.2270550927
-0.005938171514
-0.2235386423
0.005823721564
0.2234898141
-0.005774893302
-0.2206619783
0.005598422077
0.2205933472
-0.00552979096
-0.2184746557
0.005294852179
0.2183867469
-0.005206943301
-0.216927425
0.004915036306
0.2168209386
-0.004808549938
0.004462483624
-0.2159289611
0.2158013909
-0.004334913412
-0.4306650579
0.007781151162
0.4301075751
-0.007223668403
-0.4301623077
0.006638233275
0.4295440406
-0.00601996611
-0.00798895644
0.8569890018
0.005162604432
0.005375481762
-0.005364365981
0.8564840562
-0.002691346708
0.8562106954
0.8560382339
-0.00260877768
0.9877459419
-0.005194279378
0.9877216249
-0.007723452223
0.9874149118
-0.00518484312
0.986963488
-0.004978896218
-0.4920591822
0.4926683153
-0.00579397627
-0.4914623131