/*--------------------------------*- C++ -*----------------------------------*\
| =========                 |                                                 |
| \\      /  F ield         | OpenFOAM: The Open Source CFD Toolbox           |
|  \\    /   O peration     | Version:  v1912                                 |
|   \\  /    A nd           | Website:  www.openfoam.com                      |
|    \\/     M anipulation  |                                                 |
\*---------------------------------------------------------------------------*/
FoamFile
{
    version     2.0;
    format      ascii;
    class       volScalarField;
    location    "1.23";
    object      omega;
}
// * * * * * * * * * * * * * * * * * * * * * * * * * * * * * * * * * * * * * //

dimensions      [0 0 -1 0 0 0 0];


internalField   nonuniform List<scalar> 
12556
(
31.93050989
31.93133195
31.93223192
31.93308321
31.96659018
31.96708242
31.96740752
31.96800735
31.9692044
31.97144918
31.97513631
31.98007298
31.98428217
31.98669316
31.985214
31.9814055
31.97673951
31.97231662
31.97018659
31.96815198
31.9348888
31.93355578
31.93242945
31.93140488
31.79333015
31.79573734
31.79837557
31.80082982
31.83500706
31.83671197
31.83843893
31.85695978
31.86249169
31.87295522
31.89025414
31.91347469
31.9356814
31.94745569
31.94299042
31.92537741
31.90288875
31.88331858
31.85420526
31.84407941
31.80639065
31.8028374
31.79959774
31.79652594
31.65752331
31.66189147
31.66652083
31.67044903
31.70515341
31.70824909
31.71210235
31.73400002
31.74757032
31.77272851
31.81539885
31.871112
31.91580394
31.93919756
31.92952023
31.89058634
31.84172781
31.79733051
31.74844252
31.72647839
31.68275693
31.67565002
31.66990019
31.66497429
31.52349696
31.52923158
31.5354257
31.54076767
31.57636821
31.5815191
31.58949727
31.61855887
31.6471922
31.70583595
31.80303647
31.92550711
32.01341726
32.04243735
31.99883235
31.92214732
31.83026661
31.74365299
31.66271577
31.62078645
31.5641749
31.55231224
31.54354257
31.53630716
31.39132673
31.39882949
31.40679671
31.41360349
31.44990582
31.45768818
31.47147347
31.51197521
31.57410161
31.70252308
31.93205785
32.2406363
32.49415217
32.4789919
32.29924417
32.09526219
31.91195756
31.74470251
31.60840434
31.53192867
31.45371408
31.43334484
31.4199685
31.41010677
31.26055504
31.26949974
31.27892889
31.2873269
31.32590005
31.33820357
31.36207655
31.42121246
31.53865403
31.81321092
32.41005719
33.48359565
34.35667993
34.03871058
33.18521807
32.56762987
32.16525743
31.8355475
31.59385651
31.46385081
31.35198789
31.31756576
31.29819398
31.28524536
31.13190728
31.14250158
31.15389775
31.16434038
31.20445593
31.22288089
31.26185098
31.34985346
31.5490259
32.10899926
33.60894411
38.36839871
44.52297472
41.44253739
35.57121599
33.6083323
32.68564856
32.06149373
31.62079053
31.41878956
31.25906082
31.20573903
31.17782582
31.16101793
31.00513634
31.01716303
31.03024899
31.0429052
31.08660337
31.11290861
31.17096399
31.29378025
31.60175696
32.55281335
35.56630918
50.46704034
66.29162368
41.1718778
35.49510664
33.55269723
32.45150326
31.71189784
31.39384284
31.17483476
31.09714482
31.05826106
31.03690009
30.88113514
30.89503795
30.91070861
30.92662119
30.97334572
31.00925581
31.08950009
31.24961362
31.68342749
33.02110599
37.19788765
59.78768872
121.7148024
49.62002569
38.16421465
34.71839394
32.97795323
31.85396907
31.38832698
31.09921682
30.99375502
30.94135673
30.91455875
30.75981832
30.77530791
30.7932317
30.81246367
30.8650703
30.91181155
31.01604283
31.21302532
31.77177827
33.41874162
38.26573719
67.41348832
152.5906605
57.19860642
41.0127965
36.05267195
33.5808318
32.02619156
31.39534316
31.03147937
30.89605776
30.82885171
30.79605645
30.64279343
30.66051617
30.68148036
30.70522839
30.76203504
30.82038267
30.94910409
31.18408485
31.86761235
33.77907983
39.24446767
76.36443822
153.8119912
61.87583685
43.58024248
37.34782677
34.17440562
32.1982033
31.41229926
30.97103016
30.80691578
30.72414316
30.68464076
30.52889556
30.54822916
30.57188576
30.60045046
30.66337427
30.73434313
30.88699625
31.16285747
31.96820973
34.13529334
40.40886772
87.86514884
143.3217638
64.07901482
45.54074436
38.42170862
34.66620907
32.34408786
31.43093327
30.91705765
30.72502419
30.62769605
30.58154166
30.42028751
30.44185998
30.46907744
30.50304663
30.56842367
30.65283247
30.82869012
31.14699743
32.07309422
34.5065161
41.9347093
98.70396449
637.198963
124.2774547
64.87306574
46.826178
39.2621688
35.01734583
32.44695921
31.44225948
30.86704698
30.6515486
30.54036151
30.48762818
30.31422875
30.3378368
30.36848411
30.40744378
30.47982792
30.5820578
30.78613978
31.14762446
32.22052998
35.01817929
44.38051569
150.0342418
401.5993062
116.2804272
65.06054588
47.88108463
39.74232053
35.19246312
32.50505301
31.43849084
30.81549324
30.58208653
30.45902183
30.4004958
30.21257702
30.23829142
30.27225937
30.31559924
30.39220566
30.50806876
30.73054016
31.11756201
32.23127187
35.19551179
46.97070694
512.6653475
288.2159219
109.6754785
65.27548872
48.42091249
39.99977343
35.22489569
32.50968502
31.41789001
30.76314352
30.51588175
30.38220817
30.31859122
30.1117174
30.13942131
30.17669293
30.22497086
30.30690905
30.43479357
30.67471686
31.07253473
32.163131
35.06835298
47.69753106
647.9147034
266.0385016
110.4305299
66.88858073
49.02903967
39.98458765
35.15499023
32.47882294
31.38088228
30.70354447
30.44631345
30.30545155
30.23755508
30.01423335
30.04396426
30.08427643
30.13657075
30.22270611
30.36105241
30.61774879
31.02996526
32.06491183
34.73708084
45.54813381
366.6912245
306.4763946
118.5430857
69.65368314
49.54788151
39.77900717
35.03914911
32.41794609
31.32915171
30.63895978
30.375565
30.22804119
30.1563583
29.91539481
29.94691893
29.99023223
30.04721812
30.13872506
30.28603178
30.55785944
30.99862076
32.01550141
34.46511049
43.41992894
207.1395606
393.659726
129.3900795
71.73646747
49.32044005
39.45992751
34.89094595
32.33209918
31.25875767
30.56337983
30.29631139
30.14551209
30.07085965
29.81921769
29.85244559
29.89841859
29.95895388
30.05414719
30.20924349
30.49483867
30.96323325
32.04052534
34.51973444
43.16035747
166.4434559
430.5280116
132.4294161
70.93555912
48.57139717
39.14679988
34.72690145
32.23109
31.17572807
30.48092865
30.21258557
30.05941923
29.98298194
29.71979127
29.75435577
29.80291928
29.86792916
29.96848478
30.13050032
30.42892729
30.9237628
32.06447511
34.7565194
45.02617127
188.1449202
373.5351645
126.4242124
69.38462365
47.91274555
38.84971095
34.5573261
32.12012066
31.08277574
30.38950794
30.12041027
29.96576091
29.88826263
29.62330033
29.65899177
29.70962659
29.77758418
29.88123101
30.04974927
30.36053354
30.88115149
32.08648806
35.01934946
47.65820259
211.131532
323.4358688
121.0490479
68.08858692
47.3603201
38.57282324
34.38814
32.00283041
30.98214374
30.29329189
30.02493167
29.8695588
29.79145693
29.52199137
29.55840281
29.61103044
29.68309195
29.79222688
29.96697477
30.29003325
30.83632107
32.10920211
35.32041171
50.98521544
230.8865843
285.903513
116.3352075
66.92847308
46.91548484
38.32106518
34.22293285
31.88190771
30.87571256
30.18941298
29.92119342
29.76546728
29.68729137
29.42500414
29.46191874
29.51589548
29.58998216
29.70128014
29.88224583
30.21777311
30.79012565
32.13536527
35.69193734
54.44143679
245.852374
257.3610582
112.1496959
65.8627815
46.55165375
38.09912106
34.06459515
31.75951601
30.76508741
30.08367176
29.8168859
29.6612732
29.58325936
29.32149323
29.3585886
29.41398901
29.49177315
29.60868975
29.79577915
30.14418045
30.74358994
32.16923127
36.18887488
57.69045567
256.1400664
235.3295273
108.3975273
64.87564991
46.2366084
37.9063489
33.91526916
31.63742939
30.65172259
29.97138524
29.70454389
29.54902003
29.47146413
29.22476059
29.26189232
29.3180431
29.39689283
29.51456762
29.70796176
30.06986768
30.69810098
32.21745549
36.83554121
60.70090623
262.2871003
217.8159252
105.0058201
63.95603199
45.94987629
37.73731465
33.77566598
31.5168742
30.53675164
29.86052342
29.5951949
29.44010423
29.36306392
29.11904428
29.15600892
29.21321757
29.2956708
29.41954813
29.6192715
29.99556257
30.65518338
32.28808984
37.59545698
63.4873206
265.1584513
203.3728595
101.9137715
63.09353312
45.68085019
37.58553305
33.64509739
31.39845593
30.42109555
29.74305158
29.47686321
29.32189079
29.2454893
29.02384707
29.06057944
29.11815821
29.20086912
29.32372329
29.53020518
29.92199213
30.61637951
32.38832673
38.41423462
66.0646373
264.7204472
191.090012
99.0724326
62.27989749
45.4241966
37.4457459
33.52220376
31.2823562
30.30530055
29.63070492
29.3659787
29.2114807
29.13567062
28.91575519
28.95214454
29.0106052
29.09719131
29.22785022
29.4412002
29.84978364
30.58313889
32.52184038
39.25343256
68.43929458
261.9546609
180.4134482
96.4440467
61.50851446
45.17677125
37.31417391
33.40552221
31.1685007
30.18986376
29.50972072
29.2430675
29.08852203
29.01333301
28.8236964
28.85974368
28.91838879
29.00456492
29.13173359
29.35263916
29.77949596
30.55695474
32.68794578
40.09133297
70.61518474
257.6153932
171.0022093
94.00190267
60.77380039
44.93625154
37.18815963
33.29376025
31.05672707
30.07491969
29.39886173
29.13375391
28.97958562
28.90491981
28.71250643
28.74815472
28.80761876
28.89817132
29.03628937
29.2648576
29.71165844
30.53914091
32.88286367
40.9160105
72.59619538
251.981327
162.6226218
91.72424898
60.07076244
44.7007605
37.06578989
33.1858151
30.94684036
29.9608226
29.27438382
29.00620227
28.85177286
28.77762769
28.62559643
28.66090171
28.72052718
28.81020017
28.94092163
29.17816214
29.64681792
30.53093513
33.10160098
41.72086687
74.39283231
245.1297138
155.1201807
89.59051991
59.39437596
44.46862446
36.94562073
33.08076978
30.83866079
29.84745018
29.16812611
28.90169488
28.74746904
28.67372399
28.50980349
28.54472444
28.60514579
28.69962666
28.84693138
29.09286568
29.58556491
30.53329955
33.33931316
42.50309719
76.02897628
237.7631389
148.357983
87.58068256
58.73970715
44.23826913
36.82649958
32.97786256
30.73203648
29.73523997
29.03830866
28.76785272
28.61320829
28.53986595
28.43075053
28.46539208
28.52608618
28.61976256
28.75318607
29.00929433
29.52845509
30.54662283
33.59172946
43.26085457
77.5155989
230.1447886
142.2356295
85.67696103
58.10258665
44.00838095
36.70749171
32.87641444
30.62688685
29.62387416
28.9410681
28.6722689
28.51758831
28.4445111
28.30780719
28.34210641
28.40358177
28.50170407
28.66187691
28.92791427
29.47608194
30.57094498
33.85557504
43.99475308
78.86783639
222.4100677
136.675632
83.86594572
57.47995063
43.77796709
36.58786915
32.77590963
30.52334991
29.51429981
28.80121596
28.52848969
28.37332309
28.30053714
28.24015141
28.27428802
28.33620334
28.43520436
28.57140906
28.84945242
29.42920677
30.60609386
34.12857994
44.70823833
80.11692387
214.7159041
131.6097948
82.14111515
56.86983768
43.54624455
36.46703525
32.67588186
30.42207375
29.40651584
28.72039764
28.44746138
28.29199873
28.21932872
28.08387693
28.11771539
28.18079789
28.28485968
28.48633617
28.77534844
29.3891126
30.65126044
34.40671318
45.39631712
81.26513451
207.1330894
126.9913002
80.5087646
56.27570292
43.31426059
36.34509272
32.57622883
30.32492405
29.30374034
28.54006273
28.26281109
28.10651898
28.0340416
59.13646189
142.0270573
74.07236882
66.31665002
182.1267401
147.4083764
75.17144585
181.6089833
183.8493746
86.4722947
165.5135392
179.7045928
97.57092426
776.0201118
665.4212294
149.8407722
163.147956
128.3518043
494.8945378
761.095248
418.6335384
146.3484455
148.3093185
48.54930235
43.74469686
68.19687878
41.32673189
389.1756684
143.0437337
115.4417016
53.4944099
44.33972201
38.03103449
56.88235741
52.67178583
1284.231951
899.3338782
150.7627216
64.68860651
56.65338551
39.01913411
63.55728155
57.6440099
70.71018852
206.3913532
181.140489
768.0908091
1029.146036
154.6985781
71.06862919
66.83158734
40.16036574
71.30754736
64.42216282
80.28414875
314.3321955
244.4002852
452.7343106
588.0094641
41.60632652
81.89777197
72.33735214
90.28828924
503.7382673
394.2819964
1705.024519
299.0026579
347.0719551
43.94829872
104.1678993
83.52996774
107.752554
1150.36785
740.3932316
159.1055926
380.5251597
487.5046242
137.8909377
168.3964503
88.81066624
132.8541148
873.991521
408.6891008
111.9508279
334.4366917
622.4767177
178.0081833
157.2312611
62.89759136
208.470841
226.7039131
174.0274925
204.9638552
1039.340465
1286.923175
167.1489113
913.9208427
813.1503869
643.3340293
910.0838461
164.7822308
240.7749559
210.5332199
71.80488463
273.8390442
321.7056916
229.0428286
270.3557112
612.7003486
752.6163877
184.8364235
582.9209768
467.1621764
805.740102
602.111722
185.2998655
389.5898472
317.9828024
81.68897081
394.0147629
503.2021822
324.8686624
389.6054643
357.0921248
437.3329367
728.576191
514.1671102
90.712799
2530.765155
709.9119337
1103.421277
508.8745762
692.2567067
2938.736929
275.7274057
294.0138969
1505.013472
8514.180576
1162.010147
109.2698003
564.518781
1824.635666
7644.812356
1113.340038
1790.497185
579.4802284
36.86811013
52.14136081
45.55048048
55.34004059
109.6734794
78.12176574
2146.24337
376.2531065
62.20695988
154.7049344
133.9534622
4828.837142
145.0214852
73.28538474
72.01204813
5228.48201
652.0931909
722.4777928
508.0452066
245.3354068
266.5623109
130.2532654
112.5537316
56.47760486
1261.634383
188.0533606
446.3518064
121.1307525
297.3400256
103.6882639
738.2215414
934.2564377
171.6438465
362.3296005
309.6208009
452.7708471
372.0215939
173.9541179
1060.350542
4023.21569
674.3443751
66.69403658
55.01622487
81.94202012
126.2125579
64.76794072
68.42106292
2865.649626
275.274982
2041.762882
291.0548299
1510.364864
248.6800566
1044.418957
1030.042547
874.6849992
892.8467552
1742.130164
3996.734439
503.9308131
2078.543364
1158.798994
4500.811868
2460.996597
523.6601188
434.1607885
160.1139897
168.4033325
549.5340475
622.207693
4625.554328
805.7058125
216.5817134
231.5118909
198.9459199
211.0139159
802.0715306
1072.602834
1261.059302
149.4138467
771.3023128
595.6107669
1255.021955
774.2963261
153.0653388
110.3813449
313.3058232
153.4327686
515.8190747
340.5986573
117.5036671
471.0566429
758.3470132
617.3335442
586.4648228
211.7961419
1455.447649
212.4650074
187.4287652
1369.168314
1279.110299
1445.013712
1380.673709
191.6750543
1091.363859
1101.006537
853.9371388
305.1683485
296.8528449
308.0816381
306.7133091
848.8301726
766.6717054
270.5014256
248.2913051
292.8329136
277.1039252
781.9056967
295.6498657
298.7457712
246.6558912
249.209522
647.1667916
4675.441241
658.5980179
427.318438
434.6334849
356.238352
360.6882763
1096.570887
812.8619223
398.2892537
987.4308862
1617.772966
572.276417
184.0981169
194.841342
171.3832236
180.7728796
562.6537386
1158.917156
761.1976152
775.3331546
550.2106496
555.3695227
5463.954276
902.2462345
473.9074761
527.8937687
238.0571082
251.505428
1453.124399
2938.451263
1267.032886
2192.395189
1156.886558
6184.316162
2469.919418
5270.233696
1153.024466
643.9503863
3618.904704
1601.170368
2560.297898
1646.158197
2233.584023
46.34857176
115.9454978
107.6271379
170.4777229
4176.31519
7728.060292
300.3778193
134.298882
143.4851686
899.3401304
2604.633037
3770.359574
418.7378649
457.043254
849.2260386
226.1313455
238.4707547
495.0439572
124.7044956
90.95596411
173.0816389
307.2583641
112.8681388
130.1114697
1206.476718
2820.345483
2961.079697
964.448759
815.0909909
2231.187289
1650.694754
3702.250146
3681.14942
987.0637578
285.9009765
127.103268
132.3225053
120.6684232
125.4407079
279.8946973
150.4457436
157.664239
429.0520225
1055.993502
407.2138334
428.4757478
6391.491438
3062.024235
454.1053676
757.8163102
2537.347413
2804.684246
440.8463471
200.9460758
169.9366954
239.3256962
211.5624242
459.9482264
1063.876304
3622.075773
3704.202752
1230.3144
226.9956855
114.7575161
119.1600078
686.4545101
670.6749333
311.5131588
1564.297401
1444.73957
712.6165998
530.2128747
280.9353181
290.428484
728.8126685
303.6299549
307.6490792
293.7311615
301.3352602
716.7713497
349.5179674
141.8475175
148.2282584
134.136273
139.8361381
344.7763838
407.2661532
1027.307748
1015.409353
1665.127926
1613.212745
480.2767012
336.9733486
727.5520973
689.1257918
1010.181698
1001.211249
377.0270853
386.3271391
784.5341079
636.3207542
5705.615402
1705.228852
735.9260561
925.4224491
526.0145173
1702.140837
1673.210199
1713.823654
602.5384776
4507.243562
8861.512971
323.1328441
378.8619209
436.594713
456.2482356
1175.21479
1456.577745
941.6756197
524.1917582
1848.624267
7766.328412
1364.086161
1197.90046
16111.26725
1126.500832
1700.317534
1279.987574
1531.965796
1151.204756
4779.688658
4855.356293
1131.224906
1467.506085
5439.934269
1335.623235
1269.255373
288.9101658
1047.092049
425.728215
1046.749756
313.9472806
3696.870278
2471.826061
829.1962971
4435.026572
5201.921138
4212.945643
2824.738415
903.1976281
4387.817094
5559.592345
2788.026244
4149.579343
5901.236931
1593.497035
2413.863663
1126.42081
1420.451406
5301.446679
2924.912857
871.7403567
548.8524513
1401.757303
956.775548
497.5965129
320.0386815
858.2510066
3123.741581
3961.03071
1148.542232
980.2794167
2995.758803
3130.036426
2435.075721
2314.775169
833.1933956
4068.66827
3979.891037
2908.856413
3965.882998
3938.500542
962.8008931
3821.465549
2503.178316
2594.345893
2940.44247
1572.018824
747.7453345
805.4421735
3309.108234
934.4374964
1053.655058
828.9699615
900.1498482
3091.244092
3245.636543
888.4179655
1044.372932
377.1716913
399.8092965
957.0442905
770.6018557
355.1994328
371.4673396
1190.816083
1208.445286
750.0691891
255.8291333
279.9465582
228.7770881
248.9734643
741.4044517
834.1539786
321.8300667
355.7336504
288.3198945
313.0800167
839.3488197
449.2948209
205.103273
223.0108465
663.355417
697.5482801
1832.445659
1917.210026
718.8987059
2684.013152
2702.349542
3405.541926
1865.143187
1555.408855
2612.116995
1846.321854
498.8775209
1321.071117
1750.805199
1509.153117
476.0060966
542.7476626
448.2634443
464.4059247
1466.354829
597.7562475
611.4421408
565.0736589
592.8897312
1336.440298
388.6068405
403.8847874
364.5857767
383.2834597
1323.183084
1418.116977
428.5375313
442.8120255
408.9072509
423.6356318
1412.004735
3480.30701
3569.047308
1071.269714
1183.894476
3591.184089
3452.899981
951.3655645
958.6838076
920.9220491
948.9899166
975.2389657
990.8174096
961.2524657
971.9250938
632.9352469
645.9708792
615.7379895
628.4395064
692.0811115
874.5449572
652.1629807
667.3554152
1366.964901
1590.929681
1095.81332
1273.90018
4919.490882
2494.447949
2716.615345
1696.236907
2391.958184
1043.701977
1034.33748
412.0647966
1691.504418
1697.363705
1653.427753
1680.32999
1747.845948
468.4976486
1574.07194
1102.027423
965.8868361
749.8152811
341.4222099
1045.586405
1542.531663
991.9985508
1056.218434
1611.50854
1639.431647
1564.560219
1599.720374
372.9351729
998.2988479
986.0373568
5273.219073
1167.674722
5117.398468
4371.456352
5096.872129
1248.007336
5939.113094
1515.730417
5630.775872
4774.471757
743.7313708
833.8307755
1740.817388
1707.937633
531.3588229
585.173251
1813.452461
1744.213329
5412.72567
1221.744516
470.0782303
519.5523798
5676.298499
6478.301525
1934.609524
7055.51625
4988.794417
1675.459067
1128.666594
6167.614901
3371.392555
6819.307214
3844.174702
1637.622381
61.80821952
41.75315961
36.38041085
5303.230439
5278.364118
135.9545754
73.39324928
73.49889358
5526.90388
866.8557144
2480.485073
1654.778021
302.0580825
254.5500218
157.2843649
264.765587
192.4600603
377.1985666
1347.725831
262.0349834
285.0747658
51.89776799
60.34988255
111.1605236
340.5083793
633.0464868
917.5676375
194.7684298
104.1322895
107.9513131
99.3265101
102.9022589
191.2111711
765.6914655
848.998214
2761.271664
608.0974738
536.5082775
324.6017911
335.7483166
350.3653952
764.801785
995.592912
1269.797363
471.926431
109.2669702
113.3538141
222.8697476
283.3344111
630.4177708
602.0266603
578.8750699
510.0304905
260.3382869
643.3478089
316.0379998
330.9591738
4170.725572
3887.549483
2212.556606
1730.002797
1706.320382
1078.572514
3454.158627
5415.730138
4796.228887
1145.392545
677.8594005
746.581129
1827.6733
1119.616853
1767.274093
1753.274647
1790.38461
2272.317537
4656.328569
3183.758689
3612.663286
5156.726304
1352.66545
1095.796919
659.6701883
1292.580458
158.8635122
127.1098595
215.4081346
802.0524175
2098.880884
1492.485078
5718.662996
6075.111391
6183.686567
5060.22654
5880.514351
87.42584132
108.5385825
250.57028
2350.424695
1544.486021
1197.764657
3032.879589
2407.078958
1905.664332
3553.509943
3233.321279
5164.545719
4872.482497
3439.515062
680.5247939
730.8317938
1449.457618
4658.942574
2379.89449
2664.614674
3986.880107
2272.483135
2689.563413
1120.044797
1503.674957
1241.477059
762.9520222
512.4969822
520.7377597
1214.659425
733.9825448
776.5992741
526.3616392
538.5298347
791.0120221
180.1019621
199.9826159
421.6303454
538.2228995
975.1435756
692.6501694
1165.715061
1215.128289
760.1131027
1828.276451
1310.527872
1365.962458
884.3845046
887.3941936
1461.221487
1483.70767
1499.210261
1400.404737
1424.344038
1356.206003
825.2072369
830.6171424
795.2001911
802.4777504
1295.738279
1436.902806
871.1998412
876.1500109
836.3794318
842.1638366
1391.43901
648.5340051
635.3412982
286.4271966
308.389067
666.3442331
652.7867261
476.8061812
463.4598183
238.8955875
1543.220529
1546.03851
1505.604656
1511.351124
1922.528354
1555.017144
1556.308873
257.443043
498.1674055
482.1735076
4538.078171
4484.254106
2791.593366
2960.041744
4644.205576
4529.037969
4723.432807
699.4923523
1394.849996
1169.470032
298.7127805
311.3755968
613.6801666
543.3333195
284.9590437
295.1611756
1106.218181
1105.932476
757.6329405
778.1263538
1115.112027
1119.539566
5413.2189
1533.082355
996.2470742
982.8418165
12569.6028
2415.070973
1508.388078
4425.741962
3542.366214
1843.056232
1819.571769
1140.568489
5961.823306
6491.037329
6193.931348
4824.169538
1215.54721
1892.237273
1831.373422
2508.149695
914.3872495
1056.953458
5207.032106
5119.683334
3901.390255
3601.706041
2004.313725
1089.930291
1054.87368
1253.202956
3039.911065
5207.047771
4401.137139
5259.794085
5026.189563
3492.880995
173.3583031
238.1952451
714.5588278
3050.074408
2973.048665
3137.959697
3112.290121
2888.434847
1895.334998
1875.683639
1917.022601
1899.191224
2898.083546
3747.578357
2128.302066
2142.433196
2047.161935
2105.516258
3812.654933
2651.226616
1717.111121
1552.986119
1860.992991
1810.059744
2723.633571
3612.402357
2172.922953
2186.079631
2156.740169
2163.621953
3656.221325
3227.189484
3162.449088
3300.757902
3167.535439
1025.191849
703.8868496
707.8826429
1649.200768
1039.04992
1043.647392
1010.067329
1031.992166
1637.010185
5349.550942
5581.548564
4821.716862
5430.837464
1724.31791
1739.12384
1693.470309
1709.53526
2197.024828
1021.354266
1658.278214
1592.298738
1691.043574
1050.762384
1054.919725
1045.754576
1048.820478
1683.920019
1627.304856
1671.33467
1134.571194
1562.84677
2166.997587
5777.86012
5357.607774
3955.709152
5638.748504
868.2513384
1235.029848
12882.86032
1176.410824
803.0459606
807.1618558
1851.084048
7378.455284
7622.925372
9175.06608
5734.539161
5267.138383
1784.14848
1771.93156
1120.85198
1751.391376
1956.473648
2766.854583
1926.744684
2561.268844
1924.966994
760.9833164
2706.34058
1921.70655
4831.888562
5037.923295
5383.605859
3938.830459
4575.137154
1292.306633
1631.399916
878.0544037
451.6030521
624.1777658
993.1360831
1105.851409
652.8951769
965.2695852
1280.205486
5050.011313
5335.548169
4964.737936
5027.690651
5853.021943
5794.570334
5617.220823
3259.408737
4923.971959
4437.214195
5586.771616
5791.825896
3695.268689
4050.050251
4510.094275
5830.939076
4683.334575
3203.920394
3559.321416
2211.501347
1598.829566
2250.159239
1195.223022
1722.413711
2291.504738
2515.69683
2321.472079
3257.453091
2067.9656
1956.985219
2807.570101
2043.244952
3055.923846
3042.548722
1939.325688
1920.872591
1966.648929
1939.481271
3061.817693
2396.588124
1448.826915
1471.30886
4019.885732
4008.494606
3409.72307
4446.5166
4279.738254
4104.557691
3997.536863
4186.966527
3145.566974
1719.30585
1914.103017
1507.783925
1580.081223
2682.915434
4910.093081
4109.83601
2175.430629
5260.212473
5022.417902
5003.851121
3114.438385
4891.830277
4731.750753
1812.44856
2036.525626
3911.41133
1162.191801
1232.309826
588.0630063
661.8975385
1166.529722
790.8495557
543.5847445
567.9646354
1091.712197
1052.619847
621.939526
1060.399673
1395.635034
703.4256666
1153.515277
1134.091286
1834.797372
1272.780985
1251.17848
1399.646502
1354.326084
1938.254546
2835.337362
2663.267464
1744.905942
2550.778725
2670.333895
2400.941956
2524.823734
1712.887185
2556.631598
2516.052179
3201.520935
2396.938165
950.0680808
942.4823102
1429.052486
1473.865537
900.6529057
897.7227967
1461.850186
1475.199471
1438.116784
1451.633284
816.1515578
821.0290157
1349.872988
1309.399396
807.1240504
811.5443999
859.0679906
864.2666856
1425.898892
1403.221319
848.2830965
853.7060384
3533.32522
2216.891745
2228.453573
2192.590837
2203.090177
3528.616212
3453.095115
2440.158926
2806.963344
2253.347674
2307.014119
3457.783955
953.962051
1541.010643
1529.812262
1556.638122
1549.337312
956.1904822
939.377114
1492.596639
1474.160114
1519.432467
1507.032056
945.7014202
980.9349609
1605.786294
1594.928614
1621.865004
1611.331886
983.7484785
964.3195213
1570.982908
1564.540363
1588.358542
1578.382168
967.3800431
1530.912976
1535.338969
637.1350897
932.0826712
928.9611276
939.6306481
937.0708434
642.1054915
1518.927727
1524.072063
1603.312386
1516.879314
713.6458561
999.3405139
1009.125411
1437.627411
1382.583576
793.2616438
654.8674533
947.681891
946.2826322
956.1530336
959.7823221
665.4840799
1568.449766
1561.019574
4507.007279
4363.75473
4730.379848
3171.389806
3753.555262
2565.70775
4279.753973
4338.335457
4268.126736
4278.008994
2624.323669
1886.297514
3610.709134
3045.41226
4204.691786
4347.816344
2172.799892
1047.986854
729.2835292
731.2412251
714.8338586
717.5992993
1035.118662
1691.970972
1706.783761
1659.607206
1677.451491
1649.257701
2099.987243
1506.929392
867.38572
958.3483804
758.4601738
781.7842518
1090.710831
1444.591007
2009.212422
1582.540914
1504.934772
1004.639509
1637.00935
1622.687485
1675.144309
1629.14019
1000.759895
1619.541451
1632.139387
1577.707811
1590.285541
4915.410131
3101.796709
3329.329825
2283.326573
2765.436803
5007.301845
5012.546665
4847.606125
3643.017582
4224.047352
5364.160903
5425.052577
3940.112219
4192.885777
3032.10347
3508.420286
5616.063771
1772.44005
1773.49421
1754.686114
1758.149833
1163.029044
1175.285678
808.7385999
1837.342335
1736.507215
1792.208382
1782.489485
1725.131614
1065.037747
1073.437237
1057.094919
1063.048799
1721.094883
1764.154895
1087.835017
1147.008799
1075.229347
1090.75913
1767.497989
5197.689225
837.4615352
843.6353994
1226.164863
5501.797716
8505.461204
8875.020007
8243.882857
8301.326261
6130.521554
1882.803815
6084.275614
4255.913975
4652.849356
1137.885819
1809.998921
1792.751139
6132.169267
6718.49328
6459.18914
5235.496777
5722.822034
7113.529385
6746.395172
4251.615779
6406.683801
5487.289714
2245.398891
1802.354759
1204.033885
31.7641905
31.77184563
31.86054903
31.77516558
31.78981768
31.86939495
31.79570444
31.82040995
31.88467447
31.829662
31.86432228
31.90660974
31.87433915
31.90713567
31.93008601
31.9139766
31.93237902
31.9455979
31.93506287
31.93201822
31.94582693
31.92746881
31.90306902
31.93136233
31.89480259
31.86327731
31.90911334
31.85359004
31.82415693
31.88817846
31.64662712
31.6629493
31.74342336
31.67042824
31.70305584
31.76535184
31.71779464
31.77488409
31.80333635
31.79813993
31.87243212
31.85671917
31.89575097
31.95182341
31.90801759
31.9709689
31.99597172
31.93661433
31.99544064
31.98064426
31.934626
31.97019209
31.92450113
31.90213723
31.90638055
31.84730168
31.85366227
31.82704645
31.76968851
31.8065236
31.5379823
31.57217586
31.63806873
31.58914441
31.66253867
31.68755921
31.69602812
31.82466875
31.77617749
31.8784705
32.05535125
31.89390245
32.09838889
32.25814469
32.00072037
32.29064672
32.32190495
32.04211226
32.28758013
32.22584849
32.01361041
32.19113617
32.08461672
31.94298186
32.04334414
31.91856628
31.85401006
31.87856115
31.76957179
31.76182941
31.44206738
31.50959169
31.55326354
31.54306358
31.69487368
31.66363231
31.77020022
32.09819546
31.86401944
32.24065099
32.80304301
32.14689471
32.93994645
33.43257123
32.45747868
33.53071703
33.55657769
32.46640997
33.34169048
33.00530575
32.3423276
32.86393951
32.54576524
32.143921
32.44050175
32.16348096
31.9567679
32.08054552
31.87087122
31.78237696
31.36593192
31.48221984
31.50000621
31.54295922
31.8548013
31.7205446
32.01763706
32.81158701
32.22009476
33.22027213
35.36031455
33.10370226
36.19818188
41.72285004
34.24796432
41.76378726
39.55861548
34.1021956
37.73467575
35.32539322
33.3482317
34.7282204
33.61596165
32.6897058
33.34338146
32.7005287
32.25394062
32.52872427
32.11406689
31.91311656
31.30746087
31.48735405
31.48111349
31.58987614
32.13833516
31.91195069
32.44336013
34.08399458
33.07984426
35.0630046
44.17905588
36.3141882
41.46130972
47.6253872
40.09381773
58.92350106
56.95004501
44.38438189
46.78107979
41.57721857
39.20015393
39.37680123
35.73686132
33.95198159
35.05556668
33.63531012
32.87673785
33.30026654
32.54254768
32.1984102
31.2598791
31.51272686
31.48952723
31.66215085
32.46138445
32.21052643
32.91020126
35.37599398
34.43409137
36.05389642
37.9219411
37.23942966
52.29679248
59.16051749
56.57110252
87.19563473
63.20109241
53.30865939
47.40023472
39.01257209
36.34951422
37.64949686
35.01713705
33.9199948
34.43442298
33.15536728
32.6749175
31.221468
31.55308913
31.52214705
31.74858615
32.76563162
32.5414413
33.32403121
36.28674676
35.63278766
37.50172095
39.91317871
39.51175639
60.6055576
71.67211378
70.40170615
137.6233317
86.80917148
78.29377479
55.48546607
42.66000524
39.76998222
40.58569119
36.6095293
35.33543476
35.74527749
33.88114556
33.32508902
31.19032433
31.60257597
31.56506241
31.84140291
33.0450836
32.83771609
33.68956448
37.02913824
36.47306995
38.52183129
41.31008735
40.94933639
68.5178245
89.7254326
86.99728376
155.5784704
99.97761698
96.45131425
60.85856008
45.7596498
43.32414455
43.16787866
38.18582818
36.93754517
37.05728635
34.62550334
34.06845609
31.16576965
31.6593221
31.61790152
31.93997277
33.31932257
33.11513204
34.0447253
37.80065162
37.20256536
39.55740905
42.95095336
42.42278116
77.61571818
106.6517078
103.0909037
150.664669
102.5092055