/*--------------------------------*- C++ -*----------------------------------*\
| =========                 |                                                 |
| \\      /  F ield         | OpenFOAM: The Open Source CFD Toolbox           |
|  \\    /   O peration     | Version:  v1912                                 |
|   \\  /    A nd           | Website:  www.openfoam.com                      |
|    \\/     M anipulation  |                                                 |
\*---------------------------------------------------------------------------*/
FoamFile
{
    version     2.0;
    format      ascii;
    class       surfaceScalarField;
    location    "1.23";
    object      phi;
}
// * * * * * * * * * * * * * * * * * * * * * * * * * * * * * * * * * * * * * //

dimensions      [0 3 -1 0 0 0 0];
oriented        oriented;


internalField   nonuniform List<scalar> 
25162
(
0.0004189606428
0.9162310394
0.0005036851839
0.9166152755
0.0005714782246
0.916582207
0.000277464417
0.9166192599
0.0003247539115
0.4583394917
0.0002879726714
0.4583143639
0.0003491200876
-0.0003634840045
-0.0004444056683
0.4582930482
0.0005013574464
-0.0005555196563
0.4582428787
0.0006476409904
-0.0007487207057
0.4582193557
0.0008593650393
-0.0009891630406
0.4581922631
0.001131899918
-0.001279766625
0.4581824903
0.001432276363
-0.001587280209
0.4581990718
0.001719708451
-0.001832914074
0.4582511958
0.001915218255
-0.001958857044
0.4583291366
0.001964720494
-0.00193027207
0.4584053532
0.001854918886
-0.001755577668
0.4584556026
0.001634975035
-0.001491276712
0.458473415
0.001352861734
-0.001210471116
0.4584851259
0.001040345246
-0.000966614244
0.4584604425
0.0008561717436
-0.0007112988157
0.4584681114
0.0005931874497
-0.001559664017
0.9187125381
4.339445888e-05
-0.0005462685555
-0.0009747257119
0.9187650617
4.873080346e-05
0.9158265435
0.9138487308
0.001149861222
0.9150811781
0.001794285242
0.9159708514
0.001981628783
0.9163948634
0.000502601546
0.9172358351
0.0008624520882
0.4581152379
0.0006019370265
-0.4582145733
-0.4582063534
-0.0007407473945
0.458030293
0.000916807808
-0.4580706725
-0.001137385621
0.457801742
0.0006631798346
0.0007431363147
-0.2289774312
-0.000813356949
0.22890509
0.0008856981828
-0.001205325565
-0.2289151757
0.2288181435
0.001302357787
-0.001719012778
-0.2288538771
0.2287217682
0.001851121765
-0.002356422676
-0.228820647
0.2286673569
0.00250971282
-0.003035624364
-0.2288455689
0.2287539455
0.003127327327
-0.002952137108
-0.2289638451
0.2287552144
0.003160637206
-0.003906504358
-0.229143641
0.2290933552
0.003956790111
-0.003855018566
-0.2292828668
0.2293285596
0.00380932579
-0.003482102186
-0.2293788685
0.2295059982
0.003354972567
-0.002910105771
-0.2294104323
0.2295725119
0.002748026166
-0.00229873216
-0.2293911415
0.2295474758
0.002142397871
-0.4588961009
-0.003351606768
0.4603550382
0.001892669422
-0.0005537958809
0.4609994075
-0.001162047195
-0.4592835644
-0.001242230029
0.9184032383
0.0001410624901
0.00141046739
-0.0007561067215
0.9182789384
0.0004670696462
0.9146033671
0.9143158005
0.001445329875
0.9136358483
0.003907786458
0.9135083949
0.006611612333
0.9136910376
0.002633239029
0.9151564593
0.006057749048
-0.4581035469
0.4579745699
0.002762216043
-0.4578925729
-0.002693856974
0.4585999194
0.001986510459
-0.457437952
-0.002000869143
0.4572856703
0.001044591364
0.001108559453
-0.2285556099
-0.001311387938
0.2284047431
0.00146225471
-0.2283252502
-0.002012910427
0.2281075353
0.00223062533
-0.2281617833
-0.002060890421
0.2327005601
-0.002473315871
-0.2365579692
0.01811043428
0.2408915565
-0.0224252227
-0.2349176259
0.03193230596
0.2368824752
-0.03388412077
-0.2273195203
0.03604000964
0.2268217701
-0.03554583126
-0.2207652142
0.03031393885
0.2178103025
-0.02737687716
-0.2221996857
0.01521453868
0.217148868
-0.01018150668
-0.2301191635
-0.005612745123
0.2293938112
0.006337078723
-0.2302931782
-0.005426378003
0.2306178453
0.005101710898
-0.003869708773
-0.2302799599
0.2309604055
0.003189263168
-0.4630229674
-0.0006429043386
0.4619237299
0.001742141782
-0.4601508021
-0.001806129621
0.4602156865
0.001741245264
0.0008037439861
0.9204930049
-0.001659796153
-0.001233714436
0.002014688345
0.9170679941
0.0009430468378
0.9156750087
0.9152588473
0.0004322489738
0.9132035993
0.0009476216645
0.9129930222
0.002034669879
0.9126039893
0.002934533941
0.9123745268
0.001882068474
-0.457272317
0.4569063022
0.003300548771
-0.460215341
-0.004436336748
0.4572522269
0.007399450852
-0.4588627755
-0.008558308129
0.4605358114
0.001764492281
0.005120780015
-0.2278548056
-0.001681612892
0.2276910496
0.001845368929
-0.2299664152
-0.0006964374454
0.2362066765
-0.005533275643
-0.2501708809
0.02359631996
0.2555011279
-0.02888013057
-0.2524373581
0.04126812339
0.2553299099
-0.04411347487
-0.2413322862
0.04909575654
0.242050447
-0.04979110111
-0.2253182811
0.04998133351
0.2248854892
-0.04955862811
-0.2103199418
0.04668770366
0.2086352416
-0.04504293843
-0.2030594027
0.03708557275
0.1991990445
-0.03328028722
-0.2112111866
0.01850871452
0.2053644923
-0.01270406469
-0.234177866
-0.001105239333
0.2361695117
-0.0008879679127
-0.004313564353
-0.2318744374
0.2319151836
0.004272818204
-0.4620242657
-0.006649849562
0.4633805593
0.005293556026
-0.4610386808
-0.003944908001
0.4621579809
0.002825607865
0.0038405332
0.9208862371
-0.002230580095
-0.002003185199
0.002607893437
0.9183006338
0.001210625829
0.9170722763
0.9164694731
4.433605202e-05
0.9131592633
0.0001283466521
0.9129090116
0.0003404284836
0.9123919075
0.001005887801
0.9115092135
0.0001998539592
-0.4567004466
0.4559603496
0.001745984826
-0.455919346
-0.00209240959
0.4553863882
0.002625367428
-0.4545781376
-0.00337182605
0.4539446436
0.002148455078
0.001856864958
-0.2284652166
-0.003892175708
0.2273288175
0.005029002609
-0.2547987116
0.007371730433
0.2622694009
-0.01478551268
-0.2682111808
0.03134278729
0.2711264892
-0.03417693556
-0.259452268
0.03744560127
0.2590097109
-0.03694141164
-0.2406994805
0.03231307911
0.2387935651
-0.03038358841
-0.2239436378
0.02636215808
0.2237677924
-0.02619836114
-0.2074396765
0.02866927446
0.2087930827
-0.03007075404
-0.1919715779
0.03304310283
0.1914541171
-0.0326059849
-0.2022638707
0.03881410113
0.1922803718
-0.02890721684
-0.2118319952
0.01070216889
0.2063545997
-0.005268601412
-0.006327866759
-0.2334284101
0.2340438113
0.005712465468
-0.4652221542
-0.007916885447
0.4670225296
0.006116509979
-0.4632539035
-0.004769133368
0.4644030574
0.003619979479
0.004755894516
0.923310526
-0.003978616343
-0.00320156708
0.002666945002
0.9203895834
0.001219048754
0.9185201725
0.9176885219
-0.0002225595812
0.9133818228
-0.0003596063275
0.9130460583
-0.0002776290247
0.9123099302
3.253514939e-06
0.9112295768
-1.245787139e-06
-0.4551456654
0.4549033464
0.0002455725072
-0.4549734437
-0.00113175988
0.4542998601
0.001805343517
-0.4532674498
-0.002241398804
0.4523925169
0.001524418747
0.00159191298
-0.2392268661
0.001694729016
0.2432586311
-0.005697600039
-0.2707564596
0.01667285354
0.2737052608
-0.01953283052
-0.274634433
0.02199200339
0.2728415858
-0.02010433676
-0.2508642821
0.009193198075
0.2509634465
-0.009238733993
-0.227828489
-0.008342917428
0.2234083747
0.01277480657
-0.2230735615
-0.02453893227
0.2229246045
0.02468561626
-0.2209008218
-0.01154864164
0.2259478985
0.006474797967
-0.202898543
0.01483846523
0.2049817918
-0.01699942445
-0.1819197686
0.01814553306
0.1813383319
-0.01766667967
-0.1931266254
0.0116296156
0.1899739242
-0.008558900154
-0.002912328248
-0.2316936638
0.2292241404
0.005370019488
-0.4686736844
-0.008384828115
0.4703842706
0.00667424188
-0.4651766516
-0.005393491386
0.4659179652
0.004652177782
0.004137165808
0.9261804483
-0.003401619178
-0.003605468934
0.002305544248
0.9222212049
0.0009833610978
0.9198423557
0.918671883
-0.0006120926416
0.9139939155
-0.001102792319
0.913536758
-0.001457557207
0.9126646951
-0.0002800034563
0.9110502816
-0.0009982586304
-0.4548274602
0.4545777093
-3.025257013e-05
-0.4533350709
-0.0001427108273
0.4530393978
0.0004383839141
-0.4521358145
-0.001323489661
0.4520685556
0.0007531109364
0.000637543056
-0.2517887732
0.00399114135
0.2542456003
-0.006395958896
-0.2827127747
0.01210022736
0.2791270558
-0.00840314546
-0.2686430583
0.008520303774
0.2670427974
-0.006823861178
-0.2315559234
-0.004315723624
0.2244551671
0.01144881998
-0.2108166635
-0.031797657
0.1071893878
0.1015048766
0.01484901119
0.01907104496
-0.02365274643
-0.1088445018
0.1082418601
0.02425538812
-0.01934264933
-0.247174385
0.03697834888
-0.01973520667
0.1241948971
0.1250789951
-0.01747846956
-0.2170261579
0.2233287384
0.01112561726
-0.1838176472
-0.0006261276355
0.1878925462
-0.003556913657
-0.1853703533
0.008299803438
0.1838151603
-0.006842450856
0.0005297548549
-0.2186871065
0.2162564943
0.001863372896
-0.4721273659
-0.007395759208
0.4733478227
0.006175302366
-0.4671053604
-0.0047374342
0.4682761603
0.003566634317
0.002662850282
0.9283283035
-0.002262076063
-0.002548629453
0.00134040368
0.9235436515
0.000537685672
0.9206450737
0.9192095687
-0.001010735264
0.9150046508
-0.001972244917
0.9144982677
-0.002745313212
0.9134377634
-0.00146582812
0.9117688018
-0.001998005254
-0.4545878593
0.454629244
-0.001507212858
-0.4529344984
0.0015994386
0.4528816102
-0.001546550385
-0.4516097635
0.001433253071
0.4524993975
-0.0007727047398
-0.001546587314
-0.2582759181
0.001022639647
0.2585267649
-0.0012082258
-0.280318248
0.001268128802
0.2803816061
-0.001217312219
-0.2617212498
-0.0005257745903
0.2607343641
0.001602987041
-0.2121384474
-0.006116522214
0.2102784661
0.007987150324
-0.09528635665
-0.005323391218
0.0953258659
0.005283881975
-0.02710508309
-0.1358698856
0.1384936636
0.02448130518
-0.02537916478
-0.2441171053
0.2497118536
0.0197596338
-0.1937189655
-0.009341715893
0.1956823947
0.007280618129
-0.1825973635
-0.003713476063
0.1830655138
0.003135390297
0.001487761737
-0.212337444
0.2110787604
-0.0002783883238
-0.4749159652
-0.004733182836
0.4762141638
0.003434984134
-0.4692180417
-0.00252117015
0.4700072715
0.001731940357
0.0002295393363
0.9294340286
-0.0003367849757
-0.0009984794888
-0.0001435994967
0.9239167903
-0.0001438379865
0.9206453122
0.9190657307
-0.001397120075
0.9164017708
-0.002722076883
0.9158232245
-0.00411519707
0.9148308836
-0.00241678252
0.9130061629
-0.002935775631
-0.4548514693
0.4550638072
-0.002629120446
-0.4529896488
0.002869538592
0.4532137759
-0.003093665692
-0.4530300738
0.003295991773
0.4538891852
-0.002000574679
-0.002145066569
-0.2603735104
0.003031946684
0.2606430256
-0.003239756355
-0.2794133933
0.00299787353
0.2791542757
-0.002637262804
-0.2578251362
0.001059787129
0.2573424362
-0.0005005104666
-0.2087321994
-0.0006049418507
0.2089464708
0.0003947636777
-0.09892002873
0.001360088152
0.09941763727
-0.001857696694
-0.0121661827
-0.1514265659
0.1521089934
0.01148375524
-0.0139202779
-0.2627733713
0.2652243974
0.0114568829
-0.2023267845
-0.005399300968
0.2038185307
0.003824762598
-0.1846371376
-0.0004304312186
0.1851283772
-0.0001602915455
0.0006363888924
-0.2100691068
0.2097644208
-0.0003849013539
-0.4776689025
-0.0007778538392
0.4787868248
-0.0003400684356
-0.4704217639
0.000870298457
0.4706424068
-0.001090941342
-0.002738215884
0.9289250313
0.001939195709
0.001308017477
-0.001964683939
0.9231432584
-0.001030753205
0.9197113814
0.9180349775
-0.001745026512
0.9181467974
-0.003596175105
0.9176743731
-0.005372504501
0.916607213
-0.003359012479
0.9148803398
-0.003887668914
-0.4554619906
0.4558544645
-0.003751486448
-0.4535052037
0.004196220567
0.4540113223
-0.004702339139
-0.4548682231
0.005173517563
0.4563346715
-0.00311552535
-0.003512505819
-0.2613761199
0.004286094213
0.2617287093
-0.004583863726
-0.2786839721
0.004776777084
0.2786259017
-0.004631869579
-0.2565888007
0.003864567912
0.2564012214
-0.003613542832
-0.2101109746
0.00330372764
0.2105027336
-0.003693569511
-0.1016332507
0.002928871296
0.1018444516
-0.001556719321
-0.001583352783
0.004883852918
-0.150641463
0.1497932906
-0.00403568053
0.002383072483
-0.2651107637
0.2634013691
-0.0006852855371
-0.2047177699
-0.001427203521
0.2045876361
0.001483091675
-0.1866259222
-0.0006413017457
0.186995636
0.0001813539681
0.001206873206
-0.211046469
0.2113931851
-0.00160229185
-0.4787855252
0.004642498181
0.478183376
-0.004040348956
-0.4704260693
0.003811554838
0.4706613539
-0.00404683945
-0.006014545516
0.926723736
0.004498273024
0.003717567721
-0.003941826252
0.9210705391
-0.001990303768
0.9177598589
0.9160446737
-0.002179791119
0.9203265885
-0.004340699883
0.9198352819
-0.00662410297
0.9188906161
-0.004275120471
0.917324357
-0.004792999725
-0.4564219915
0.4569851565
-0.004838285505
-0.4545777818
0.005522969136
0.4551983019
-0.006143489274
-0.4582052975
0.006859525003
0.4604286035
-0.004435270557
-0.004633154247
-0.2629451644
0.005538697814
0.2633984252
-0.005944640139
-0.2786605196
0.006516997964
0.2787306025
-0.006515076117
-0.2560426558
0.006218024836
0.2559736927
-0.006098356552
-0.2117617627
0.005983373536
0.212215151
-0.00643620175
-0.1030586432
0.004033278048
0.1031893799
-0.002068192601
-0.002095822108
0.01444920436
-0.1419991158
0.1407443498
-0.01319443845
0.01354218086
-0.2538198388
0.2492171303
-0.008956610641
-0.2010709186
-0.001296294716
0.2028416371
-0.000542460678
-0.1879234847
0.0005923043406
0.1883694235
-0.001116638632
0.003347415777
-0.2145706974
0.2153048524
-0.004119532274
-0.4771122763
0.009731436005
0.4756349469
-0.008254106614
-0.4706853772
0.006968034051
0.4695378663
-0.00582052313
-0.009039342158
0.923102811
0.006613836197
0.006046430917
-0.005843935322
0.9178751323
-0.002868046303
0.9147839699
0.9131766274
-0.002577883555
0.9229044721
-0.005162165457
0.9224195638
-0.007850281092
0.9215787317
-0.005112639326
0.9200111267
-0.005424411418
-0.4576915975
0.4583862266
-0.005807268483
-0.4560127641
0.006607163221
0.4568641802
-0.00745857934
-0.4628229105
0.008376653064
0.4645214659
-0.005485502026
-0.004572640932
-0.2649076244
0.006878157929
0.2654915421
-0.007423496862
-0.2790832151
0.008336712065
0.2792400819
-0.008437160407
-0.2558578487
0.008329327159
0.2558113234
-0.008244623877
-0.2137844573
0.008139160674
0.2144092493
-0.008763929359
-0.1040269286
0.005261566395
0.1041543662
-0.002675231624
-0.002713772379
0.01795137967
-0.1321891558
0.1309479512
-0.01671017505
0.01747335191
-0.2357589384
0.230928653
-0.01266627229
-0.1984763126
0.007298254232
0.1925753163
-0.00145675678
-0.1892098805
-0.002186989019
0.1892616122
0.002066160441
0.004961824811
-0.2189558773
0.2201988714
-0.006230921415
-0.4738265059
0.0137747261
0.4717297657
-0.01167798591
-0.4682754521
0.009876973487
0.4667415523
-0.008343073647
-0.01167319632
0.9199344019
0.007727907969
0.007113697444
-0.007476468855
0.9136784048
-0.003624589087
0.9109320902
0.9095520383
-0.006621538394
0.9295260104
-0.01340418121
0.9292022066
-0.02025697857
0.9284315291
-0.006046564667
0.9272414879
-0.0214407751
-0.4592419397
0.4601105894
-0.006915214308
-0.4577428817
0.00785504564
0.4587982928
-0.008910456685
-0.4689487312
0.009934966248
0.4729935766
-0.007272810319
-0.006691249646
-0.2666865746
0.01037701301
0.2681534697
-0.01181931831
-0.2797449649
0.01071996698
0.2792951501
-0.0102305951
-0.2556194523
0.008305306933
0.257206805
-0.009864973973
-0.2166738312
0.009879592444
0.217528034
-0.005328734244
-0.005405060981
-0.05272952751
0.003324137419
0.05277877892
-0.003373388824
-0.05804785621
0.00656543883
0.05756146662
-0.01279398195
0.006714932709
0.01658757111
-0.1235378175
0.2436427087
-0.02943192238
0.01622840956
-0.1234889496
-0.2188274312
0.01409516338
0.2122039073
-0.00749897808
-0.1874629871
0.00291408447
0.186902973
-0.002407046489
-0.1911383015
0.003914455424
0.1921513226
-0.004975240161
0.008458948173
-0.2258301742
0.2267997867
-0.009439606568
-0.4692960968
0.01627057614
0.4668674113
-0.01384189063
-0.4651445542
0.01195265495
0.4634277646
-0.01023586533
-0.01366552078
0.9155376704
0.009267729071
0.008794523231
-0.008761803384
0.9087746874
-0.004298194766
0.9064684815
0.9052538435
-0.003058185983
0.9325841964
-0.006194114004
0.9323381346
-0.009490064613
0.9317274797
-0.006440697781
0.9307907874
-0.00659866634
-0.4629873854
0.4639011265
-0.007354438871
-0.461654208
0.008370724455
0.4627380633
-0.009454579715
-0.4769157612
0.01062295597
0.4751307224
-0.004740265837
-0.004075986246
-0.2704682016
0.003781911395
0.2700291536
-0.003315289977
-0.2803586603
0.002419295121
0.2804249701
-0.002449162028
-0.2551336439
0.004135272316
0.2563949301
-0.00537423025
-0.2207699768
0.01118841888
0.2217847839
-0.006087337773
-0.006115888272
-0.05444691602
0.008070715954
0.1092865756
-0.05438275066
-0.004245643724
-0.004281981155
-0.1118199488
0.009075991297
0.1117462716
-0.01783524264
0.008832928561
0.02917239046
-0.2365338811
0.2329603222
-0.02559960419
-0.2018276592
0.007866141815
0.1996753742
-0.005738785141
-0.1875791996
0.003614382797
0.1830562119
0.0008680755909
-0.195802316
-0.0002714128282
0.2009974473
-0.004957963993
0.01012406768
-0.2321261172
0.2325484797
-0.01054820988
-0.4647010073
0.01705924842
0.4627648259
-0.01512306707
-0.4617016629
0.01328134714
0.4597480327
-0.01132771691
-0.01324096853
0.9103031628
0.009174029919
0.009301446281
-0.009542649784
0.9050763687
-0.004661269894
0.9015871017
0.9005925736
-0.003215951825
0.9358001483
-0.006510110314
0.9356322931
-0.009962983621
0.9351803531
-0.006769007101
0.9344831215
-0.006886310605
-0.4649032358
0.4658880147
-0.007753786063
-0.4638456824
0.008817376932
0.4649689364
-0.009940631004
-0.4711884496
0.01114458263
0.4670112238
-0.00333474266
-0.003619822508
-0.2659551142
-0.001257301977
0.2636990937
0.003537989833
-0.2793237858
-0.009046503766
0.2783463419
0.01006199043
-0.2619361215
-0.009276582419
0.2637529278
0.007490183189
-0.2300439598
0.003106756175
0.2352739945
-0.00832928981
-0.1123157306
0.01572652663
0.2236002393
-0.01526497193
-0.1117460633
-0.226108055
0.02132095243
0.226702485
-0.0219153824
-0.2195206971
0.01330515877
0.2151665503
-0.008956131424
-0.1912661449
0.0006120584382
0.1900980348
0.0005349858367
-0.1820547242
0.0001730089213
0.1833270009
-0.001473878033
-0.206242857
0.006997714372
0.2052011157
-0.005974312833
0.01250799201
-0.2326106918
0.2302001018
-0.01009740198
-0.4610641785
0.01845720445
0.457734951
-0.01512797698
-0.457799316
0.01347327791
0.4556266728
-0.01130063469
-0.01360108573
0.9052338859
0.0094035994
0.00926676319
-0.009594574639
0.9010698576
-0.004869905921
0.8968624329
0.8957226677
-0.00329952843
0.9390996767
-0.006671772395
0.9390045371
-0.01018981343
0.9386983941
-0.006932871298
0.9382236603
-0.006997480944
-0.4668969066
0.4679038361
-0.007939800751
-0.4660927576
0.009008740059
0.4672112999
-0.01012728244
-0.4652061007
0.01131652463
0.4664003469
-0.006216744787
-0.006293885951
-0.2544909396
-0.0006342452041
0.2507168319
0.004424014481
-0.2728413021
-0.01496260014
0.2700741286
0.01776317553
-0.2668496666
-0.02248215758
0.2667458052
0.02262163074
-0.2469518434
-0.01888843768
0.249259751
0.0166050036
-0.2274223783
-0.009518057686
0.2293901475
0.007562120292
-0.2218373627
-0.006621110424
0.2206337135
0.007829354439
-0.2061524015
-0.01305411936
0.2047192852
0.01448218748
-0.1895264396
-0.01543645448
0.1905233974
0.01442201834
-0.1899655244
-0.007706965224
0.1931158539
0.004535727982
-0.2136065554
0.006075331196
0.2170591496
-0.009536050357
0.01162620078
-0.2281502864
0.2275303071
-0.01100622152
-0.4568562789
0.01841258931
0.4540631318
-0.01561944223
-0.4526690645
0.01212413436
0.4510122023
-0.01046727211
-0.0126732405
0.8987994023
0.009791101181
0.009316622915
-0.007122925
0.8955195421
-0.004899196002
0.8946387039
0.8908234717
-0.003314661316
0.942414338
-0.0066933629
0.9423832387
-0.01019713734
0.9422021685
-0.00694761193
0.9419179216
-0.006943786689
-0.468895098
0.4698870431
-0.007939557082
-0.4683112128
0.008980556162
0.4693896708
-0.01005901419
-0.4676398524
0.01119336074
0.4688383279
-0.006214713971
-0.006177122322
-0.2380923722
0.006782891608
0.2346215165
-0.003309577749
-0.2591895615
-0.01041568942
0.2548787631
0.0147473843
-0.2626163801
-0.02545101364
0.260084927
0.02801226854
-0.2516745115
-0.03243756727
0.2511752055
0.03296474347
-0.2340141775
-0.03288134431
0.2349963799
0.03191851918
-0.2194234929
-0.03086395583
0.2194918041
0.03080416234
-0.2049480069
-0.0284660937
0.2063291826
0.02708146224
-0.1971386174
-0.02017825912
0.200390538
0.01691388049
-0.2048795342
-0.004841837673
0.2093471848
0.0003631598993
-0.226428197
0.0122372599
0.2261854869
-0.01199467936
0.01053685123
-0.2258989191
0.2254126471
-0.01005057925
-0.4503129393
0.0171106488
0.4485668738
-0.01536458334
-0.4493964155
0.0136939557
0.4477782719
-0.01207581211
-0.01169276098
0.891586802
0.01031175891
0.00859360237
-0.00663568727
0.8904624684
-0.004491490627
0.8924945073
0.8863319811
-0.003272065302
0.9456864033
-0.006597510658
0.945708684
-0.01002322033
0.9456278782
-0.006831758884
0.9454953716
-0.006768911455
-0.4708477154
0.471799172
-0.007783215512
-0.4704367438
0.008773247514
0.4714521806
-0.009788684349
-0.4699900154
0.01084399487
0.4710902898
-0.006004884746
-0.005939384586
-0.2347833658
0.006583506269
0.2350805376
-0.006880678013
-0.2410889421
0.005453781948
0.2365599681
-0.0009209578668
-0.2501111541
-0.01202921198
0.2463382556
0.0158169964
-0.2468761971
-0.02475510448
0.2448066833
0.02684232595
-0.2359960739
-0.03048133632
0.2357874571
0.03070355075
-0.2202107339
-0.02830386358
0.2206834194
0.02783671124
-0.2131926826
-0.02192276189
0.2160550077
0.01905787594
-0.212093948
-0.008263239008
0.2162855561
0.004065981734
-0.2231288036
0.009290321522
0.225640394
-0.01180259962
-0.2249524518
0.01086588459
0.2246003562
-0.01051378901
0.009408637787
-0.2241405293
0.2237570372
-0.009025145682
-0.4469716398
0.01560085538
0.4455165026
-0.01414571821
-0.4462967893
0.01271452844
0.4448785658
-0.01129630496
-0.01435975862
0.8864150389
0.009619025782
0.009912495944
-0.009435257574
0.8855379673
-0.001852932797
0.8849121825
0.8844790483
-0.003182645654
0.948869049
-0.006406929212
0.9489329676
-0.009704946185
0.9489258951
-0.006610029115
0.9489039612
-0.006503506685
-0.4727130421
0.4736104732
-0.00750746018
-0.4724285694
0.008432967156
0.4733679646
-0.009372362419
-0.4721364529
0.01033675242
0.4731276079
-0.005705733431
-0.005622173966
-0.2359149039
0.006219526654
0.2361747339
-0.006479356646
-0.2356166344
0.007264163527
0.2358784484
-0.007525977566
-0.2353420147
0.008305336722
0.2352263493
-0.008189651731
-0.237934928
0.001254170274
0.2356964548
0.0009880234537
-0.2343263844
-0.005276112436
0.2336937333
0.005912750966
-0.2231633792
-0.004294460582
0.2243215058
0.003137771452
-0.224942894
0.002966316989
0.2277086821
-0.005732543122
-0.2265863326
0.0109916022
0.2264699167
-0.0108751863
-0.2249296589
0.01038517766
0.2247245112
-0.01018002996
-0.2236835666
0.009463578216
0.2234174457
-0.009197457344
0.00834195425
-0.222757532
0.2224504786
-0.008034900834
-0.4441885618
0.01405774354
0.4429759941
-0.0128451759
-0.4435898607
0.01162667949
0.442358498
-0.01039531678
-0.01335254254
0.8817512771
0.008845609162
0.009170695148
-0.008821095178
0.88100652
-0.004381857117
0.8804729445
0.8800971912
-0.003057837362
0.9519268863
-0.006145643844
0.9520207741
-0.009281943546
0.9520621948
-0.00631319326
0.9521120776
-0.00617686672
-0.4744669428
0.4753025598
-0.007148810272
-0.4742651213
0.00800327404
0.4751236187
-0.008861771453
-0.4740643487
0.00973312159
0.4749490318
-0.005354224685
-0.005263580015
-0.2368997842
0.00580474867
0.2371246419
-0.006029606342
-0.2365947205
0.006695630213
0.2368121877
-0.006913097395
-0.2359079781
0.007544857234
0.2361099708
-0.007746849898
-0.2347979819
0.008318765721
0.2349750739
-0.008495857741
-0.232689628
0.008944646237
0.2326305321
-0.008885550326
-0.2264559277
0.009252989402
0.2267324377
-0.009529499383
-0.2286647073
0.00961057822
0.2286502192
-0.009596090098
-0.2261620365
0.009436765048
0.2260703331
-0.009345061661
-0.2241876552
0.008967572617
0.2240304154
-0.008810332835
-0.2227139964
0.008257708976
0.2225065271
-0.00805023966
0.007373363956
-0.2216549368
0.2214079723
-0.007126399463
-0.4418651125
0.01258441605
0.440846932
-0.01156623557
-0.4412436033
0.01052774771
0.440177024
-0.009461168405
-0.01226554653
0.8775810855
0.008053137048
0.008382601132
-0.008141522639
0.8768824961
-0.004055322149
0.876386744
0.876041869
-0.002908907896
0.9548357942
-0.005837114021
0.9549489802
-0.008791245711
0.9550163265
-0.005968715792
0.9551040867
-0.005814539018
-0.4760964773
0.4768677795
-0.006740017978
-0.4759397569
0.007522299275
0.4767181558
-0.008300698135
-0.4757815707
0.00908172802
0.4765643363
-0.004973522272
-0.004890971364
-0.2377509657
0.005372165622
0.2379451671
-0.005566367113
-0.2374075042
0.00613138572
0.2375885517
-0.006312433167
-0.2366517419
0.006828061649
0.2368133481
-0.006989667854
-0.2354436186
0.007440025512
0.2355814357
-0.007577842562
-0.232425806
0.00787675647
0.2323510485
-0.007801999062
-0.2274321331
0.008142961042
0.2276238012
-0.008334629081
-0.228592276
0.008350364152
0.2285693398
-0.008327427962
-0.225819408
0.008179342883
0.2257424513
-0.008102386146
-0.2236096501
0.007795924389
0.223483727
-0.007670001312
-0.2219499219
0.007228007376
0.2217832987
-0.007061384175
0.006512878589
-0.220763445
0.2205608919
-0.006310325463
-0.4399117637
0.01122331044
0.4390515019
-0.01036304872
-0.4392124201
0.009474100059
0.4382873419
-0.008549021808
-0.01117107606
0.8738690556
0.007282082955
0.007601022949
-0.00744437006
0.8731557901
-0.003716608032
0.8726589819
0.872325261
-0.00274526556
0.9575810598
-0.005500560406
0.957704275
-0.008262599076
0.9577783652
-0.005595910075
0.9578746856
-0.005437287882
-0.4775977649
0.4783067522
-0.006304897363
-0.4774561172
0.007017478567
0.4781587622
-0.007720123596
-0.477299889
0.008418189424
0.4779909815
-0.004590438534
-0.004518843351
-0.2384859978
0.004943239707
0.2386537977
-0.005111039623
-0.2380854846
0.00559176379
0.2382370428
-0.005743321956
-0.2372496679
0.006167968232
0.2373807035
-0.006299003852
-0.235948498
0.00666009638
0.2360570896
-0.006768687955
-0.2321152942
0.006963135408
0.2320343442
-0.006882185426
-0.2280950827
0.007205737712
0.2282223925
-0.007333047506
-0.2284926296
0.007309895789
0.2284649304
-0.007282196597
-0.2255275066
0.007142225964
0.2254604386
-0.007075157922
-0.2231405291
0.006816662868
0.2230360796
-0.00671221341
-0.2213302467
0.006347761968
0.2211928968
-0.006210412048
0.005756199642
-0.2200286643
0.2198596233
-0.005587158624
-0.4382580598
0.009991507172
0.4375248824
-0.009258329774
-0.4374504932
0.008492740953
0.4366455286
-0.007687776354
-0.01011407861
0.870571723
0.006557317515
0.00685409372
-0.006761963159
0.8698036746
-0.003382475076
0.8692794939
0.8689427859
-0.002575724577
0.9601567844
-0.005153756471
0.9602823069
-0.007723330239
0.9603479389
-0.005217517511
0.9604296043
-0.005060731395
-0.4789744175
0.4796238998
-0.005866999728
-0.4788241798
0.006514415319
0.4794574451
-0.007147680669
-0.4786405053
0.007771416479
0.4792512131
-0.004221928553
-0.004160195746
-0.2391216988
0.004534519628
0.2392671698
-0.004679990587
-0.2386546376
0.005091254821
0.2387825139
-0.005219131065
-0.2377371749
0.00557277092
0.2378450825
-0.00568067847
-0.2363477183
0.005975499296
0.2364340669
-0.006061847841
-0.2317890274
0.00618427365
0.2317073521
-0.006102598345
-0.2285330208
0.006407290965
0.2286163398
-0.006490609999
-0.2283769876
0.006442973083
0.2283463656
-0.006412351096
-0.2252705431
0.006278846323
0.225210595
-0.006218898237
-0.2227472274
0.005994633065
0.2226581434
-0.005905549091
-0.2208150741
0.005597297218
0.220699275
-0.005481498141
0.005097988557
-0.2194123586
0.2192689931
-0.00495462308
-0.4368453214
0.008896466457
0.4362143638
-0.008265508859
-0.4359162834
0.007601414065
0.4352124803
-0.006897611034
-0.009125486299
0.8676422429
0.005892223515
0.006162742843
-0.006117034238
0.8667952226
-0.003064824149
0.8662272838
0.8658779618
-0.002406757814
0.9625635422
-0.004809602447
0.9626851516
-0.007192460408
0.9627307969
-0.004846518885
0.9627802153
-0.004696552518
-0.4802330688
0.4808270689
-0.005440518966
-0.4800570776
0.006028366925
0.4806279953
-0.006599284583
-0.479825868
0.007157333963
0.4803670068
-0.003876671119
-0.003821801633
-0.2396735862
0.004154044434
0.2398003204
-0.004280778647
-0.2391363698
0.004635052444
0.2392452557
-0.004743938283
-0.2381410051
0.005042134462
0.2382313625
-0.00513249183
-0.2366660185
0.005377129987
0.2367352052
-0.00544631661
-0.231465578
0.005518166817
0.231386652
-0.005439240847
-0.2288181461
0.005723871098
0.2288717791
-0.005777504117
-0.2282515577
0.005714080097
0.2282191711
-0.005681693447
-0.225039276
0.005553696221
0.224984735
-0.005499155216
-0.2224090274
0.00530047767
0.2223313873
-0.005222837629
-0.2203776788
0.004956685442
0.2202781884
-0.004857195043
0.004527932863
-0.2188872753
0.2187639602
-0.004404617813
-0.4356267578
0.00793169237
0.4350786479
-0.007383582487
-0.4345736446
0.006803321129
0.43395502
-0.006184696515
-0.008220441974
0.8650353349
0.005292515278
0.005534834693
-0.005521745204
0.8640965258
-0.002770237301
0.8634757759
0.8631077245
-0.002243548362
0.9648070905
-0.004478317131
0.9649199203
-0.006684714361
0.9649371941
-0.004492679589
0.9649416339
-0.004353453463
-0.4813825525
0.4819258336
-0.005035960716
-0.4811689755
0.005570256177
0.4816846613
-0.00608594197
-0.4808770569
0.006586648247
0.4813584031
-0.003558047283
-0.003509947174
-0.2401552004
0.003804329652
0.2402662195
-0.003915348732
-0.2395479121
0.004222783846
0.2396415262
-0.004316398036
-0.2384811001
0.004571124788
0.2385579857
-0.004648010395
-0.2369216567
0.004853758467
0.236977479
-0.004909580839
-0.2311568156
0.0049453854
0.2310828405
-0.004871410307
-0.2290000427
0.005135664909
0.2290335333
-0.005169155525
-0.2281203457
0.0050953636
0.228086967
-0.005061984958
-0.224827871
0.00493891456
0.2247776268
-0.004888670276
-0.2221124405
0.004709911337
0.2220436424
-0.004641113274
-0.2199997476
0.004407518515
0.2199129389
-0.004320709909
0.004034049983
-0.218433765
0.2183264133
-0.00392669833
-0.4345658752
0.00708805565
0.4340854532
-0.006607633584
-0.4333921653
0.006096911551
0.4328452958
-0.005550042017
-0.007406123555
0.8627088676
0.004759593292
0.004972997555
-0.00498269874
0.861673101
-0.002502487474
0.8609955646