/*--------------------------------*- C++ -*----------------------------------*\
| =========                 |                                                 |
| \\      /  F ield         | OpenFOAM: The Open Source CFD Toolbox           |
|  \\    /   O peration     | Version:  v1912                                 |
|   \\  /    A nd           | Website:  www.openfoam.com                      |
|    \\/     M anipulation  |                                                 |
\*---------------------------------------------------------------------------*/
FoamFile
{
    version     2.0;
    format      ascii;
    class       volScalarField;
    location    "0.15";
    object      nut;
}
// * * * * * * * * * * * * * * * * * * * * * * * * * * * * * * * * * * * * * //

dimensions      [0 2 -1 0 0 0 0];


internalField   nonuniform List<scalar> 
12556
(
1.155892606
1.155864673
1.155834704
1.155810694
1.156031453
1.156029013
1.156049087
1.156098987
1.156197443
1.156365282
1.156621036
1.008022134
0.9228891724
0.9251483714
1.016698811
1.156608233
1.156377839
1.156234309
1.156111239
1.156065738
1.155822299
1.155829769
1.155854174
1.155879103
1.155162125
1.155073902
1.154985745
1.154918093
1.15513177
1.155163506
1.155290492
1.155598972
1.156067982
1.156882269
1.136838073
0.9391920545
0.851382633
0.8429697505
0.9079763028
1.060956523
1.157204933
1.156310211
1.155666081
1.155353449
1.155000982
1.154986929
1.155044913
1.155124085
1.154389541
1.154244736
1.154105334
1.154023129
1.154259937
1.154387688
1.15470888
1.155360824
1.156527028
1.087645207
0.8493576347
0.7154625464
0.6551928848
0.6604729478
0.7164914132
0.8395414097
1.043819849
1.157072347
1.155592334
1.154844373
1.154231801
1.154176954
1.154242224
1.154362452
1.153609771
1.153408607
1.153231095
1.153158048
1.153446862
1.153763979
1.154530293
1.155769851
1.08266102
0.7828841776
0.6021533396
0.4812539724
0.4428876476
0.4533336286
0.5078901163
0.6100131854
0.772947861
1.042832196
1.1562048
1.154711643
1.153650408
1.153433532
1.15346418
1.153615975
1.152792788
1.152547737
1.152356314
1.152340427
1.152749752
1.153381677
1.154836544
1.157073525
0.8129084952
0.5593014632
0.3991419015
0.3039913841
0.2628603842
0.2795417871
0.3378574694
0.4314409111
0.5717534871
0.7946045037
1.122859923
1.155097991
1.153288069
1.152764175
1.152703196
1.152849695
1.151992395
1.151711116
1.151525377
1.151592643
1.152224286
1.153332939
1.155827966
0.9711780648
0.635125759
0.4123453808
0.2625794047
0.1684942535
0.1331876412
0.1562190684
0.2186036178
0.308440085
0.4338962769
0.6243001656
0.9365685618
1.156119462
1.15315373
1.152173499
1.151947625
1.152069817
1.151171558
1.150872721
1.150734926
1.151008786
1.151900167
1.153689863
1.151426548
0.8217896318
0.527720283
0.3243590968
0.1823314768
0.08475619375
0.04896346541
0.07861173753
0.1455111451
0.2317744771
0.3464608645
0.5102125398
0.793612522
1.157775706
1.153289701
1.151677007
1.151197186
1.151246939
1.150444321
1.150137963
1.150071203
1.150601597
1.151749164
1.154489018
1.034779468
0.7380637282
0.4770427519
0.2932171985
0.1628299463
0.06733517502
0.04620172433
0.1133955177
0.1927193515
0.2975495939
0.4461458306
0.7015378288
1.051745884
1.153710261
1.151318861
1.150488753
1.150434711
1.149773569
1.149482463
1.149546493
1.150402203
1.151943817
1.155726452
0.9603543661
0.6939687478
0.4674022994
0.3108738203
0.2038767568
0.1403311448
0.05994636055
0.1136984786
0.183543802
0.2791477485
0.4137303476
0.6513584404
0.968359201
1.154438296
1.151141767
1.14988574
1.149685468
1.149288607
1.149028629
1.149232747
1.150461234
1.152496383
1.157339137
0.9215348232
0.686042786
0.4865317512
0.3497826832
0.2709279819
0.256983764
0.08610207973
0.131884354
0.1961281794
0.286191996
0.4150920031
0.631163094
0.9156470025
1.155446609
1.151243189
1.149504028
1.149139628
1.148953651
1.148744638
1.149151345
1.150844198
1.153387651
1.159065292
0.9070427344
0.6955828817
0.517867435
0.3966535831
0.3341071165
0.3582200884
0.1176274826
0.162002925
0.223459522
0.3076355158
0.4279564446
0.63520505
0.8897647087
1.156697692
1.151639016
1.149416812
1.148863051
1.148849627
1.148697391
1.149302696
1.151437563
1.154559841
1.149080921
0.9103068785
0.721036263
0.5584714119
0.4428051621
0.3725072446
0.3753989225
0.1550315303
0.2044118015
0.2668258317
0.3502193165
0.4654470397
0.6620136726
0.8929151334
1.158233006
1.152387646
1.14969303
1.148962864
1.148909498
1.148829805
1.149711505
1.1523665
1.155927323
1.136325389
0.9287205085
0.7655301996
0.6115970327
0.4969925327
0.4128238714
0.3269695011
0.03624736492
0.2067258069
0.2671509682
0.3328770777
0.4134074596
0.5285665059
0.7063433936
0.9120441365
1.159872924
1.153423472
1.150308848
1.149407791
1.149181615
1.149175018
1.150301134
1.153389391
1.157540041
1.151907699
0.9870064938
0.8214250289
0.6870001283
0.5764232914
0.5000632406
0.2867276373
0.0738613324
0.3050693222
0.3750504628
0.4326352722
0.5032710108
0.6090237873
0.7690486127
0.9511253639
1.161547984
1.154691592
1.151228053
1.150202954
1.149532615
1.149591355
1.150947297
1.154472528
1.159099937
1.16676726
1.051668271
0.9121563144
0.7919426177
0.6941784404
0.6361275398
0.1405559651
0.1128042466
0.3542361971
0.5679703321
0.5823249516
0.6293258717
0.7216993138
0.8635862143
1.017032527
1.163146782
1.156040783
1.152313971
1.151176767
1.150014561
1.150136348
1.151694488
1.155602917
1.160625654
1.168531296
1.148986396
1.037731503
0.9328147844
0.8666887544
0.7966407663
0.07926137824
0.1304777036
0.3818650288
0.6598907783
0.7938694522
0.797455415
0.8658756154
0.9869484974
1.109953585
1.164731708
1.157401977
1.153526974
1.152335083
1.150471625
1.150639714
1.152369225
1.156642062
1.162026708
1.1700648
1.172181247
1.159401457
1.114739591
1.005976453
0.6682118397
0.03571721584
0.1767901438
0.4300719344
0.7075193468
0.9341606568
1.020569063
1.043484704
1.141676492
1.17262162
1.166075792
1.158686052
1.154697124
1.153460057
1.150984076
1.151194275
1.153062161
1.157622397
1.163269104
1.171415703
1.173330498
1.15967554
1.105582414
0.9514219287
0.4000317816
0.03489521132
0.2421986266
0.4912922061
0.7539607359
0.9535053695
1.075521902
1.139747866
1.170200269
1.174150327
1.167184432
1.159828782
1.155836473
1.154577933
1.151394784
1.151632227
1.153607246
1.158428179
1.164331129
1.172483183
1.174157934
1.159448398
1.100230728
0.8960498975
0.2233526607
0.04818302882
0.290361874
0.536050146
0.7778154895
0.9633967796
1.081150146
1.14305292
1.171879002
1.175233821
1.168010874
1.160750509
1.156793945
1.155528147
1.151821705
1.152090273
1.154150375
1.159152427
1.165197043
1.17331254
1.174707699
1.158908093
1.094467802
0.8515680901
0.1883034796
0.06016003351
0.3081337744
0.5492785985
0.7890764755
0.9712216346
1.085459095
1.14541043
1.172990843
1.175932948
1.168646339
1.161546583
1.157648469
1.156377772
1.152106872
1.152400704
1.154528463
1.159693791
1.165884846
1.173931973
1.174995535
1.158122208
1.087863517
0.7984211608
0.1687195407
0.07109545085
0.3201913742
0.5597877425
0.7973279675
0.9773396595
1.088780301
1.147080625
1.173665159
1.176325499
1.169045121
1.16212185
1.158293194
1.157022377
1.15241758
1.152749554
1.154941014
1.16020295
1.166422698
1.174384188
1.17511563
1.157169926
1.080096132
0.7458808838
0.1557424319
0.08261641377
0.3305710633
0.5686669522
0.8034170532
0.981873916
1.091289921
1.148238098
1.174005744
1.176482727
1.16933266
1.162616943
1.158857631
1.157580777
1.152571228
1.152940562
1.15519218
1.160557774
1.166847649
1.174711552
1.175119529
1.156070104
1.070203413
0.7023322216
0.1470617086
0.09392065359
0.3394697905
0.5761676829
0.8080534575
0.9850061259
1.093073398
1.148985466
1.174091232
1.176461846
1.169433465
1.162906368
1.159212185
1.157929118
1.152777492
1.153198685
1.15551674
1.160937594
1.167185506
1.174947117
1.17503265
1.154743313
1.057225235
0.667901869
0.1409985103
0.1044728009
0.3470960956
0.5824838577
0.8116431943
0.9870272136
1.094204599
1.149381998
1.173976848
1.176304609
1.169481431
1.16315491
1.159517025
1.158219516
1.152806022
1.153277138
1.155662752
1.161166777
1.167460295
1.175112574
1.174857578
1.153042429
1.041542867
0.6406162765
0.1370620241
0.1139566351
0.3536397319
0.5877728471
0.814403351
0.9882200869
1.094780058
1.149476299
1.173704128
1.176041868
1.169369457
1.16321029
1.159622388
1.158311516
1.152910743
1.153444342
1.15590694
1.16145592
1.167679362
1.175221217
1.17458609
1.150801813
1.024639054
0.618893132
0.1348320433
0.1223589553
0.3592418146
0.5921721063
0.8164726319
0.9887956541
1.094904943
1.149317783
1.173306864
1.175697073
1.169269448
1.163292145
1.159745196
1.158414058
1.152835801
1.153425891
1.155961105
1.16158344
1.167855803
1.17528069
1.174205253
1.147907388
1.007872363
0.6015648271
0.1340255699
0.1296716408
0.3640241699
0.5958079528
0.8179544317
0.988895622
1.094672257
1.148953125
1.172812968
1.175289585
1.16902156
1.163189422
1.159680243
1.158332563
1.152867333
1.153525207
1.156143693
1.161806863
1.167989375
1.175297109
1.173698799
1.144343015
0.9920237589
0.5877772295
0.1344147939
0.1359395764
0.3680983664
0.5987840088
0.8189321463
0.9886178759
1.094157191
1.148422909
1.172245075
1.174834487
1.168837816
1.163166369
1.159685564
1.158315214
1.152736711
1.15345078
1.156137257
1.161856413
1.168093973
1.175275606
1.173049515
1.140189439
0.9774453785
0.5768773687
0.1358013289
0.1412725032
0.3715629651
0.6011944926
0.819484059
0.9880385801
1.09341997
1.14776135
1.171621227
1.174342777
1.168482421
1.162928993
1.159474722
1.15808691
1.152723884
1.153507026
1.156278132
1.16203737
1.168166394
1.175219534
1.172242612
1.135582535
0.964207596
0.5683196046
0.1380067601
0.1458278381
0.3745267605
0.603137157
0.8196901019
0.9872226686
1.092509797
1.146997061
1.170955642
1.173822468
1.168229603
1.162805565
1.159368274
1.157956956
1.152551567
1.153387705
1.156221854
1.162022836
1.168219319
1.175129282
1.17126971
1.130669385
0.9522528714
0.5616613535
0.1409011697
0.1497644542
0.377084385
0.6047029019
0.8196264013
0.9862268248
1.091468193
1.146154682
1.170259562
1.17327918
1.167805602
1.162486648
1.159070473
1.157642968
1.152478088
1.153384575
1.156306903
1.162161286
1.168244408
1.175004372
1.17013141
1.125583489
0.9415141542
0.5566038183
0.1443878983
0.15321648
0.3793167905
0.6059822715
0.8193616695
0.9851004775
1.090330158
1.145254255
1.169541772
1.172721754
1.167505478
1.162288179
1.158883156
1.157432172
1.152286545
1.153241104
1.156223245
1.16210785
1.168255059
1.174843012
1.168835985
1.120431959
0.9318965693
0.5528651428
0.1483800572
0.1563002565
0.3812975303
0.6070501115
0.8189564033
0.9838852242
1.089124044
1.144312065
1.168809407
1.172151497
1.167089505
1.161980906
1.158595277
1.157131214
1.15212823
1.153155636
1.156229863
1.162182907
1.168243013
1.174646145
1.167397164
1.115292868
0.9232876102
0.5501949293
0.1527731429
0.1591141353
0.3830946655
0.6079814638
0.8184609069
0.9826152029
1.087873249
1.14334326
1.168070275
1.171582149
1.166705736
1.161675645
1.158297448
1.156808523
1.152006711
1.153071979
1.156193616
1.1621668
1.168227315
1.174418851
1.165845925
1.110219468
0.9155569127
0.5483677732
0.1574665038
0.1617341527
0.3847614459
0.6088175519
0.8179144136
0.9813185496
1.086597205
1.142358684
1.167340184
1.171012021
1.166384279
1.161420943
1.158048084
1.156546806
1.151787893
1.152940408
1.156172108
1.162223849
1.168227654
1.174189555
1.164276999
1.105254516
0.9086244243
0.5472265321
0.1623704677
0.1642096693
0.3863366696
0.6095840624
0.8173408537
0.9800142395
1.085307435
1.141362366
1.166686645
1.170514126
1.165807279
1.160928176
1.157559539
1.156028015
0.1262250595
0.05387966059
0.03950283633
0.243406977
0.07940768435
0.05701697311
0.3472120373
0.1115566568
0.08318066645
0.3787897728
0.1420734093
0.1162674081
0.336396261
0.02667271854
0.03448341387
0.182884517
0.1462761855
0.3248899875
0.05219565031
0.02760412701
0.06951307309
0.2504151053
0.1864228035
0.06568759617
0.04952092024
0.04059488777
0.0748896526
0.02827125927
0.01696838675
0.05725551636
0.09643001766
0.09586135968
0.2535672201
0.2397808549
0.1455156025
0.01892125278
0.029380266
0.08261317424
0.1136664463
0.09939532845
0.319947784
0.3344526219
0.2520702248
0.2958485038
0.1901279802
0.2097491332
0.03469834557
0.02396475084
0.1135532494
0.1421117083
0.1198486392
0.366206176
0.3713125947
0.3443660649
0.380451972
0.13015562
0.1646014126
0.07088022073
0.04932584609
0.3995241367
0.3414187756
0.3697271825
0.3613898284
0.08058847787
0.1039163345
0.01694594571
0.1200289657
0.1011278537
0.4726912281
0.3934486949
0.33712421
0.3084121424
0.03318615238
0.05348122862
0.3043930232
0.07444345337
0.05338333854
0.05551406178
0.1208136794
0.02644562861
0.05028278271
0.0302452741
0.03019978776
0.04475124605
0.03091476485
0.04352499136
0.212281402
0.2301422025
0.2022297797
0.1816463099
0.1730248548
0.1331213965
0.1834798852
0.02369542819
0.01880232154
0.06859794079
0.02907393055
0.0333443795
0.04218689963
0.02924016393
0.06693623086
0.1668707691
0.1870927195
0.3092422518
0.1482559611
0.127885289
0.1717033167
0.1499310536
0.04661554319
0.03561103219
0.09927574681
0.0519902017
0.06933366116
0.03373208935
0.04966648076
0.09506149802
0.1051978051
0.1287093319
0.3826576924
0.1047053878
0.0813756574
0.1266815835
0.1059125506
0.09766054464
0.07440526421
0.05445185325
0.07891473614
0.3511552302
0.01735771453
0.05628691606
0.0345867084
0.08039100503
0.0578165382
0.01711140394
0.131882254
0.1222546371
0.01713663887
0.004905314426
0.03293804416
0.3046248288
0.04280454869
0.02055318079
0.01251110992
0.03422369584
0.02085832719
0.04092595332
0.1898181571
0.1328330022
0.07873494472
0.08260492675
0.05444729635
0.03123376906
0.01023325228
0.007969666769
0.1868368838
0.2203201993
0.129903011
0.01456118595
0.148029714
0.1796746364
0.1506062405
0.01604916856
0.03821820619
0.03335129254
0.05132077742
0.1502056597
0.1369086876
0.1188313159
0.06038953264
0.09151732749
0.04157340541
0.01140822963
0.02089939655
0.01941844154
0.02839474732
0.04281263677
0.03248648404
0.02403248188
0.1304777047
0.0949740537
0.1130398335
0.07221427519
0.09204302333
0.1273569759
0.01902512352
0.01752525345
0.03210642904
0.01955491454
0.03277931363
0.0257593636
0.01702866937
0.02614408921
0.0188962141
0.009383904645
0.02014372487
0.01238957679
0.009266882409
0.01107877141
0.01903424043
0.02474412254
0.02526215555
0.02932314879
0.02857105341
0.01419431129
0.01442127567
0.06104908768
0.01321049975
0.01907174829
0.01414834425
0.01315818842
0.05787146514
0.0940181918
0.2475369622
0.2371891049
0.04870217964
0.04083340239
0.01615660441
0.04871148025
0.1907713035
0.1802403609
0.2053384882
0.1950693576
0.04903125312
0.04880617923
0.04195860924
0.07876551441
0.06331973848
0.05014009447
0.04049978241
0.0629056765
0.08812004046
0.03217428766
0.02152729412
0.01325128704
0.04658263502
0.02386033087
0.03549147494
0.02343664293
0.05022235235
0.03879538205
0.03908047167
0.1811556461
0.03237385546
0.1807529288
0.1777173712
0.03575937651
0.03955015741
0.03274604396
0.03530250126
0.1910787616
0.02258139857
0.02237591711
0.03149030904
0.06875385516
0.06394321953
0.07524550809
0.07051013884
0.03170530448
0.03575641144
0.05517925391
0.04976264615
0.0621365806
0.05675250805
0.03499659138
0.1384210833
0.1371005121
0.1620116298
0.1606627193
0.04365140496
0.01394028131
0.04257891503
0.09626743116
0.09459420064
0.1158984529
0.1144979563
0.020230666
0.02884529498
0.08468574544
0.02241407139
0.01463530718
0.07040974607
0.2196899356
0.2090698441
0.2336445635
0.2231784236
0.07166295694
0.01820239132
0.0519413776
0.05094312384
0.07380532408
0.07299790221
0.01141736237
0.02159870297
0.06047039389
0.05158959291
0.1761456223
0.1691747984
0.0267641513
0.01329183177
0.02085346242
0.01845380755
0.03281714106
0.01472726389
0.01831726506
0.01585452734
0.03289300993
0.03455505555
0.0177273641
0.01862679394
0.004240534406
0.01551199715
0.01526920347
0.5957991439
0.3975112177
0.3870169225
0.2713384139
0.01026431795
0.005489975598
0.1084611908
0.2897875828
0.2743352559
0.005594454909
0.01531923168
0.01562031079
0.07299683709
0.06386283675
0.02331105658
0.1644734201
0.1549945032
0.05347732885
0.008276312536
0.01395180434
0.01102874556
0.00797766849
0.0111446141
0.008007339934
0.02053931331
0.008437228231
0.008164152272
0.02727458379
0.03206221444
0.01125081866
0.01377133472
0.01079475245
0.01117548744
0.02516127904
0.1424454304
0.2978727532
0.2888938102
0.309470306
0.3008186855
0.1452967195
0.260719541
0.2507640571
0.09520565007
0.03638177697
0.101407109
0.09664616481
0.01439219955
0.02311367825
0.05754795798
0.03482512687
0.009589459312
0.00851449822
0.04021801932
0.040919445
0.03595963504
0.04799905281
0.04262028077
0.04198508929
0.02313655311
0.0101432548
0.010689935
0.01965341044
0.1756609519
0.32035575
0.3122467298
0.0612970472
0.06307079956
0.1318496144
0.0144797208
0.01560110403
0.03829821916
0.05878887279
0.100642888
0.09364836488
0.03846361601
0.0826302552
0.07717086008
0.09108113466
0.08471040638
0.03938795956
0.1172545846
0.2735023959
0.2639185175
0.2858649257
0.2766487329
0.1188604947
0.1011875865
0.03895693183
0.0396758004
0.02274280319
0.02361847859
0.08543636692
0.1222891373
0.05735636697
0.06090914616
0.03996757731
0.04063343878
0.109518683
0.08821223302
0.03018645804
0.04041327535
0.01179634968
0.01731836409
0.05402819766
0.04195485367
0.0775525544
0.02211727081
0.0225951302
0.02163344891
0.06687608235
0.01646734165
0.004461109636
0.1331309228
0.1194781174
0.09505337819
0.0913137176
0.03273430998
0.01869258744
0.02150019098
0.04812510699
0.02036315989
0.01329608253
0.02214650488
0.0229061838
0.002816416143
0.03378440933
0.02195948973
0.01083521577
0.006751551991
0.01117594893
0.01389117513
0.01340758108
0.01805540167
0.01594162957
0.01121377503
0.03900126537
0.04041843968
0.01380588962
0.01057516077
0.006625385018
0.01109706867
0.01508070023
0.01520545629
0.01478493015
0.02780926895
0.01553908601
0.01505218913
0.0170045697
0.01779291835
0.02141736014
0.01691775942
0.01581055647
0.01777845359
0.01713091304
0.01508531601
0.01801688196
0.01772087278
0.01863717808
0.01789420159
0.01595426345
0.009163316806
0.01783349272
0.01596448216
0.01796989578
0.01797664827
0.01550465313
0.01375710264
0.01191864591
0.008099465636
0.007887815608
0.02187159345
0.02673951336
0.008121236292
0.008070822099
0.01084629117
0.01113956303
0.03120182392
0.01232111702
0.01178485644
0.0116427007
0.01236308226
0.01162712881
0.02597280874
0.01121349856
0.0107818495
0.01360671748
0.01372450959
0.01476425516
0.03324764787
0.02992738626
0.01346184268
0.02483839169
0.02171288967
0.02884004635
0.02604606034
0.01325112179
0.01657729877
0.02338147507
0.01950190458
0.1091266063
0.1030583178
0.04049435095
0.05114963716
0.1156766152
0.1107544021
0.04463259105
0.04388670864
0.06470873925
0.06717804047
0.08007063696
0.05044128029
0.06315944746
0.06535031556
0.05877686327
0.1149851133
0.1151473253
0.08573095097
0.1062429783
0.05872827519
0.03554044853
0.03724622416
0.0464496265
0.03082846671
0.03444324544
0.01371654215
0.01279207081
0.03662442924
0.008966862889
0.009136517331
0.007394393068
0.01373087588
0.01635813217
0.009539874419
0.0138415445
0.03610003223
0.01930739887
0.0143956232
0.03064152505
0.09131023691
0.08118329391
0.09647461192
0.0933497619
0.03171608183
0.07399422678
0.07213075805
0.07826996454
0.07465935703
0.0371248953
0.1084883144
0.1053880145
0.1133164975
0.1095561636
0.03767583459
0.0337832574
0.1003876185
0.09751472911
0.104364643
0.1013653824
0.0341018457
0.009430294165
0.009926488938
0.02297006084
0.02056221443
0.006248674385
0.009304128841
0.04498193797
0.04426398955
0.04704049837
0.04522846638
0.04291180614
0.04191051326
0.04402120074
0.04317809495
0.06926439426
0.06755975938
0.0715497249
0.06984749256
0.0626377586
0.04964096343
0.06685671074
0.06498088299
0.01663817213
0.01450666024
0.02077541431
0.01781278594
0.009024248129
0.01180598798
0.01157052653
0.01375442981
0.01181310942
0.03801677138
0.03861201233
0.09998177974
0.02279000191
0.02256068179
0.02346208672
0.02297556893
0.02185665445
0.08762525443
0.02434891761
0.03582332197
0.04272907222
0.05555654456
0.120740464
0.03915662974
0.0256881027
0.04177291829
0.03885137551
0.02425325432
0.02369608141
0.02522649022
0.02447901035
0.1107327181
0.04085288113
0.04171457741
0.01056590215
0.01858074988
0.0152359247
0.01538279518
0.01460846104
0.0174282505
0.01182525114
0.01762385087
0.01578951794
0.01656209001
0.05340480386
0.04697710646
0.02150766836
0.02200126596
0.07666975713
0.06900442439
0.0205878931
0.02144462313
0.01586778552
0.03164265495
0.0889443766
0.08112386914
0.01602893005
0.01476898362
0.01962119941
0.01371545458
0.01642208886
0.01925285628
0.03367950185
0.01130210473
0.01766071997
0.01362108087
0.01758211772
0.02282010166
0.04712788807
0.09957365966
0.1269462128
0.01571548135
0.01539167128
0.1884765749
0.2340395756
0.1912031683
0.01104146379
0.02285967208
0.01775122298
0.01784786081
0.1161164782
0.1405818771
0.1594636792
0.004492797855
0.006589263884
0.004861205336
0.00497867634
0.005305818806
0.004224700853
0.04981294593
0.03106278966
0.0196877638
0.02302855082
0.02085154058
0.0232401815
0.1989469737
0.2922892329
0.3121304784
0.271472687
0.285552521
0.2017215486
0.02925830863
0.02525970828
0.01678736617
0.04308913193
0.05148065631
0.1092342598
0.1221904403
0.1172412168
0.05162295259
0.02352614837
0.02003865835
0.03445955405
0.321733937
0.3229826111
0.1784335828
0.1438536665
0.06814325278
0.07155254825
0.07433261395
0.08400847201
0.1548984766
0.06210490909
0.1296159684
0.1239209572
0.01665717132
0.01674732957
0.01747609133
0.02143469513
0.02174555095
0.03547394118
0.01689569252
0.01596227015
0.01623064484
0.01799678919
0.03522241235
0.03059758361
0.02049250181
0.03402370952
0.02097765567
0.02115913902
0.02091666558
0.01036775607
0.0146025648
0.01624812708
0.01616975589
0.01603132016
0.016285835
0.01899822443
0.03784820359
0.04067710254
0.03430175725
0.03066215362
0.02219814694
0.02909230448
0.01472984774
0.01558720768
0.01554214905
0.01162599866
0.0115055861
0.01625434275
0.01527038164
0.02015910446
0.0129720803
0.009264597607
0.01118678811
0.01298972963
0.0125730347
0.008965895789
0.01098443536
0.01379609125
0.01437993595
0.01432238067
0.009737119674
0.0139303486
0.01394732981
0.03798565386
0.03427469896
0.0156226478
0.01420828128
0.01265455029
0.01266020645
0.01636731988
0.01634057778
0.01635377713
0.04710496769
0.03714773822
0.04253579413
0.06379220859
0.08186210118
0.08541145766
0.0419614515
0.06517205619
0.06207301968
0.08464250858
0.08340346375
0.06193508773
0.02791979827
0.0340306979
0.03233905273
0.02515744663
0.02552390901
0.02099595314
0.04568726207
0.04464860857
0.04411927261
0.02488583816
0.03522137144
0.03363151654
0.05258044006
0.05222694494
0.03211901153
0.03003989816
0.02965357393
0.03259281275
0.03190059669
0.03624096937
0.0577698154
0.05725644096
0.06072358872
0.06011875712
0.03884816716
0.03306056524
0.0536434901
0.05318111833
0.05672260093
0.05619409139
0.03488821561
0.06582127907
0.06751904744
0.1424595797
0.1331120887
0.0636070303
0.06527805471
0.08990980245
0.09254085045
0.1662183763
0.02811887009
0.02796780376
0.02942892752
0.02921546639
0.02161735819
0.02771674334
0.02760191418
0.1563771924
0.08596245958
0.08892561404
0.01345213147
0.0130089258
0.01276372055
0.01271439209
0.01343838098
0.01251922732
0.008596494434
0.03924111128
0.01617619023
0.0194242745
0.1369188058
0.131516812
0.06532116171
0.07444977758
0.1432901944
0.1385187952
0.03464309222
0.03470010419
0.05228529207
0.05063689636
0.0342421963
0.03416103695
0.01591090268
0.02534173004
0.04069458686
0.03963414501
0.010011929
0.01612601663
0.01966362067
0.01719789662
0.01796939655
0.02006366979
0.02030496188
0.03328659984
0.01507312851
0.01094168362
0.01472284904
0.01651847729
0.03118910486
0.01955577906
0.02016086462
0.01794108268
0.02074076437
0.01926960456
0.01592075029
0.01591250303
0.01587914767
0.01587757204
0.01529171038
0.006113897712
0.004060309847
0.006930136008
0.01545496501
0.01569016326
0.01585007372
0.01524930504
0.01573230296
0.01547731331
0.009253106851
0.006090330826
0.00525758436
0.008524530143
0.008624980806
0.008605794806
0.008546712952
0.008292169992
0.01257668424
0.01274193349
0.01226909863
0.01241179324
0.008232784307
0.0110341215
0.01071852081
0.0106978598
0.01107985132
0.01084965621
0.01119793055
0.009038587681
0.0143810682
0.01611925402
0.01299255215
0.01342928699
0.008767176196
0.01029996017
0.01054513055
0.01053342266
0.01061305668
0.01060208073
0.01043542787
0.008757243195
0.00867684343
0.008843164055
0.008920740221
0.03912219931
0.05825525504
0.05780985831
0.02298366279
0.03813376152
0.03788271832
0.03946343696
0.0385034525
0.02320836926
0.01606785839
0.01583667609
0.01633675274
0.01598111332
0.02153519049
0.02134563668
0.0219702926
0.02173903511
0.01688230854
0.03767984246
0.02239980795
0.02340897055
0.02229049579
0.03738159727
0.03716556724
0.0377190055
0.03753881407
0.02242512697
0.0230077372
0.02231691324
0.03383717447
0.02411780907
0.01712257527
0.01171597685
0.01599372195
0.01659722248
0.01164302915
0.04724172672
0.03355996089
0.002960697042
0.03270652655
0.049765513
0.04948707277
0.02030470616
0.01319930996
0.00977730455
0.002998081419
0.01648661525
0.01709687537
0.02073634534
0.02090427463
0.03396264117
0.02132512679
0.007921286176
0.008462383926
0.01144081375
0.005829217357
0.009548992423
0.006878192613
0.007500346532
0.007484075088
0.01437013132
0.009407023637
0.01574375617
0.01610602971
0.01601757444
0.04039600614
0.03186841716
0.008360809132
0.009733573115
0.01081871034
0.01776148453
0.01976299199
0.01169893106
0.01446671787
0.01386903552
0.01565873558
0.01073759513
0.01558314269
0.01626335367
0.01168231358
0.01547144715
0.01564812143
0.01790490784
0.01643505052
0.01688390142
0.01575587583
0.01542419494
0.01770233037
0.01754639299
0.01679621639
0.01535850198
0.01680474641
0.01787703402
0.01786553404
0.01172879835
0.01299411751
0.01171163206
0.02038007494
0.01474621151
0.01135880652
0.01056520894
0.01122360048
0.008055000096
0.01097716061
0.01166587577
0.008976385709
0.0110973923
0.007904358619
0.008087055347
0.0119917777
0.0121141586
0.0116891804
0.01186506604
0.008073999199
0.01095899092
0.01550758028
0.01527412326
0.01218699814
0.01195731251
0.01188408768
0.008063883134
0.01194330876
0.01233579684
0.01125120912
0.007591340846
0.01075754312
0.01299005666
0.01181100021
0.01488015162
0.01415880728
0.01064044838
0.01484036155
0.01481103974
0.01347197454
0.01005570241
0.01487242688
0.01425275744
0.01384211218
0.01460625994
0.01483905908
0.01345567053
0.01287967251
0.013770265
0.04560649387
0.04306113654
0.07800618396
0.07095552151
0.04376583899
0.0616920869
0.08280934195
0.08018999421
0.0329533156
0.03051868321
0.02805673622
0.02143930996
0.02769447152
0.03915971262
0.04005648956
0.0356422842
0.01359630125
0.02013991224
0.020490524
0.01805641103
0.01884985969
0.01276937072
0.008618505699
0.009197154784
0.01465795296
0.01019472463
0.009695175949
0.01086936632
0.01035236076
0.01490691056
0.009821861228
0.01025788201
0.008062908072
0.01061909928
0.04858345542
0.04873577969
0.0319411097
0.03171370887
0.0513970535
0.05138156541
0.03069736346
0.03032501487
0.03144732725
0.03103896502
0.05870588898
0.05823072312
0.03661805345
0.03824271881
0.05965103938
0.0591855716
0.05467878948
0.05419840126
0.03345511393
0.03444359478
0.05565379212
0.05515998958
0.009644368066
0.01046728617
0.01046841929
0.01049653957
0.01049752886
0.009780604181
0.009046616095
0.009970033112
0.00933789085
0.010423883
0.01030246418
0.009211591168
0.04473236859
0.02685741543
0.02712709742
0.02643146371
0.02663632634
0.04450265323
0.04597315787
0.0280759671
0.0285784015
0.02739500675
0.02770813955
0.04552474856
0.04255370328
0.0252147665
0.02544294896
0.02484338625
0.02506865899
0.04232385305
0.04376055564
0.026035771
0.02622367486
0.02561653352
0.02584105496
0.04349666388
0.02854118858
0.0283554794
0.06870511947
0.04735233643
0.04764871897
0.04671545273
0.04698067133
0.06808992991
0.02896897003
0.02876629223
0.02645783098
0.02770018454
0.06071333372
0.04319602046
0.04292032301
0.02949538636
0.03091119878
0.0546760871
0.06641412782
0.04607805601
0.04627017072
0.04542012829
0.04537889225
0.06533710912
0.02729186641
0.02732706275
0.01368022977
0.01361778222
0.01298076571
0.01289088601
0.01321011136
0.01166497177
0.01291327921
0.01307493617
0.01239640231
0.01264785862
0.0116661525
0.01276834195
0.01267775747
0.01236701229
0.01314990233
0.01316179649
0.01210561612
0.03793631456
0.05583464767
0.05554889677
0.05716769286
0.05682318608
0.03851547337
0.02273945675
0.0224935426
0.02333128406
0.02305801517
0.02294233273
0.01790211141
0.02562671727
0.04633901844
0.04178339431
0.05341392672
0.05168773364
0.03613955462
0.02783988955
0.01942213046
0.02491553744
0.02650502818
0.04112450147
0.02448129584
0.02477156168
0.0237553388
0.02453032639
0.04118613104
0.02407577731
0.02385179886
0.024939686
0.02468609587
0.01541393456
0.01462413753
0.01478980572
0.01431765367
0.0145871218
0.01544775673
0.01510612589
0.01515039674
0.01482508539
0.01519081384
0.01036023371
0.01601733684
0.01695046411
0.01687085366
0.01777878093
0.01741373977
0.01573649196
0.02090972299
0.02086913354
0.02115102244
0.02108835243
0.03246059812
0.03238195612
0.04861051223
0.02010374534
0.02116492391
0.0206370228
0.02071496949
0.02172304955
0.03657284588
0.03621414166
0.03699880215
0.03672507878
0.02180973163
0.02116784571
0.03553100801
0.03353980979
0.03609282238
0.03549727459
0.02115510908
0.01610220416
0.04793070572
0.04742934488
0.03143061717
0.01640080546
0.01310792926
0.01305348283
0.009612001331
0.01311608201
0.01522200147
0.02018027182
0.01488915718
0.01724088497
0.01675831494
0.03339136743
0.02041071475
0.0206131725
0.01477572188
0.01402584445
0.01421101816
0.01599197193
0.01522772953
0.0100822698
0.01052805764
0.01727778685
0.01440024686
0.01555612492
0.01664072889
0.02048587552
0.03122641777
1.155369402
1.156033219
1.155927721
1.156320689
1.157472058
1.15664759
1.157911466
0.9636865488
1.15770645
0.9192146955
0.7887637142
0.9585521769
0.7676191436
0.73225765
0.8568364957
0.7119151606
0.7069435773
0.8400960957
0.7106042478
0.7517657015
0.8932737549
0.7681115244
0.8638710072
1.036200501
0.8980249134
1.059137667
1.157480785
1.113758962
1.157117978
1.15649774
1.155589541
1.157007297
1.156169282
1.157598905
0.9183780697