/*--------------------------------*- C++ -*----------------------------------*\
| =========                 |                                                 |
| \\      /  F ield         | OpenFOAM: The Open Source CFD Toolbox           |
|  \\    /   O peration     | Version:  v1912                                 |
|   \\  /    A nd           | Website:  www.openfoam.com                      |
|    \\/     M anipulation  |                                                 |
\*---------------------------------------------------------------------------*/
FoamFile
{
    version     2.0;
    format      ascii;
    class       surfaceScalarField;
    location    "1.68";
    object      meshPhi;
}
// * * * * * * * * * * * * * * * * * * * * * * * * * * * * * * * * * * * * * //

dimensions      [0 3 -1 0 0 0 0];
oriented        oriented;


internalField   nonuniform List<scalar> 
25162
(
0
0
0
0
0
0
0
0
0
0
0
0
0
0
0
0
0
0
0
0
0
0
0
0
0
0
0
0
0
0
0
0
0
0
0
0
0
0
0
0
0
0
0
0
0
0
0
0
0
0
0
0
0
0
0
0
0
0
0
0
0
0
0
0
0
0
0
0
0
0
0
0
0
0
0
0
0
0
0
0
0
0
0
0
0
0
0
0
0
0
0
0
0
0
0
0
0
0
0
0
0
0
0
0
4.515079654e-09
-6.111945709e-08
6.844491687e-07
0
-9.920321526e-09
-5.818342478e-07
0
0
0
0
0
0
0
0
0
0
0
0
0
0
0
0
0
0
0
0
0
0
0
0
0
0
0
0
0
0
0
0
0
0
0
0
0
0
0
0
0
0
0
0
0
0
0
0
0
0
0
0
0
0
0
0
0
0
0
0
0
0
0
0
0
0
-2.133258921e-08
9.085079632e-07
1.95110044e-06
-5.805359594e-06
-7.610853566e-06
5.285554405e-05
1.777359323e-05
-7.495411357e-05
-1.002308513e-05
0.0001381049829
1.765937216e-05
-0.000153808354
1.055698449e-06
0.000174002246
-1.617075609e-06
-0.0001708052071
9.611470649e-06
0.0001343968628
-1.698927526e-05
-0.0001153615522
4.653853848e-06
5.148726459e-05
-1.245827766e-05
-3.223207247e-05
0
9.764298023e-07
-2.967396489e-07
0
0
0
0
0
0
0
0
0
0
0
0
0
0
0
0
0
0
0
0
0
0
0
0
0
0
0
0
0
0
0
0
0
0
0
0
0
0
0
0
0
0
0
0
0
0
0
0
0
0
0
-1.035328968e-06
1.742882806e-06
5.306249971e-06
-1.275339099e-05
-3.809589323e-05
0.0001163417581
5.97810496e-05
-0.0001675171141
-7.115330583e-05
0.0003358709066
9.479314096e-05
-0.000388892857
-5.069526785e-05
0.0005133990541
6.387340575e-05
-0.0005397684489
2.891600957e-06
0.000567121843
-2.97326389e-06
-0.0005589974336
4.626835775e-05
0.0004873489339
-5.703348933e-05
-0.0004497492453
5.163478968e-05
0.0003090613136
-6.76311769e-05
-0.0002571736433
2.160939388e-05
0.0001090792926
-3.51372885e-05
-6.851044104e-05
0
1.738452966e-06
-7.765245098e-07
0
0
0
0
0
0
0
0
0
0
0
0
0
0
0
0
0
0
0
0
0
0
0
0
0
0
0
0
0
0
0
0
0
0
0
0
0
0
0
0
0
0
0
0
0
3.405291514e-07
-5.743713395e-07
-4.395582333e-05
7.421038474e-05
6.320312667e-05
-0.0001297471289
-0.0001445833434
0.000354869674
0.0001762595769
-0.0004377042149
-0.0001716954997
0.0006665351915
0.0001960314173
-0.0007286503207
-0.000102842566
0.0008578461993
0.0001138141319
-0.0008818296334
2.05152457e-06
0.0009022965752
-1.50946346e-06
-0.000893033023
8.777925528e-05
0.0008167568025
-9.697813702e-05
-0.000774807757
0.0001165984805
0.0006037386109
-0.0001321613867
-0.0005353253643
8.438377787e-05
0.0003194691313
-9.891966037e-05
-0.0002563132078
2.229005504e-05
8.022232475e-05
-3.419415711e-05
-4.051882658e-05
0
0
0
0
0
0
0
0
0
0
0
0
0
0
0
0
0
0
0
0
0
0
0
0
0
0
0
0
0
0
0
0
0
0
0
0
0
0
0
0
0
0
-1.071648438e-05
7.389948145e-06
1.75451614e-05
-3.253836019e-05
-0.0001407398351
0.0002048873118
0.0001665238295
-0.0002866871777
-0.0002638854664
0.0005635508818
0.000294390604
-0.0006529870863
-0.0002515190483
0.0008517649572
0.0002631586325
-0.0008960049537
-0.0001339410573
0.000965630209
0.0001352600556
-0.0009736626457
1.983085126e-07
0.0009781021744
-1.567200644e-07
-0.000976318876
0.0001202620196
0.0009490468887
-0.0001258496423
-0.0009253900311
0.0001641350649
0.000805631008
-0.0001790429869
-0.0007399206524
0.0001538327534
0.0005073425095
-0.0001682481808
-0.0004270529931
7.336723447e-05
0.0001975738992
-8.562286949e-05
-0.000133142076
9.527056288e-06
2.38363026e-06
-4.141866095e-06
-1.451970582e-07
0
0
0
0
0
0
0
0
0
0
0
0
0
0
0
0
0
0
0
0
0
0
0
0
0
0
0
0
0
0
0
0
0
0
0
2.988585377e-07
-4.579180196e-09
-1.669755226e-07
-4.068849708e-05
3.235310636e-05
4.937482868e-05
-7.369030203e-05
-0.0002338229747
0.0002783039551
0.0002483089114
-0.0003630555666
-0.0003602565567
0.0006229248623
0.0003732384704
-0.0006962341743
-0.000277604271
0.0008464951264
0.0002825960553
-0.0008715685004
-0.0001251214759
0.0008914478689
4.188290001e-05
6.720587244e-05
-0.0004373643416
-0.0004380508239
0.0004357802331
-3.765207247e-06
3.728586392e-06
-0.0004357436123
0.0004449459388
0.0001220723984
-0.0008850787594
0.0004433743918
-7.067907123e-05
-5.463489844e-05
0.0008230246199
0.0002263359252
-0.0002337034248
-0.000783184417
0.0002009852834
0.000601561302
-0.0002120946183
-0.0005212149224
0.0001180654075
0.0002746130973
-0.0001282535036
-0.0002031155235
4.198437353e-05
1.804276674e-05
-2.312968637e-05
-1.349383641e-05
0
0
0
0
0
0
0
0
0
0
0
0
0
0
0
0
0
0
0
0
0
0
0
0
0
0
0
0
0
0
0
0
0
-1.257004371e-06
0
2.709030804e-06
-1.373650677e-06
-2.00143259e-06
-6.75731416e-05
4.502228414e-05
6.979484372e-05
-8.831427653e-05
-0.000287736627
0.0002816135216
0.0002927159681
-0.0003583509457
-0.0003972788491
0.0005788577311
0.0004008939828
-0.000639089508
-0.0002809017635
0.0007462078743
0.0002804440956
-0.0007523991686
-7.298532679e-05
0.0003851879596
7.247282532e-05
-0.0003846754581
0.0003818040221
6.491017629e-05
-6.548693438e-05
-0.000381227264
0.0007440061245
0.0002539529813
-0.0002572665917
-0.0007250763053
0.0002381938109
0.0005895890275
-0.0002419108147
-0.0005245472035
0.0001481403414
0.0003048922239
-0.0001508723967
-0.0002332834622
6.261056925e-05
3.461305789e-05
-3.962874065e-05
-2.766225342e-05
0
0
0
0
0
0
0
0
0
0
0
0
0
0
0
0
0
0
0
0
0
0
0
0
0
0
0
0
0
0
0
0
0
-3.533475249e-06
0
4.468449486e-06
-3.093405005e-06
-3.301432582e-06
-8.112710499e-05
4.655599002e-05
8.352564341e-05
-8.597074358e-05
-0.0003094709745
0.0002537718023
0.0003128403069
-0.0003181240131
-0.0004078665409
0.0004983787595
0.000409165033
-0.0005457434141
-0.0002789629804
0.000623168032
0.0002786141382
-0.0006252736581
-7.449427613e-05
0.0003165522201
7.448259518e-05
-0.0003165405391
0.0003184327743
6.667567029e-05
-6.683285006e-05
-0.0003182755945
0.0006277857649
0.0002660064759
-0.0002675514329
-0.000618757289
0.0002546820393
0.0005193475313
-0.0002572750707
-0.000466882297
0.0001637090934
0.0002821638272
-0.0001662419178
-0.0002200171105
6.581157192e-05
4.570862209e-05
-4.770448219e-05
-3.211295346e-05
0
0
0
0
0
0
0
0
0
0
0
0
0
0
0
0
0
0
0
0
0
0
0
0
0
0
0
0
0
0
0
0
0
-5.372911625e-06
0
6.616435103e-06
-3.718342813e-06
-3.88081923e-06
-8.94978174e-05
4.191638096e-05
9.190987693e-05
-7.50436576e-05
-0.0003210200646
0.0002127691969
0.0003242518546
-0.0002647665925
-0.0004121809777
0.0004081008674
0.0004133314674
-0.0004449429498
-0.0002777418346
0.0005021629434
0.0002774173149
-0.0005029048496
-7.438482514e-05
0.0002549714473
7.428279827e-05
-0.0001283230135
-0.000126546407
0.0002562326259
6.70617403e-05
-6.71057528e-05
-0.0002561886134
0.0005043551628
0.0002668361758
-0.0002657518631
-0.0004987806085
0.0002557527142
0.0004229035893
-0.0002547127154
-0.0003812374833
0.0001646262116
0.0002311114253
-0.0001637245678
-0.0001800055355
5.31569788e-05
4.636044086e-05
-4.57464631e-05
-2.567553631e-05
0
0
0
0
0
0
0
0
0
0
0
0
0
0
0
0
0
0
0
0
0
0
0
0
0
0
0
0
0
0
0
0
0
-7.975949862e-06
0
9.537645176e-06
-4.160301243e-06
-4.183929972e-06
-9.944995722e-05
3.601135549e-05
0.0001021031656
-6.246277252e-05
-0.0003340828139
0.0001696603595
0.0003374490918
-0.0002093851116
-0.0004166972611
0.0003167530356
0.0004178091873
-0.0003435510944
-0.0002766761198
0.0003823582476
0.0002764778996
-0.0003824297928
-7.415738091e-05
0.0001948317098
7.410980921e-05
-9.832531172e-05
-9.645882643e-05
0.0001951945819
6.693175216e-05
-6.690965048e-05
-0.0001952166835
0.0003832297547
0.0002590994558
-0.0002552050253
-0.0003780010585
0.0002430451517
0.0003197939923
-0.0002420219006
-0.0002837667104
0.0001518904496
0.0001656310649
-0.0001485698529
-0.0001262791503
3.250981586e-05
3.683406632e-05
-3.475380533e-05
-1.386081347e-05
0
0
0
0
0
0
0
0
0
0
0
0
0
0
0
0
0
0
0
0
0
0
0
0
0
0
0
0
0
0
0
0
0
-1.142096506e-05
0
1.211922514e-05
-4.06470366e-06
-3.652392853e-06
-0.0001107622119
2.811444201e-05
0.0001141446084
-4.731359314e-05
-0.0003481275755
0.0001230179215
0.0003521712055
-0.0001504277465
-0.0004211883259
0.0002223045316
0.0004223958639
-0.0002394631771
-0.0002760930993
0.0002616353824
0.0002760248651
-0.000261568604
-7.386239098e-05
0.0001344759109
7.383115346e-05
-6.813967539e-05
-6.630499801e-05
0.000134222529
6.652858482e-05
-6.641565763e-05
-0.0001343354562
0.0002613529042
0.0002434934358
-0.0002385219924
-0.0002554542725
0.0002254491315
0.0002035221436
-0.0002143171285
-0.0001858272354
0.0001317165842
0.0001041673309
-0.0001230357475
-7.678893727e-05
1.486873059e-05
2.377794749e-05
-2.046866613e-05
-4.758982655e-06
0
0
0
0
0
0
0
0
0
0
0
0
0
0
0
0
0
0
0
0
0
0
0
0
0
0
0
0
0
0
0
0
0
-1.694515552e-05
0
2.186013681e-05
-3.433773163e-06
-3.03491036e-06
-0.0001242156604
1.909039045e-05
0.0001330198138
-3.134583808e-05
-0.0003656779506
7.373115477e-05
0.000370308293
-8.785560655e-05
-0.0004261143586
0.0001213363145
0.0004295812937
-0.0001325835358
-0.0002761141421
0.000140436024
0.0002761263252
-7.401724532e-05
-6.643096182e-05
-3.789760521e-05
3.794299737e-05
3.788623148e-05
-3.793162363e-05
-1.280917448e-06
1.884897937e-05
1.311860519e-06
-3.727263611e-05
1.839271367e-05
7.400189072e-05
6.57516978e-05
-0.0001393683233
-0.0001410285789
6.651212899e-05
7.413118468e-05
0.0002244095051
0.0001435490124
-0.0002148030908
-0.0001426216959
0.000192941943
0.0001109781581
-0.0001862891035
-9.578781239e-05
0.0001024443225
4.589244388e-05
-9.680481707e-05
-3.121566102e-05
3.268010685e-06
8.532967247e-06
-6.724960322e-06
-3.171260121e-07
0
0
0
0
0
0
0
0
0
0
0
0
0
0
0
0
0
0
0
0
0
0
0
0
0
0
0
0
0
0
0
0
0
-2.52274631e-05
0
2.074542772e-05
-4.783504206e-07
4.808006611e-07
-0.000146362318
1.53063613e-06
0.0001418084808
-2.017585002e-06
-0.0003854825383
3.410715028e-06
0.0003791892817
-4.168442178e-06
-0.0004274159308
8.857860617e-06
0.0004251779886
-1.133302435e-05
-0.0002730299732
1.902793978e-05
0.0002730299732
-1.329255369e-05
-5.735386086e-06
-3.722197047e-05
1.329255369e-05
7.230382988e-05
-3.50818594e-05
-7.587721816e-06
-5.704831871e-06
-3.81840544e-06
7.587728587e-06
3.818395272e-06
-1.329255369e-05
5.704835259e-06
1.902793978e-05
0.0001375535786
-0.0001362278336
-2.025585156e-05
0.0001975820357
3.251388471e-05
-0.0001916480108
-3.321221372e-05
0.0001648993203
2.628402734e-05
-0.000152696435
-2.673767989e-05
7.318067098e-05
1.151276779e-05
-6.621349757e-05
-5.684136934e-06
9.443162002e-08
1.33352601e-06
-6.06146201e-07
0
0
0
0
0
0
0
0
0
0
0
0
0
0
0
0
0
0
0
0
0
0
0
0
0
0
0
0
0
0
0
0
0
0
-1.289905325e-05
0
4.720111017e-06
1.527049966e-06
1.195602541e-06
-0.00011001027
-1.247241027e-05
9.494959766e-05
2.214384552e-05
-0.0003320613674
-6.298775618e-05
0.0003076531593
7.767574953e-05
-0.0004029856964
-0.0001109128952
0.0003883546516
0.0001159821477
-0.0002787200684
-0.0001122088495
0.0002811918739
0.0001066995275
-7.230382988e-05
-0.0001018572279
0.0001360498103
0.0001018572279
-6.374598043e-05
9.241402457e-07
-0.0001018572279
-9.241402536e-07
0.0001018572279
0.0001270862843
-9.525180992e-05
-0.0001222696494
8.846994054e-05
0.0001687213782
-6.14353023e-05
-0.0001605545377
5.224435699e-05
0.0001250895552
-2.914324044e-05
-0.0001170158246
2.303920499e-05
4.205473434e-05
-8.104827995e-06
-3.41150666e-05
4.037304872e-06
0
0
0
0
0
0
0
0
0
0
0
0
0
0
0
0
0
0
0
0
0
0
0
0
0
0
0
0
0
0
0
0
0
0
0
0
0
-1.150234473e-07
0
0
1.575368203e-08
0
-4.617450373e-05
-7.988333724e-06
3.147245981e-05
1.88664391e-05
-0.0002155292694
-7.636318725e-05
0.0001813829692
0.0001007913116
-0.0003176695332
-0.0001714370776
0.0002858720955
0.0001900554355
-0.0002625920289
-0.0002229067808
0.0002468328161
0.0002267572532
-0.0001330665324
-0.0002257821882
0.0001272362065
0.0002232717104
1.331184731e-06
-0.0002106737938
-1.708884403e-06
0.0002036637644
0.0001033919401
-0.0001703230481
-9.567780367e-05
0.0001554993168
0.0001292454331
-0.000106441439
-0.000116873947
9.034135052e-05
8.549415901e-05
-4.733714181e-05
-7.311743178e-05
3.514803273e-05
1.46894428e-05
-7.146721126e-06
-8.879793928e-06
2.03104081e-06
0
0
0
0
0
0
0
0
0
0
0
0
0
0
0
0
0
0
0
0
0
0
0
0
0
0
0
0
0
0
0
0
0
0
0
0
0
0
0
0
0
0
-3.19881572e-06
-2.403758446e-08
5.220067112e-07
1.895601623e-06
-8.41549227e-05
-3.678244782e-05
5.732102223e-05
5.725008212e-05
-0.0001774897205
-0.0001314320199
0.0001412137788
0.0001562379367
-0.0001772533583
-0.0002162694728
0.0001498376842
0.0002295373428
-9.639415414e-05
-0.0002473916125
8.329717419e-05
0.0002465439127
2.825139264e-06
-0.000226538614
-2.995094504e-06
0.0002147443872
6.882880969e-05
-0.0001678346919
-5.896974534e-05
0.0001496511053
7.574692194e-05
-9.365537887e-05
-6.144090429e-05
7.583441335e-05
3.465103485e-05
-2.945668846e-05
-2.302184813e-05
1.754662666e-05
1.316212741e-07
-7.957501603e-08
0
0
0
0
0
0
0
0
0
0
0
0
0
0
0
0
0
0
0
0
0
0
0
0
0
0
0
0
0
0
0
0
0
0
0
0
0
0
0
0
0
0
0
0
0
0
0
0
-6.362166439e-06
-1.099969488e-06
9.791489362e-07
5.279175888e-06
-4.98394188e-05
-3.87898371e-05
2.858973016e-05
5.442524353e-05
-7.067295021e-05
-0.0001018997878
4.873385088e-05
0.0001151569587
-4.338168014e-05
-0.0001395641899
3.160681014e-05
0.0001418111785
2.482652108e-06
-0.0001313826925
-2.017092031e-06
0.0001229609412
2.938298063e-05
-8.783240897e-05
-2.053378078e-05
7.424951022e-05
2.218689294e-05
-3.418019467e-05
-1.221529716e-05
2.264062353e-05
1.208248236e-06
-1.328772894e-06
-3.406118688e-09
1.448133909e-08
0
0
0
0
0
0
0
0
0
0
0
0
0
0
0
0
0
0
0
0
0
0
0
0
0
0
0
0
0
0
0
0
0
0
0
0
0
0
0
0
0
0
0
0
0
0
0
0
0
0
0
0
0
0
-1.502523192e-07
0
0
2.241669134e-07
-6.215420738e-06
-6.261412048e-06
9.710081923e-07
9.750286034e-06
-6.358914153e-06
-1.900537471e-05
2.102324837e-06
2.057269673e-05
4.759031026e-07
-1.886024564e-05
-1.457644053e-07
1.637238634e-05
2.283378844e-06
-6.432600775e-06
-1.931057978e-07
3.536250638e-06
0
0
0
0
0
0
0
0
0
0
0
0
0
0
0
0
0
0
0
0
0
0
0
0
0
0
0
0
0
0
0
0
0
0
0
0
0
0
0
0
0
0
0
0
0
0
0
0
0
0
0
0
0
0
0
0
0
0
0
0
0
0
0
0
0
0
0
0
0
0
0
0
0
0
0
0
0
0
0
0
0
0
0
0
0
0
0
0
0
0
0
0
0
0
0
0
0
0
0
0
0
0
0
0
0
0
0
0
0
0
0
0
0
0
0
0
0
0
0
0
0
0
0
0
0
0
0
0
0
0
0
0
0
0
0
0
0
0
0
0
0
0
0
0
0
0
0
0
0
0
0
0
0
0
0
0
0
0
0
0
0
0
0
0
0
0
0
0
0
0
0
0
0
0
0
0
0
0
0
0
0
0
0
0
0
0
0
0
0
0
0
0
0
0
0
0
0
0
0
0
0
0
0
0
0
0
0
0
0
0
0
0
0
0
0
0
0
0
0
0
0
0
0
0
0
0
0
0
0
0
0
0
0
0
0
0
0
0
0
0
0
0
0
0
0
0
0
0
0
0
0
0
0
0
0
0
0
0
0
0
0
0
0
0
0
0
0
0
0
0
0
0
0
0
0
0
0
0
0
0
0
0
0
0
0
0
0
0
0
0
0
0
0
0
0
0
0
0
0
0
0
0
0
0
0
0
0
0
0
0
0
0
0
0
0
0
0
0
0
0
0
0
0
0
0
0
0
0
0
0
0
0
0
0
0
0
0
0
0
0
0
0
0
0
0
0
0
0
0
0
0
0
0
0
0
0
0
0
0
0
0
0
0
0
0
0
0
0
0
0
0
0
0
0
0
0
0
0
0
0
0
0
0
0
0
0
0
0
0
0
0
0
0
0
0
0
0
0
0
0
0
0
0
0
0
0
0
0
0
0
0
0
0
0
0
0
0
0
0
0
0
0
0
0
0
0
0
0
0
0
0
0
0
0
0
0
0
0
0
0
0
0
0
0
0
0
0
0
0
0
0
0
0
0
0
0
0
0
0
0
0
0
0
0
0
0
0
0
0
0
0
0
0
0
0
0
0
0
0
0
0
0
0
0
0
0
0
0
0
0
0
0
0
0
0
0
0
0
0
0
0
0
0
0
0
0
0
0
0
0
0
0
0
0
0
0
0
0
0
0
0
0
0
0
0
0
0
0
0
0
0
0
0
0
0
0
0
0
0
0
0
0
0
0
0
0
0
0
0
0
0
0
0
0
0
0
0
0
0
0
0
0
0
0
0
0
0
0
0
0
0
0
0
0
0
0
0
0
0
0
0
0
0
0
0
0
0
0
0
0
0
0
0
0
0
0
0
0
0
0
0
0
0
0
0
0
0
0
0
0
0
0
0
0
0
0
0
0
0
0
0
0
0
0
0
0
0
0
0
0
0
0
0
0
0
0
0
0
0
0
0
0
0
0
0
0
0
0
0
0
0
0
0
0
0
0
0
0
0
0
0
0
0
0
0
0
0
0
0
0
0
0
0
0
0
0
0
0
0
0
0
0
0
0
0
0
0
0
0
0
0
0
0
0
0
0
0
0
0
0
0
0
0
0
0
0
0
0
0
0
0
0
0
0
0
0
0
0
0
0
0
0
0
0
0
0
0
0
0
0
0
0
0
0
0
0
0
0
0
0
0
0
0
0
0
0
0
0
0
0
0
0
0
0
0
0
0
0
0
0
0
0
0
0
0
0
0
0
0
0
0
0
0
0
0
0
0
0
0
0
0
0
0
0
0
0
0
0
0
0
0
0
0
0
0
0
0
0
0
0
0
0
0
0
0
0
0
0
0
0
0
0
0
0
0
0
0
0
0
0
0
0
0
0
0
0
0
0
0
0
0
0
0
0
0
0
0
0
0
0
0
0
0
0
0
0
0
0
0
0
0
0
0
0
0
0
0
0
0
0
0
0
0
0
0
0
0
0
0
0
0
0
0
0
0
0
0
0
0
0
0
0
0
0
0
0
0
0
0
0
0
0
0
0
0
0
0
0
0
0
0
0
0
0
0
0
0
0
0
0
0
0
0
0
0
0
0
0
0
0
0
0
0
0
0
0
0
0
0
0
0
0
0
0
0
0
0
0
0
0
0
0
0
0
0
0
0
0
0
0
0
0
0
0
0
0
0
0
0
0
0
0
0
0
0
0
0
0
0
0
0
0
0
0
0
0
0
0
0
0
0
0
0
0
0
0
0
0
0
0
0
0
0
0
0
0
0
0
0
0
0
0
0
0
0
0
0
0
0
0
0
0
0
0
0
0
0
0
0
0
0
0
0
0
0
0
0
0
0
0
0
0
0
0
0
0
0
0
0
0
0
0
0
0
0
0
0
0
0
0
0
0
0
0
0
0
0
0
0
0
0
0
0
0
0
0
0
0
0
0
0
0
0
0
0
0
0
0
0
0
0
0
0
0
0
0
0
0
0
0
0
0
0
0
0
0
0
0
0
0
0
0
0
0
0
0
0
0
0
0
0
0
0
0
0
0
0
0
0
0
0
0
0
0
0
0
0
0
0
0
0
0
0
0
0
0
0
0
0
0
0
0
0
0
0
0
0
0
0
0
0
0
0
0
0
0
0
0
0
0
0
0
0
0
0
0
0
0
0
0
0
0
0
0
0
0
0
0
0
0
0
0
0
0
0
0
0
0
0
0
0
0
0
0
0
0
0
0
0
0
0
0
0
0
0
0
0
0
0
0
0
0
0
0
0
0
0
0
0
0
0
0
0
0
0
0
0
0
0
0
0
0
0
0
0
0
0
0
0
0
0
0
0
0
0
0
0
0
0
0
0
0
0
0
0
0
0
0
0
0
0
0
0
0
0
0
0
0
0
0
0
0
0
0
0
0
0
0
0
0
0
0
0
0
0
0
0
0
0
0
0
0
0
0
0
0
0
0
0
0
0
0
0
0
0
0
0
0
0
0
0
0
0
0
0
0
0
0
0
0
0
0
0
0
0
0
0
0
0
0
0
0
0
0
0
0
0
0
0
0
0
0
0
0
0
0
0
0
0
0
0
0
0
0
0
0
0
0
0
0
0
0
0
0
0
0
0
0
0
0
0
0
0
0
0
0
0
0
0
0
0
0
0
0
0
0
0
0
0
0
0
0
0
0
0
0
0
0
0
0
0
0
0
0
0
0
0
0
0
0
0
0
0
0
0
0
0
0
0
0.000324633153
-0.000324638519
-7.448891006e-05
-5.781313314e-05
-0.0003255917505
5.762102297e-05
0.0001622037302
0.0001635801305
5.428119997e-05
0.0003833715672
-5.584874512e-05
0.0002625218565
-7.446700563e-05
-0.0001322349589
-0.0001302047171
-5.873345183e-05
-0.0002641718902
5.86496228e-05
0.0001311563864
0.0001330993328
-5.833344841e-05
0.0001585369118
0.0001604161777
0.0002023577203
-7.421210552e-05
-0.000102118558
-0.0001001844376
-5.851937212e-05
-0.0002025427058
5.872037841e-05
0.0001001914258
0.0001021502737
-5.877855676e-05
0.0001270177497
0.0001292599811
0.0001419791152
-7.391996194e-05
-7.190877877e-05
-7.001276548e-05
-5.825817704e-05
-0.0001417201258
5.823142196e-05
0.0001417468809
0.0001952071216
-5.853191186e-05
3.986704091e-05
-3.98657832e-05
-3.789886293e-05
-1.935778989e-05
1.405386235e-06
-1.399233755e-06
1.935163741e-05
1.982683376e-05
-3.919819376e-05
-1.267347338e-06
-5.723396299e-05
-8.144720152e-05
5.735970724e-05
8.132145726e-05
0.0001340548787
-5.809052675e-05
9.484715333e-06
-9.484715333e-06
-3.722197046e-05
-9.48473416e-06
5.119629042e-06
-5.11971826e-06
9.484823372e-06
1.885816863e-05
1.396196976e-06
-2.084881097e-05
9.867188271e-06
-2.002465298e-06
-3.190515982e-07
-0.0001026244883
-5.181709545e-05
2.137667953e-05
2.902485534e-05
4.795023373e-05
5.608981509e-05
7.384146909e-05
-5.707354135e-05
0.0003929052511
-0.0003928344788
-7.30560991e-05
-1.237105649e-05
0.0004359088202
1.224246944e-05
-0.00039124468
5.472654001e-05
0.00039079934
5.075962439e-05
0.0004423351115
-4.814879704e-05
-7.078502013e-06
-8.94292179e-05
6.996825109e-06
8.951089481e-05
-0.0001948233824
1.053374231e-05
0.0001954011557
-1.111151554e-05
-0.0003254834369
6.656735663e-05
-0.0002436077594
-0.0006570837184
0.0002426061403
0.0006582382624
0.0002362835861
0.0007508902603
-0.0002405668051
0.0005320435985
-0.0005331245261
-0.0002780273643
8.284433581e-05
-8.287578827e-05
0.000262553309
-8.29612369e-05
0.0003165333212
8.298013582e-05
-7.839089635e-06
-7.307151324e-05
7.898315586e-06
7.301228729e-05
7.626136406e-06
-8.027821863e-05
8.007344379e-05
-7.421361568e-06
-0.0002641430726
6.703292279e-05
-0.0002440804928
-0.0005357383549
0.0002440867881
0.0005357687145
0.0006281884187
-0.0002439648119
0.000412464356
-0.0004126521033
-0.0002769000891
8.264132195e-05
-8.267330756e-05
0.0002023897059
0.0002550060296
8.280975353e-05
7.424255276e-05
0.00023264304
-7.427933939e-05
-0.0001172276056
-0.0001153786477
2.353015644e-05
-5.748379887e-05
-2.345825723e-05
0.0001153923392
-5.798043958e-05
-2.350000215e-05
-6.428517282e-05
0.000128249191
2.343703875e-05
-6.390105481e-05
-7.120842703e-06
-5.756838934e-05
7.15765231e-06
5.753157974e-05
7.065811909e-06
-6.49521965e-05
6.496551839e-05
-7.079133798e-06
-0.0002026466362
6.70356826e-05
-0.0002419801461
-0.0004131425934
0.0002430008304
0.0004130294605
0.0005043654632
-0.0002439853692
0.0002918299311
-0.0002917385631
-0.0002762111096
8.239508354e-05
-8.242984628e-05
0.000142013878
0.0001948586886
8.261434321e-05
7.407111286e-05
0.0001722039903
-7.406915112e-05
-8.705786932e-05
-8.514808275e-05
1.151738609e-05
-4.225275398e-05
-1.155737124e-05
4.229273913e-05
-2.328694255e-05
-4.934736506e-05
9.829193323e-05
2.327895877e-05
-4.89365844e-05
-1.355043537e-05
-8.492742313e-05
1.35608177e-05
8.49170408e-05
1.359234441e-05
-9.841576934e-05
-1.378569544e-05
4.910381537e-05
4.950530499e-05
0.0001707571338
-0.000276043196
-8.917943405e-05
-8.164864576e-05
8.224045996e-05
-4.179583381e-05
-8.222541468e-05
8.164782943e-05
0.0001345068824
8.236411208e-05
3.793567761e-05
5.501420167e-05
-5.501143162e-05
-3.793844766e-05
1.219175016e-05
-2.749466028e-05
-1.207177319e-05
2.737468331e-05
-1.190615796e-05
-3.408468415e-05
3.417133058e-05
1.181951153e-05
2.716640255e-05
8.7745088e-07
-2.708079202e-05
-9.63061407e-07
-1.322363394e-05
-5.466186833e-05
1.328756158e-05
5.459794069e-05
1.339476983e-05
-6.78632173e-05
6.784358881e-05
-1.337514135e-05
6.949393388e-05
-0.000275209528
-4.646556811e-05
-2.084881097e-05
8.086798965e-05
-1.136409564e-05
-8.086798966e-05
2.084881097e-05
-3.611485151e-05
7.405850381e-05
8.223980502e-05
3.789827879e-05
2.471035244e-05
-2.470695748e-05
-3.790167375e-05
1.152801911e-05
-1.135094131e-05
-1.177719613e-05
1.160011833e-05
-1.232273238e-05
-1.869052098e-05
1.887677381e-05
1.213647956e-05
-3.959422801e-05
3.959422801e-05
-7.230382988e-05
3.959422801e-05
1.237936107e-05
-1.237936108e-05
-3.959422801e-05
7.587775836e-06
5.119581794e-06
-2.140183429e-05
0.0001752312394
2.127647566e-05
-8.769304775e-05
-8.741283305e-05
2.161506793e-05
0.0001612462077
-2.155156575e-05
-8.103157311e-05
-8.027813681e-05
0.0001949954845
-1.772418816e-05
1.739593109e-05
-0.0001946672275
0.000177636387
-0.0001777782759
-2.125994543e-05
-8.089572165e-05
7.769716084e-06
8.075214197e-05
-8.870670528e-05
8.877272629e-05
-7.14452302e-06
5.698862067e-05
-0.0003500127958
-5.737212118e-05
0.0001745401214
0.0001758561749
1.474043043e-05
8.793380682e-05
-1.504968398e-05
-0.0001763312586
-7.889003376e-06
-8.096836054e-05
7.961642267e-06
-6.472004762e-05
-2.357260133e-05
0.0001301294916
-6.533684477e-05
-0.0001435532894
-2.348298551e-05
0.0001435723526
2.346392229e-05
-7.447262383e-05
0.0002854864029
7.444384431e-05
-0.0002854576234
-2.137784952e-05
2.1262899e-05
-7.196056978e-05
-7.147776907e-05
1.103600751e-05
-6.47147384e-05
-1.104131673e-05
0.0001591190335
2.153816189e-05
-7.976786347e-05
-7.9274264e-05
0.0001455796508
-2.137546653e-05
-7.306708015e-05
-7.251495362e-05
-6.532677234e-05
7.064244282e-06
6.532833997e-05
-7.26764823e-05
7.256355515e-05
-7.726162482e-06
3.030267573e-05
-0.0001448533697
0.0001448721161
-3.032142206e-05
8.278800941e-06
-8.222476678e-06
-7.273280656e-05
-7.592662389e-06
-6.531834668e-05
7.584236725e-06
-7.777185455e-06
-8.039003655e-05
-7.310292871e-05
8.310216407e-06
-0.0001465625266
3.030729754e-05
0.0001465579048
-4.979704313e-05
-2.33602984e-05
0.0001001098557
-5.023945673e-05
-5.708694184e-05
0.0001135771042
2.359870958e-05
-5.655871545e-05
0.0002251717144
7.427392972e-05
-0.0001135682065
-0.0001116348849
-1.119636745e-05
1.122258502e-05
-5.711315941e-05
1.080128905e-05
-4.975785921e-05
-1.084047297e-05
1.100864825e-05
-6.425781356e-05
-5.758434738e-05
-1.109581894e-05
-0.0001001812229
1.364241193e-05
4.982895477e-05
5.030220057e-05
-5.713372949e-05
5.709952965e-05
-7.08664286e-06
5.892218604e-05
-0.000225363906
-5.881741231e-05
0.0001115937754
0.0001136653569
1.572570303e-05
5.651310222e-05
-1.579224477e-05
-0.00011358029
-1.567399023e-05
-0.0001001895118
1.568227918e-05
-7.599441842e-06
-6.494541705e-05
5.798542212e-05
-0.000115575942
7.67174921e-06
8.076084331e-06
-0.0002330368879
5.873964232e-05
0.0001156440481
0.0001175753836
-3.45775307e-05
-1.197424313e-05
3.464561587e-05
-4.177320842e-05
4.180924836e-05
1.148134616e-05
0.0001645421116
7.398703418e-05
-8.320622011e-05
-8.125181276e-05
-1.111319146e-05
1.102808876e-05
-4.168810573e-05
1.167913975e-05
-3.445798888e-05
-1.179868157e-05
1.07868258e-05
-4.933290181e-05
-4.21833702e-05
-1.118257524e-05
-6.981773432e-05
1.343063449e-05
6.978186966e-05
-8.305742946e-05
8.304347315e-05
-1.353647906e-05
-1.947137099e-05
-1.244203419e-05
1.959067281e-05
-2.672576557e-05
2.676572652e-05
1.215178921e-05
5.310991037e-05
3.793098558e-05
-5.310521834e-05
-1.218063086e-06
-2.6495661e-05
2.639220528e-05
1.321518811e-06
-1.190479579e-05
1.180504474e-05
-2.662601451e-05
1.155075679e-05
-1.923998143e-05
-1.178214635e-05
1.1541799e-05
-3.39473434e-05
-2.759394553e-05
-1.180551054e-05
-1.389682904e-06
2.733802237e-05
-2.374344736e-05
-8.092730011e-05
2.39096796e-05
3.9423086e-05
4.133798187e-05
-5.27460557e-05
5.269014165e-05
-1.316771988e-05
8.806113751e-07
-2.64988215e-05
-9.621559483e-06
2.217284041e-05
9.481965707e-06
-1.130740303e-05
-1.07258436e-05
-1.084238053e-05
1.10280043e-05
1.134239533e-05
2.28018598e-05
3.78971993e-05
-2.280078031e-05
-3.688901511e-06
-2.205107723e-05
2.196137577e-05
3.778602973e-06
-9.508718262e-06
9.456015111e-06
-1.078967738e-05
2.005832842e-05
-9.735838708e-06
-1.014909136e-05
-9.794957834e-06
1.133737381e-05
-1.847713801e-05
-9.664775262e-06
-1.11948843e-05
-2.391165915e-05
-3.6197326e-06
2.384249024e-05
0.0006537698231
-0.0006564158008
-0.0002793368294
-8.294290855e-05
0.0003246148246
-8.16000516e-05
0.0003846067636
8.218124752e-05
7.411520742e-05
0.0003573818916
-0.0003573705299
-7.412656909e-05
2.343247737e-05
-2.340225668e-05
0.0001776061663
-2.230516481e-05
0.0001955000533
2.180059604e-05
9.562032042e-06
-9.176293141e-05
8.073584042e-06
7.412731532e-05
-0.000100687461
5.333727934e-07
0.000102157956
-2.003867797e-06
0.0002932052913
-0.0002932144313
-7.446348383e-05
-2.349654646e-05
0.0001455932117
-2.355635088e-05
0.0001591183397
2.355704469e-05
8.011889862e-06
-4.623795903e-05
-7.447743458e-07
3.897084352e-05
-0.0001417430264
6.655148545e-05
-0.0002317048278
-0.0002917282679
0.0002351228147
0.0002922657913
0.0003828258137
-0.0002400537122
8.887328938e-06
-3.088790709e-05
-3.370937978e-06
2.537151613e-05
-5.097758173e-06
-6.206830443e-05
5.106835313e-06
3.078529752e-05
3.127392977e-05
2.839975638e-06
-3.411790736e-05
3.410530823e-05
-2.827376513e-06
1.827863302e-06
-2.40031381e-05
-1.736384347e-06
-2.295422216e-05
-5.095293242e-05
2.314665536e-05
5.076049921e-05
-7.340026861e-05
-2.356001827e-05
3.565967851e-05
3.7557161e-05
-2.354015297e-05
0.0001612300098
0.0001752377357
2.342598112e-05
0.0003476077672
7.433438024e-05
-0.0003478269401
-5.846287289e-06
8.342530857e-05
6.006746578e-06
-8.358576786e-05
0.0001010459962
-2.788173044e-06
4.176058451e-06
-0.0001024338816
9.398804146e-05
5.526323995e-06
-9.406265444e-05
-5.451711011e-06
1.15696556e-05
-1.312485952e-05
-0.0001932681785
8.964619448e-05
-0.0001786639241
1.432894211e-05
-0.0003575297517
5.756974606e-05
0.0001776148529
0.0001793337735
-3.464339275e-05
2.821606338e-06
3.466176205e-05
2.603195145e-06
-3.796198114e-05
3.803188363e-05
-2.673097624e-06
5.840212635e-05
-0.0001643703556
0.0001643308008
-5.836257159e-05
1.559625318e-05
-1.558867536e-05
-8.306500728e-05
-1.545628429e-05
-6.983749654e-05
1.547604652e-05
-1.572383852e-05
-9.836592104e-05
-8.493917292e-05
1.560800296e-05
-0.0001721772704
5.84763662e-05
0.0001721030305
-1.573352965e-06
-2.273647289e-05
2.281967393e-05
1.490151927e-06
1.524019183e-05
5.595937548e-06
-1.529971182e-05
-5.536417554e-06
3.404421609e-06
-3.149887524e-05
-3.336566129e-06
1.546593847e-05
1.596508128e-05
-0.0002041114899
-3.733922384e-06
0.0002040776291
3.767783238e-06
0.0004325730718
-2.98429924e-05
8.068574288e-06
1.560607094e-05
-0.0002126000115
-0.0002138047132
0.0001953102039
-0.0001992606542
-1.377373791e-05
-0.0001964073288
1.021826126e-05
0.0001967228099
-0.0004230932231
1.075909727e-05
0.000210998907
0.0002060899143
-6.686589532e-06
1.931894083e-06
-4.807910843e-06
5.005929576e-06
-0.0002043095087
-0.0001190938336
0.0001286558656
1.220247692e-05
-0.0001857174748
-1.267363331e-05
9.276849332e-05
9.342013782e-05
1.112055119e-06
-2.571880379e-05
-9.44870849e-05
2.062067224e-06
-2.851426735e-06
-9.989810149e-05
-9.441508461e-05
3.764208316e-06
-0.0001870711108
1.270013926e-05
9.317105347e-05
9.340239494e-05
6.473130635e-06
-7.660726132e-05
7.662309686e-05
-6.488966174e-06
-7.70370345e-05
6.526228969e-06
7.698393617e-05
7.116177337e-06
-6.114955066e-05
6.118183294e-05
-7.148459612e-06
-6.171512625e-05
7.076639371e-06
6.175466422e-05
-4.215748335e-05
-2.621642615e-06
2.794582016e-06
4.198454395e-05
-4.615524673e-05
5.737886037e-05
-3.211723777e-06
1.358121172e-05
-9.05608472e-05
9.055121735e-05
-1.357158188e-05
2.879290166e-06
-3.275103791e-06
-4.575943311e-05
-3.169014687e-06
-4.219549818e-05
3.207029517e-06
2.527935657e-06
2.864691778e-07
-4.925109625e-05
4.643669142e-05
-4.607900653e-05
2.720337667e-06
-9.253179005e-05
1.358834052e-05
4.600482374e-05
4.651983751e-05
-3.038554267e-05
-1.117773222e-05
3.046331331e-05
1.109996158e-05
-2.945028381e-05
6.057772404e-05
2.943177408e-05
-6.055921432e-05
2.941327154e-05
5.497796411e-05
-5.497505646e-05
-2.941617919e-05
-5.019993733e-06
-5.448702073e-05
5.052182556e-06
5.445483191e-05
-6.016029698e-05
-5.094206442e-06
2.98498798e-05
3.030686544e-05
3.928643439e-05
4.9339355e-07
-3.0892499e-05
-1.066617021e-05
-1.512385557e-05
1.532727404e-05
1.046275174e-05
-2.922451651e-05
3.039068217e-05
2.923262542e-05
-3.039879107e-05
2.923779025e-05
2.469861341e-05
-2.926117743e-05
-1.258712352e-05
-1.208810271e-05
-2.934004645e-05
3.790200956e-05
2.930432806e-05
-3.786629118e-05
3.226976057e-05
-3.224740778e-05
-2.92468693e-05
-1.536754975e-05
-1.088517104e-05
1.558655057e-05
9.093143419e-05
-5.057931414e-06
2.964358917e-05
-0.0001155170919
8.352098298e-05
-5.911693842e-06
-8.345557643e-05
2.131280223e-05
0.0001692924076
-2.139112561e-05
-8.47231464e-05
-8.449093785e-05
7.093179422e-06
-7.31911319e-06
8.374691675e-05
-7.112020483e-06
8.975685635e-05
8.286598326e-06
7.817777518e-06
-1.311252001e-05
8.070591499e-05
-7.54111725e-05
8.36050668e-05
6.913421189e-06
0.000167525987
2.148640559e-05
-8.41844112e-05
-8.351517915e-05
2.079880762e-05
0.0001889371778
-0.0001890940099
-2.064197554e-05
6.842106633e-06
-6.939964867e-06
9.408589969e-05
-1.261974634e-06
9.798722132e-05
4.320749496e-06
-9.010371639e-05