/*--------------------------------*- C++ -*----------------------------------*\
| =========                 |                                                 |
| \\      /  F ield         | OpenFOAM: The Open Source CFD Toolbox           |
|  \\    /   O peration     | Version:  v1912                                 |
|   \\  /    A nd           | Website:  www.openfoam.com                      |
|    \\/     M anipulation  |                                                 |
\*---------------------------------------------------------------------------*/
FoamFile
{
    version     2.0;
    format      ascii;
    class       volScalarField;
    location    "1.68";
    object      p;
}
// * * * * * * * * * * * * * * * * * * * * * * * * * * * * * * * * * * * * * //

dimensions      [0 2 -2 0 0 0 0];


internalField   nonuniform List<scalar> 
12556
(
702.5856547
702.2460153
701.224272
698.7384789
694.6118189
685.380477
669.3283275
642.5067049
600.7304423
538.329902
449.8059177
332.0636879
187.5239385
25.41981561
-140.2162314
-294.3128042
-426.2585614
-531.8920283
-611.9027956
-669.3066133
-718.36329
-740.9844099
-754.2119253
-760.4172368
702.8033172
702.7111532
702.1910451
700.6443732
696.6384193
689.068216
675.2285241
653.76565
617.0511812
560.5118693
477.6338899
363.2267295
217.6516448
50.0065241
-124.4716081
-287.3272546
-425.3429104
-534.3798704
-624.1309521
-678.5603993
-726.966786
-747.0612378
-758.8554639
-764.3376834
703.2620968
703.7282768
704.3854269
704.7399957
702.6758334
698.7226187
690.1547974
672.7421892
643.8420717
595.77343
516.1008765
391.7235156
228.2726453
42.66337308
-144.6755232
-319.1359544
-463.2344495
-569.6492418
-658.2245019
-704.8725511
-746.8804871
-761.6511632
-770.1938203
-774.0403074
703.5159923
704.7720336
707.1482759
710.1859544
711.0264234
712.3869231
711.5950916
702.4730589
686.8441131
650.3760959
573.3520827
435.7587553
227.165732
-7.942694291
-221.7505875
-396.0394551
-536.3583272
-636.7792966
-712.6291304
-745.3263021
-776.320244
-783.2086375
-786.8444217
-788.3020864
702.7897734
704.9439361
709.2708323
715.6224701
719.5349568
727.996069
736.801872
739.9411911
742.896525
730.0702235
672.8764731
516.0283138
225.6416205
-121.2601304
-385.1837324
-556.2923552
-666.0265983
-735.6870359
-786.3848572
-798.5772816
-810.8538813
-808.2290156
-805.797305
-804.3365243
700.1963209
703.2434812
709.4447076
719.0293469
727.3724492
742.706709
762.285472
779.3884961
810.2579031
846.2860816
856.7438777
735.2582267
267.3255726
-349.6061955
-682.9313568
-810.9717209
-856.7218544
-871.123951
-875.7261847
-858.7490315
-846.9204464
-833.3253362
-823.9252311
-819.2713582
694.8834686
698.7096779
706.5441782
718.9530473
731.5640109
753.36633
782.5953114
815.1209632
879.0374709
982.2581171
1134.031664
1290.809635
574.9687716
-922.3219474
-1169.06878
-1148.580984
-1093.774818
-1029.423811
-971.1983021
-918.2790874
-879.9677319
-854.2747123
-837.9896338
-830.2658357
686.119091
690.5137895
699.5378612
713.9781478
730.4399098
756.99782
793.2902544
838.8506262
928.7037874
1081.425827
1335.866737
1823.846809
-2498.385581
-1840.526911
-1514.456751
-1325.358242
-1179.776982
-1053.309441
-967.19363
-901.9876631
-866.336771
-844.6692956
-834.3922978
673.3480428
678.028262
687.6375929
703.0745083
722.4650516
751.4925507
791.2057376
844.0277853
943.5228522
1100.22864
1307.997472
1522.921157
-3912.209857
-2344.384585
-1771.45669
-1483.171692
-1279.721193
-1101.258503
-993.0403678
-907.2419236
-865.7444981
-840.8514139
-829.0500046
656.2619669
660.9135445
670.4404817
685.7217253
706.9087435
735.9496946
775.3016818
829.5778665
925.1462075
1060.644099
1205.385343
1316.396217
-3696.354929
-2364.786333
-1806.947927
-1509.870522
-1297.927068
-1101.365697
-987.8696593
-892.4354463
-850.1941452
-824.8551548
-812.7987275
634.8421379
639.1693365
647.9813571
661.9605692
683.8977684
710.6851243
746.5054147
797.6616179
881.7096979
992.5162718
1102.250655
1191.809151
-2813.093072
-2019.871137
-1637.707902
-1409.902161
-1231.314871
-1051.237621
-950.5152753
-857.5564729
-819.5173478
-796.4548292
-785.3926921
609.341259
613.087346
620.7122566
632.198128
654.4924606
676.8378484
706.7541894
751.4666717
819.8177689
907.1901927
998.3357949
1098.200643
-1866.979319
-1528.617788
-1348.191656
-1217.422317
-1099.32201
-962.0226718
-886.3375558
-805.545511
-775.6350113
-756.9090107
-747.8169536
580.2715673
583.2554326
589.4421374
598.2771969
618.3514302
635.882886
658.2642144
694.6840743
744.2512154
805.7093326
874.9259812
980.5196639
-798.3351284
-982.7586483
-1041.078144
-1023.488311
-987.4803927
-935.7442413
-851.3921008
-804.5258607
-742.0368579
-722.0278739
-708.6242613
-702.0570735
548.2769269
550.4114639
554.9850532
561.2748496
578.3096095
590.5514051
604.8768765
631.4121734
660.2169577
689.9629253
716.4518692
785.4492669
209.7883343
-429.4052091
-649.8755651
-732.7246978
-767.2541826
-769.9035585
-735.9489172
-714.9496706
-673.6358158
-662.609242
-654.5512973
-650.6468743
514.1074052
515.3127863
517.9812157
521.4530178
535.4990693
541.7026084
548.0576319
562.7236477
570.2120055
566.3627353
540.2113506
458.124427
169.857098
-193.0055377
-399.5998432
-513.1890506
-584.5244415
-624.8010556
-626.3739797
-626.8877891
-603.915369
-600.6638128
-597.6125222
-596.1768348
478.5455468
478.8638171
479.6423212
480.3904575
491.3648493
492.1871941
491.3579598
495.5721723
486.6373214
462.3054797
406.5807614
296.7915661
125.7545019
-87.03071502
-248.1766883
-363.5985083
-448.744412
-506.9280001
-530.077623
-544.9576924
-536.2139857
-539.1728966
-540.3439866
-540.9460329
442.3811806
441.9287827
441.0502105
439.4133047
447.4609972
443.6849735
437.0482188
433.6788991
415.0318983
380.3392635
320.1013465
236.1515381
109.4735381
-30.94285627
-156.8544893
-263.1394686
-350.9934645
-413.986628
-447.86189
-471.2672721
-472.9405817
-480.4116771
-484.738148
-486.8060281
406.3442426
405.2571928
403.0160194
399.4378014
404.8206841
397.461873
386.4376863
377.6258877
353.9623958
317.2771516
262.1080832
190.0197222
99.04275338
-3.779105692
-106.9156541
-201.8606286
-281.3442849
-341.0020734
-379.0129829
-406.7008215
-415.2699691
-425.6412012
-432.1076667
-435.1402172
371.035786
369.4517001
366.1433265
361.0843677
364.2648393
354.3277118
340.331032
327.952982
301.2874946
264.809066
216.0666331
154.7838142
83.88002308
1.778515769
-84.21571609
-163.4199121
-230.5522969
-284.2923529
-322.5033124
-351.1026193
-363.541976
-375.4829709
-383.1851541
-386.8341608
336.9257746
334.9828228
330.9019966
324.8083086
326.2713573
314.6774648
298.9577755
284.5823744
256.9974363
221.2639354
176.7133316
124.3292349
65.2779153
-2.256460096
-71.27601963
-135.7178297
-192.2712887
-239.5315738
-275.7239654
-303.4319062
-317.691986
-330.1675492
-338.3976941
-342.3095252
304.3617364
302.1909305
297.6152518
290.8862387
291.0920531
278.608475
262.0564155
246.9819164
219.8548642
186.1427049
145.9128415
99.91286077
50.8917162
-5.166092157
-61.54619303
-114.7244455
-162.4826654
-203.619965
-236.6726764
-262.5634843
-277.267165
-289.5641619
-297.8151661
-301.7494099
273.5782418
271.292989
266.4652876
259.4336812
258.7961497
246.0207443
229.3803045
214.4113794
188.5896094
157.4947257
121.5958919
81.49352542
39.83490433
-6.953850697
-53.73746716
-98.13284537
-138.6183789
-174.2426668
-203.8239528
-227.426172
-241.6890689
-253.3631438
-261.3017618
-265.0949115
244.7053845
242.3974069
237.5181453
230.4590839
229.2849541
216.6867875
200.5122759
186.1498046
162.1102821
133.8612572
102.0765935
67.1592767
31.49466422
-7.937996038
-47.19120411
-84.57476255
-119.0170871
-149.7849489
-175.9169244
-197.0802872
-210.3824797
-221.1789127
-228.5999287
-232.1499182
217.7849701
215.5254242
210.7497043
203.8777474
202.4143902
190.3265785
174.9971886
161.5396082
139.5191317
114.1420237
86.14667663
55.77359818
25.10929302
-8.346374067
-41.53060535
-73.19882355
-102.5768909
-129.1044973
-151.981793
-170.7346345
-182.8043666
-192.5975446
-199.3866539
-202.6363037
192.7911771
190.6334479
186.0751395
179.5465226
177.9897334
166.6389505
152.4016668
140.0117692
120.0963328
97.5072739
72.95377393
46.57080123
20.14878649
-8.345161862
-36.52963297
-63.45511806
-88.54913645
-111.3828916
-131.2674563
-147.7336546
-158.4548258
-167.2052341
-173.3122647
-176.2358902
169.6488625
167.6314616
163.3708869
157.2934687
155.791653
145.322044
132.3305308
121.0810088
103.2638708
83.32079889
61.88157643
39.0170866
16.24649446
-8.05589055
-32.0447045
-54.97218466
-76.40642379
-96.01750836
-113.1874088
-127.5342627
-136.8864089
-144.608387
-150.0259301
-152.6189268
148.245579
146.3948736
142.4861263
136.9301649
135.5974916
126.0920805
114.4012394
104.3412308
88.55912005
71.09323903
52.47368104
32.73087526
13.14176492
-7.567813797
-27.97989896
-47.49017527
-65.76757352
-82.55693364
-97.2809704
-109.6892031
-117.7030877
-124.4416659
-129.1883452
-131.4590101
128.4420993
126.7748857
123.2519225
118.2593568
117.1824785
108.6819036
98.31275399
89.43617566
75.60389264
60.44224016
44.38409246
27.42852549
10.64354195
-6.946527684
-24.26611204
-40.81806876
-56.34573637
-70.65134306
-83.17488754
-93.82143782
-100.5550102
-106.37037
-110.4790383
-112.4428072
110.0826783
108.6086371
105.490493
101.0823266
100.3291192
92.84307291
83.79902504
76.06955229
64.09028213
51.06702747
37.3456568
22.89661567
8.610325878
-6.239820272
-20.85091863
-34.81087862
-47.91964366
-60.02479089
-70.56465481
-79.61347652
-85.133553
-90.09133029
-93.60125355
-95.27674208
93.00252424
91.72612365
89.02123084
85.20358076
84.82778748
78.34634381
70.60473217
63.98877957
53.76270024
42.72475801
31.1461148
18.97220253
6.934083628
-5.482119488
-17.6914845
-29.35308316
-40.31107743
-50.45071792
-59.19644003
-66.79314837
-71.16579807
-75.33054252
-78.28230707
-79.68896471
77.02630179
75.94939955
73.6599254
70.42646356
70.4865741
64.98021508
58.50273471
52.97931076
44.40661935
35.21593648
25.61431592
15.52390829
5.53035566
-4.698117618
-14.75133946
-24.35010747
-33.37312947
-41.73151118
-48.85721244
-55.12476996
-58.40394175
-61.83727623
-64.26922448
-65.42501617
61.99973129
61.12022379
59.24456672
56.58628091
57.10485805
52.54869415
47.23550241
42.85803989
35.83716524
28.37286767
20.60869896
12.44951124
4.331927592
-3.905467977
-11.99836879
-19.72303348
-26.98651318
-33.71214921
-39.34826193
-44.39728259
-46.64326299
-49.39685859
-51.34364733
-52.26619429
47.67862971
47.00191089
45.54313505
43.4410187
44.54225976
40.87103858
36.67253167
33.42732114
27.88680998
22.04981962
16.00967213
9.654003771
3.284224464
-3.116188806
-9.402464989
-15.4021058
-21.04939928
-26.29987707
-30.48208871
-34.42042701
-35.62981852
-37.76085625
-39.24800972
-39.9455227
34.15902347
33.66393614
32.61253414
31.10549986
32.4145099
29.77403735
26.66974449
24.53054852
20.40964733
16.11928583
11.71210894
7.058709717
2.341492141
-2.338083615
-6.934808764
-11.32276474
-15.46096146
-19.32808766
-22.1436787
-25.00105902
-25.40468014
-26.90851415
-27.96234256
-28.46158154
20.31626065
20.07993954
19.45412219
18.54516721
20.81495519
19.11104753
17.0605481
16.02403285
13.27701293
10.46604066
7.615856048
4.591858656
1.465635436
-1.574803536
-4.567046564
-7.424389064
-10.12727383
-12.67591768
-14.19536136
-16.06707689
-15.13702204
-16.03998482
-16.66198194
-16.9045265
10.12824188
9.892747474
9.560994012
9.023396308
9.453799042
8.603247685
7.622178033
7.774481171
6.38033035
4.986105641
3.609289184
2.183435631
0.6343266273
-0.8244822668
-2.27087447
-3.650860111
-4.963407462
-6.224105156
-6.421083546
-7.277859703
-7.342222608
-7.793749925
-8.088514544
-8.299220148
1562.79688
-4171.319377
-2632.055954
1335.511102
-4019.758455
-4240.234292
1204.59341
-3055.834119
-3924.27255
1110.348944
-2029.522324
-2924.077493
990.0562414
-853.824906
-890.6866178
-1096.216123
-1906.378433
812.4456343
297.479188
-807.4462873
161.8749763
-442.0321312
-991.0169974
1804.615962
771.3956284
-2295.502284
-739.6440906
-5388.854459
-3244.09042
-3841.233781
-2489.416505
-1969.024633
1231.834745
1324.816529
1499.921607
-5679.002208
-5912.483415
-3776.282723
-2640.614748
-2588.824663
1127.636685
1194.257984
1305.909873
1263.67161
1291.847512
1360.210541
-4232.087651
-5001.591754
-2932.626654
-2289.432506
-2587.426851
1025.275108
1096.309027
1181.076489
1156.280043
1193.176839
1226.196057
-2825.330278
-3422.8681
908.9678254
981.3655559
1083.750521
1051.74744
1112.70757
1154.22408
-1626.679948
-1571.865938
-2106.932338
758.0492238
806.0097863
964.0441422
914.2955033
991.0844699
1049.976961
525.412594
276.8555493
308.9434285
1926.902913
1579.435215
2498.35759
2003.328085
-5915.557823
-5454.180943
-3743.983471
-5223.231997
-5760.914757
1368.631086
1427.262086
1400.983025
1427.907094
1372.087034
1551.92728
1437.82875
-5047.049501
-5650.110744
-4171.365565
-5523.925441
-4959.272656
-5760.364328
-5550.541243
-4196.637057
1232.124767
1282.692036
1247.626126
1287.797737
1233.648353
1367.655219
1292.856148
-3511.138126
-4176.46063
-3446.267952
-4075.985127
-3441.357227
-4914.60387
-4175.627571
-3573.058904
1157.230561
1191.477443
1144.985001
1194.670836
1161.377679
1230.552527
1196.101789
-2185.02207
-2742.912365
1054.060256
1109.759247
1043.962189
-1585.513135
1115.057426
1058.98467
1158.269749
1118.044149
-1625.516591
-1022.652399
-1496.603695
-1578.833658
1012.268216
987.8895465
902.2935133
-78.13073872
994.3513337
901.8370811
1054.908998
996.5672011
-154.1432046
1328.292753
1534.192232
1722.367461
1749.406425
1974.75049
2362.347361
-6494.867761
-3869.449861
1426.728584
1437.987684
1558.511912
-3368.443495
-1982.159408
-1733.358001
-2159.930836
-2013.56265
-1952.108977
-2232.617564
-208.0231824
-513.2656382
-884.8997106
1586.183788
1908.447078
1702.743493
1615.097431
3356.549235
2683.18371
-3109.760567
-5071.516521
-3519.806823
-2278.447404
-2580.871631
-2407.182261
-2700.428679
-2158.991401
-3356.535214
-2780.210082
-2535.303083
-1194.971769
-353.3518058
-497.7156121
1269.108162
1883.331701
2488.29316
-2805.61788
-726.4138845
1020.543943
-6622.532054
-4758.522139
-6450.939112
-3720.871756
-6281.595478
-4434.527474
-5799.143872
-5817.385954
-4598.317602
-4650.479843
-2988.527769
-3304.926119
-3076.438098
-3282.372742
-2961.765527
-3678.258157
-3330.122249
-3161.80202
1132.017963
1103.901639
1084.725663
-1607.193693
-1866.236713
-1940.606765
1018.939828
982.9328958
955.2167362
1016.596171
991.5945177
1022.310267
1888.352773
1642.930812
1739.702131
1657.351471
1917.117338
1510.211138
1631.50728
1691.216915
2347.602827
2641.676121
3199.489903
1974.491096
2539.792683
2261.653473
2562.104378
1954.204295
-5815.529346
-5792.044571
1400.74389
1427.91148
1397.042433
1489.695678
1452.625864
1503.904603
1428.344946
1448.246779
1474.33791
-5334.001103
-5370.939473
-5275.840773
-4704.840227
-4836.05663
-4471.52744
-4652.180931
-5239.18994
-5693.919564
-4948.381826
-4928.625966
-4869.846819
-4938.509536
-5676.720341
1259.314609
1255.450544
1334.057321
1328.533327
-3784.775199
-3714.89218
-3833.54706
1180.044647
1177.517087
1211.361068
1209.086286
-2914.175748
-2603.452504
-2500.4888
-2623.78961
-2936.460937
1076.900362
1048.03293
1024.518841
1077.877889
1055.83053
1081.878686
-1243.433408
1085.993042
1080.523884
1138.20218
1136.064434
-1949.192252
-1242.899592
-1264.523578
-1521.414951
944.7870931
911.9865269
923.9054281
940.6854468
446.0925347
142.2500109
1028.330787
-342.9246453
97.10657503
-259.2923025
1025.639374
-406.4361156
-290.4035257
64.68569799
-4666.096664
-2152.381371
-2298.286387
582.0303727
547.8713748
771.9122569
662.6376215
676.8200302
943.1822944
182.7713423
-148.7931973
-330.9791564
4317.400258
-2332.003659
-2489.664037
-934.2534259
-1180.061522
-1195.932737
-166.2298179
-409.2135429
-135.8945051
2058.479018
2622.22742
3347.296917
-3311.035233
-705.2298307
1349.124674
-5740.24025
-6396.710619
-6320.638363
-5883.651588
-4387.867371
-4578.124975
-4389.915493
-5260.334643
-5105.868554
-4857.753701
1206.977809
1190.145216
1174.889302
1212.963711
1195.553183
1209.581481
1127.598449
1109.939784
1134.442912
1002.284437
985.8782163
972.2370713
845.2090574
596.126796
336.3125712
-5888.385772
-6369.222928
-6428.444768
-5625.731391
-4687.322265
-4375.582332
-4903.241276
-4760.113037
-5643.036362
-5177.075542
-5449.589826
-5313.279742
-5542.647264
1251.230587
1239.161831
1219.175023
1239.419776
1246.740139
1242.311278
-4331.198676
-4163.808748
-4026.585496
-3793.285551
-3554.264054
-3792.123738
-4580.376156
-4186.095301
-4404.146764
-3871.971009
-4109.246605
-4530.33729
1174.120371
1149.627116
1133.312446
1169.959959
1154.879482
1176.616597
1189.755466
1203.104526
1204.390676
1173.548756
1187.890471
1169.806784
1221.815143
1226.448793
1236.460743
1204.372273
1206.484477
1200.817444
-2421.134499
-2560.776738
-2270.982407
-1440.687762
-1439.151446
1104.914427
1060.531055
1148.596372
1156.204887
1171.031049
1144.466073
1125.709011
-1757.542851
814.2183621
901.7376362
864.4865443
967.3007323
949.7074996
971.3768917
108.9291311
352.7711436
116.4563945
980.5986893
414.3814294
661.8817458
481.6779474
592.4115348
1038.744555
1009.179028
-5837.723756
-4540.912992
-5484.851358
-3497.447046
-3555.304119
-1974.038026
-2107.558889
-2124.633058
1564.725957
1547.663862
3166.689974
3581.324374
4005.863989
3377.686934
3056.703654
-2654.338959
-2495.60793
-2448.604346
-2502.993132
-2673.520922
-1209.263115
-1039.122237
-1047.079425
-1043.595882
-1213.212297
-829.5871993
-995.8977273
-600.9894721
-620.6244457
-780.8674093
-412.1188043
-568.1160904
-503.7487187
-6760.480073
-5922.730676
-5455.169427
-6300.919751
-6039.897097
-5268.49644
-4570.417947
-5464.219407
-6157.691724
-6083.863685
-5753.443162
-5869.490691
-6287.444338
-6188.85646
-4810.058114
-4637.489551
-4441.2438
-4693.217341
-4877.241435
-4446.694256
-4637.697253
-4929.197023
-4806.958119
-5054.19478
-4865.702411
-3124.39616
-3180.644486
-3149.526592
-3065.763208
-3197.421334
-3531.0583
-3426.589677
-3567.063248
-3241.573561
-3380.125223
-3479.276211
-1817.000032
-1790.517344
-1926.618272
1002.672959
990.4841064
1002.905488
1030.85712
1018.368594
1007.164668
1760.258344
1727.361714
1744.480631
1792.965214
1701.48767
1953.814525
1828.468555
1780.034846
1556.44878
1592.623905
1546.537497
1675.658473
1610.79647
1574.266268
2177.413346
2169.19289
2002.224236
2254.891828
2164.773357
-6379.476459
-6365.648146
-5874.049596
-6511.599384
-6558.14089
-6487.752403
-6464.229844
-6375.287459
-6582.701623
-6476.342049
-5681.292567
-6270.88586
-6376.819344
1411.278729
1413.82287
1405.917603
1428.902325
1417.585793
1416.76135
1396.600849
1389.623932
1404.778951
1398.572677
1469.92877
1493.987887
1471.775364
1534.324923
1502.837746
1476.21606
1438.763359
1445.489556
1432.55129
1465.588345
1450.256466
1443.650687
-5612.225769
-5492.858482
-5218.109571
-5497.612728
-5784.149961
-5643.282481
1274.740086
1264.061357
1292.88943
1277.491888
1247.819598
1241.631659
1259.660944
1249.656941
1364.336981
1346.10919
1386.197408
1370.305525
1314.942901
1297.128331
1339.957016
1321.397096
-3800.122052
-3949.372179
-3614.550074
-3754.384319
-3851.622335
-4212.53731
-4383.470454
-3998.979969
-4160.267002
1189.889007
1200.668534
1187.633162
1206.069425
1192.206885
1207.245519
1209.088246
1190.147074
1171.365003
1187.377402
1187.304022
1217.737531
1223.271702
1218.838782
1226.242236
1220.469045
1238.583391
1228.579896
1207.254784
1206.399884
1214.998808
1208.36317
1202.655807
1207.818617
1214.643222
-2683.802529
-2759.090236
-2824.339786
-2671.596225
-2871.513463
-2801.470033
-1224.396578
-1393.730352
-1425.920391
-1223.689919
1101.440601
1066.447555
1147.365004
1152.770169
1145.597093
1128.74253
1148.157301
1147.093889
-1835.193859
962.0979001
942.7822097
925.6722993
613.5657396
515.0793022
973.5872104
226.6693812
387.7491027
279.0505017
1033.271525
-496.5596977
-59.29321525
169.0288785
-105.6042634
1002.332787
-2221.477972
-1749.714397
-1153.283582
-2286.392711
-2338.642538
-1113.252707
-1166.040059
-1587.119665
-2349.050537
-1000.017795
-992.8693151
-833.5041548
-2083.201058
-1592.357795
-1544.612385
2581.803085
3385.667085
4203.084953
-3504.429359
-631.9869887
1779.076301
-1434.386752
-1027.324531
-2742.976388
-5100.441498
-5762.659449
-6036.479944
1321.596186
1304.498792
1278.120404
1340.798327
1313.574637
1331.70872
-1609.194202
-1744.693455
-1760.17766
-2185.891602
-1931.852361
-1874.028302
1034.525151
1022.895791
1035.665548
-6111.65829
-6240.90304
-5645.34695
1269.739357
1246.37092
1258.400171
1274.840726
1277.544033
1292.035435
1296.63778
1313.335798
1307.524899
1059.82432
1048.970098
1038.761759
-1599.274144
-1554.606166
-1542.605877
1063.861509
1069.270944
1062.195715
-1691.348771
-1704.016736
-1613.532722
-1436.284785
-1424.388771
-1562.612684
991.1875352
1051.020808
1057.542693
1060.149952
996.7598631
-6381.129015
-3404.07075
-1994.760759
-2058.313738
-2065.964715
-2279.760875
-2141.327931
-2103.88465
1591.120785
-4236.752474
-3711.015584
-4423.321305
-2406.151248
-2462.580019
-2321.686093
-833.4852781
-849.3687134
-676.0096696
-680.525275
-776.5585741
-1667.524703
-1078.64162
-3253.092627
-6606.05483
-6279.87845
-6124.898131
-6736.704775
-6701.896559
-3033.45125
-3064.010731
-3017.379834
-3321.271916
-3311.80666
-3283.651118
-2888.924456
-3019.651201
-3098.411468
-3642.431392
-3592.827377
-3640.360285
-1931.677848
-1908.664294
-1941.655127
1836.578004
1886.110642
1670.208209
1684.354829
1702.575345
1674.944923
1518.40134
1535.425139
1523.756512
1649.295264
1626.189354
1608.661291
2429.978199
2236.30858
2260.260578
2451.809324
2439.207322
2583.735853
1940.248424
1995.704944
2015.525324
1404.681689
1404.861461
1409.540113
1427.634473
1424.838963
1425.60876
1402.904658
1402.334113
1409.888359
1406.972193
1459.483286
1465.446171
1459.292799
1513.842102
1504.006806
1495.354918
1429.097508
1431.878478
1429.568719
1454.334645
1451.124531
1447.149718
1262.959908
1273.925491
1270.461482
1245.584875
1249.170698
1259.040879
1343.116909
1360.422245
1349.128203
1358.242195
1351.552377
1400.484677
1394.834874
1302.359749
1344.922434
1338.353823
1313.074931
1319.373736
1337.220177
-3964.10958
-4021.782443
-3686.598995
-3740.067151
-3766.159519
-4077.203128
-4102.110606
-3974.89094
-4111.728299
-3957.14207
1064.736665
1053.136084
1063.600602
1095.794757
1080.821124
1069.295026
1089.827922
1096.713326
1091.735245
1075.56266
1079.104085
1083.902759
-1946.040177
922.879271
927.0736499
922.3399613
685.0363172
932.8031647
321.6863426
456.8634738
583.5867029
1034.342718
1033.682429
1029.680593
-406.3348178
-252.2003906
-227.9353007
-242.3396336
1021.007274
1027.554768
1032.415225
-138.5058245
-213.2498931
-359.8094515
-2188.752643
-2229.893287
-2323.18406
-2277.465345
-2255.673456
4280.79011
4711.548636
4047.14288
-2383.795853
-2409.333697
-2336.919278
-2507.633384
-2456.800397
-2443.461371
-1914.070638
-1080.492205
-3418.47386
-5988.726696
-5988.022938
-5932.178062
-5966.281561
-6369.231939
-6221.027271
-6241.109062
-6179.222337
-6201.183775
-6345.673283
-5212.856676
-5133.153998
-5181.847978
-5027.670452
-5083.038247
-5162.794548
-6420.070174
-6247.026795
-6220.771514
-6258.613712
-6262.86345
-6442.988331
-5400.086036
-5320.402349
-5364.173426
-5230.302578
-5275.565914
-5359.39938
-5879.330307
-5905.636546
-5790.074155
-5838.075032
1204.102912
1199.50662
1198.065439
1176.497489
1173.182367
1169.848641
1180.297614
1177.274162
1181.747738
-1559.013206
-1609.200346
-1434.363774
-1508.539578
1116.86375
1116.596195
1122.212852
1118.08902
1062.241768
1061.699768
1069.053126
1058.427473
1161.03847
1158.724615
1154.624051
1166.812277
1163.094966
1166.663831
1130.080315
1128.611402
1137.380287
1122.736779
1128.589082
-1765.684318
-1756.337766
-1744.34442
-1615.32288
917.331975
968.062869
1112.211316
978.302458
969.7774554
962.6672393
987.2143169
354.9270803
336.8057493
1088.306406
961.9996302
719.1603245
1039.547261
1050.60892
1045.646503
1002.711241
-6090.219485
-6394.607301
-6148.217934
-5337.560948
-5088.346315
-4290.240648
-5863.125709
-5538.149046
-3445.982354
-3585.588328
-2119.264965
-2106.341157
-2117.51604
1576.503928
1525.280987
3774.542756
3607.909871
3459.864153
2866.411864
2721.854003
3271.388525
3045.358714
3152.804432
-2573.236755
-2515.579762
-2620.638821
-1060.816644
-1057.766282
-1045.700112
-1157.291958
-868.1770497
-850.814798
-835.4861696
-987.3463665
-932.0122709
-928.6938737
-605.2393514
-659.8720807
-659.4242684
-482.4450682
-486.5976687
-534.4437976
-6536.999251
-6413.563734
-6682.390447
-6218.299318
-6481.299319
-6552.000422
-6682.614835
-6646.373121
-6124.344272
-6021.759835
-6045.15715
-5995.276306
-6003.984676
-6096.228092
-6250.198888
-6124.182402
-6153.023096
-6070.790576
-6096.729379
-6218.483011
-4755.80316
-4682.322071
-4736.368392
-4752.826303
-4818.874528
-4502.764886
-4529.498073
-4489.847296
-4580.953361
-4986.954355
-5030.573159
-4991.270264
-4907.421992
-4968.616508
-4791.694804
-4849.455768
-4927.631393
-3160.826785
-3085.22667
-3071.463418
-3098.685829
-3032.633698
-3084.081974
-3237.883478
-3265.493659
-3209.847331
-3493.544358
-3538.52157
-3567.803401
1795.932335
1697.120434
1569.177476
1550.260112
1533.142437
1590.479622
1605.964149
1587.483878
2230.095848
2321.6817
2351.86359
2592.084066
2468.791606
2084.495991
2062.260973
2143.217499
-6375.689797
-6188.376253
-6182.040951
-6200.850561
-6192.88931
-6372.513117
-6538.211788
-6543.048328
-6452.833473
-6682.623831
-6651.739863
-6639.930592
-6676.018565
-6429.500741
-6575.801731
-6657.320801
-6678.634284
-6517.075067
1412.540935
1409.792563
1408.249285
1421.81387
1421.135355
1416.906152
1403.356787
1403.062983
1404.744497
1403.824383
1477.78308
1471.547662
1465.140099
1485.130752
1494.079461
1485.133508
1440.473405
1435.690332
1432.861173
1446.249744
1448.374138
1444.909294
-5576.215117
-5488.428994
-5524.623584
-5406.051248
-5448.090151
-5531.105688
-5733.040856
-5653.168868
-5730.158523
-5558.249633
-5597.876467
-5683.69864
1271.794853
1273.051224
1275.022313
1265.176021
1269.787613
1268.218479
1286.856167
1284.798668
1293.068619
1276.187183
1278.756191
1281.294666
1246.1129
1247.776713
1248.603251
1244.202486
1246.39104
1244.105118
1255.589504
1255.29447
1259.948824
1249.508276
1251.642264
1252.196034
1371.739365
1365.067745
1358.351621
1361.956523
1368.246399
1349.06873
1355.516169
1352.259046
1386.287264
1378.409127
1319.173325
1313.471953
1308.612643
1311.05898
1317.035136
1298.16687
1298.058443
1300.964238
1333.799035
1336.29081
1342.665248
1323.654255
1329.964549
1327.625247
1331.98186
1325.674714
-3884.061122
-3917.950057
-3824.540577
-3792.994354
-3828.451396
-4263.404468
-4296.227183
-4250.143394
-4422.687114
-4353.281733
-4319.713942
-4046.013714
-4081.973452
-4044.202368
-4201.829886
-4152.481811
-4103.739994
1192.899511
1189.605695
1186.600721
1195.856478
1192.869657
1196.840283
1200.453098
1195.335485
1208.318383
1209.101931
1189.534621
1181.423572
1177.255616
1177.677055
1179.454014
1183.699098
1181.477372
1186.249676
1215.954781
1219.360308
1228.785869
1221.77869
1235.167294
1237.016103
1240.863453
1230.919833
1233.766061
1231.921948
1206.388185
1206.062119
1211.219845
1209.49106
-2774.867699
-2756.198518
-2810.780232
-2659.393685
-2706.223564
-2739.602844
-2937.013536
-2978.223785
-2853.975722
-2868.804209
-2879.914705
-1363.932595
-1364.400954
-1418.607564
-1235.488041
-1295.80724
-1305.438321
1101.258623
1092.268466
1115.052492
1109.944205
1071.175352
1074.331437
1070.637446
1076.904315
1073.946968
1085.677488
1081.149012
1148.546017
1146.68242
1145.067353
1151.328563
1148.747121
1150.33636
1148.560112
1142.389781
1140.287523
1143.945746
1143.207851
1147.768667
-1891.129408
953.6420681
943.9397524
951.9582605
568.0237134
589.0234097
656.0787655
524.5541919
533.1392179
512.9789616
965.9334569
324.2796812
270.5375747
201.9158166
1030.689239
1032.093459
1032.816456
-473.541686
33.53050839
-27.13736559
150.050777
135.6062672
149.6573114
-47.58787993
-180.980297
-162.6424287
-60.62376007
1012.924929
1023.632116
1017.006498
666.837853
644.9642289
628.4185398
635.4525236
599.7721879
577.585974
584.6408148
528.4626675
502.0519853
504.7197252
418.6197294
395.7460408
384.1104735
267.8192182
256.7629607
225.2244294
95.07330414
92.14579625
48.40363201
-90.11158471
-82.64196516
-136.1055975
-267.4576657
-249.2140342
-308.7260347
-418.2678911
-393.5207965
-450.7314121
-533.858073
-509.3085291
694.1711154
680.9167339
652.6236095
674.7661258
647.8152685
610.1824814
634.9449936
580.849076
539.9698452
556.5435134
461.3263798
427.4678047
421.2111467
280.6214116
271.0452826
228.2587611
64.74612469
90.14778895
9.709649717
-146.8585889
-98.4379245
-195.498977
-329.2791412
-277.3186225
-370.0114693
-481.0534983
-430.7390657
-513.6717418
-595.181129
-546.130112
730.130775
729.1455743
692.0071111
727.5673549
715.0714399
662.4678938
706.9700702
664.4065945
597.6655722
641.8154694
537.0894037
477.5123211
488.9225863
300.9610191
283.6716456
224.4713668
-10.90767034
50.62458934
-85.47699805
-280.3250414
-171.9269616
-334.4540145
-468.5800504
-355.9781779
-506.411706
-601.9378476
-504.0593897
-627.957125
-691.3877775
-616.0088854
769.6182547
786.6492211
742.8713527
792.6849783
810.1247702
736.0842939
814.2246475
810.3023337
693.8191473
800.5378558
715.3923414
568.2450409
659.1049603
373.9363402
312.3970499
246.8133662
-157.4752916
-38.89066366
-274.9922841
-533.5988491
-329.5899068
-592.7913014
-714.1543523
-519.4008256
-739.4294483
-791.7631466
-643.2647586
-803.7492592
-828.798835
-721.60373
806.9345646
846.3138336
801.8022304
862.9134691
924.4086753
837.6762142
949.088532
1032.673067
860.9181632
1061.581361
1118.951915
789.8574404
1108.27833
686.5866679
420.8692263
526.6357626
-515.9945904
-215.4383649
-711.6740276
-994.8900327
-623.9430597
-1027.696301
-1058.318492
-790.5840916
-1055.916987
-1040.996911
-849.1884188
-1032.481357
-1001.364801
-869.4625409
834.5499483
893.5760586
859.6564511
919.3697225
1020.229598
952.1622211
1063.452626
1233.259611
1091.717087
1307.592612
1705.13702
1263.044158
1529.067529
1643.34809
1200.400588
787.6790831
-461.8620159
-89.31357076
-1285.59287
-1305.185288
-1050.236107
-1667.446244
-1476.103563
-1158.031042
-1426.910599
-1305.761948
-1109.018636
-1271.012836
-1175.182946
-1046.071589
844.6040485
913.4748176
901.3757382
943.2158907
1056.207576
1035.67722