/*--------------------------------*- C++ -*----------------------------------*\
| =========                 |                                                 |
| \\      /  F ield         | OpenFOAM: The Open Source CFD Toolbox           |
|  \\    /   O peration     | Version:  v1912                                 |
|   \\  /    A nd           | Website:  www.openfoam.com                      |
|    \\/     M anipulation  |                                                 |
\*---------------------------------------------------------------------------*/
FoamFile
{
    version     2.0;
    format      ascii;
    class       surfaceScalarField;
    location    "1.68";
    object      phi;
}
// * * * * * * * * * * * * * * * * * * * * * * * * * * * * * * * * * * * * * //

dimensions      [0 3 -1 0 0 0 0];
oriented        oriented;


internalField   nonuniform List<scalar> 
25162
(
0.0004153728794
0.9162346271
0.0004960103612
0.9166193625
0.0005585009421
0.9165875094
0.0002708357013
0.9166276154
0.0003100498643
0.4583395069
0.0002813287874
0.4583159182
0.000339859376
-0.0003557775784
-0.00043326563
0.4582952872
0.0004879784678
-0.0005398678866
0.4582455132
0.0006293546592
-0.0007276412091
0.4582222097
0.0008354315155
-0.0009625121986
0.4581946071
0.001102905111
-0.001249050461
0.4581834126
0.001400637861
-0.001555807092
0.4581973872
0.001689919941
-0.001806613267
0.4582454523
0.001894660998
-0.001945053655
0.4583212689
0.001958784736
-0.001932631867
0.4583980081
0.001864623765
-0.001771176353
0.4584513154
0.001654860999
-0.00151383774
0.4584721699
0.001376667877
-0.001234320888
0.4584859778
0.001063343128
-0.0009881641961
0.4584623283
0.0008758358636
-0.0007289903665
0.4584695927
0.0006093976854
-0.001522750412
0.9187280028
9.073685515e-06
-0.0005643260556
-0.0009512932355
0.9187785428
6.002929761e-05
0.9158386775
0.9138600293
0.001139506054
0.9150951211
0.001771989201
0.9159868794
0.001943924587
0.916415574
0.0004759792667
0.9172646074
0.0008309532744
0.4581237202
0.0005709606781
-0.4582187016
-0.4582127731
-0.0007030580568
0.4580447995
0.0008710315921
-0.4580798331
-0.001082082253
0.457821719
0.0006326731374
0.0007075232279
-0.2289828998
-0.0007776427857
0.2289133317
0.0008472108307
-0.001157094056
-0.2289210797
0.2288275702
0.001250603554
-0.001657374151
-0.2288583191
0.2287299289
0.001785764359
-0.002284883983
-0.2288202971
0.2286706128
0.002434568288
-0.002962503011
-0.2288393053
0.2287574722
0.003044392765
-0.002802867866
-0.2289507141
0.2287253223
0.003028166977
-0.00387583566
-0.2291259505
0.2290686266
0.003933159569
-0.00385924095
-0.2292703162
0.2293050967
0.003824460453
-0.003517022438
-0.2293715342
0.2294915082
0.00339704846
-0.002960938034
-0.2294085188
0.2295676767
0.002801780124
-0.002352619609
-0.2293928048
0.2295490691
0.002196355358
-0.4589037801
-0.003458953211
0.4603728695
0.001989863799
-0.0006404580024
0.4610180386
-0.001085399865
-0.4592921807
-0.001132334404
0.918463957
5.671977606e-05
0.001339660384
-0.0006873626235
0.9183335711
0.0005002103061
0.9146511045
0.9143602396
0.001429578897
0.9136655422
0.003873776644
0.9135426816
0.006553990467
0.9137353602
0.002591733519
0.915217815
0.00600904937
-0.4581219907
0.4580030053
0.002710718922
-0.4579183389
-0.002630327128
0.4586399858
0.001908680209
-0.4574733409
-0.001906329592
0.4573407507
0.0009899386377
0.001048981163
-0.22857719
-0.001246151035
0.2284323026
0.001391038489
-0.228350438
-0.001921497719
0.2281400125
0.00213192324
-0.2281955279
-0.001813260141
0.2333933285
-0.003381573397
-0.2377347536
0.02130915325
0.242707883
-0.02627034686
-0.2358437422
0.03724375192
0.2381193777
-0.03951132031
-0.2271324566
0.04207482999
0.2265717703
-0.04151677937
-0.2195931765
0.03556667208
0.2162222247
-0.03220737779
-0.2211320477
0.01828268253
0.2153588265
-0.0125209121
-0.2300804378
-0.005553725818
0.2292091004
0.006424383539
-0.2302814641
-0.005531897501
0.2306031534
0.005210208128
-0.003976766351
-0.2302864971
0.2309696321
0.003293631378
-0.463054945
-0.0008398017005
0.4619765006
0.001918246136
-0.4601856185
-0.001960766091
0.4602711375
0.001875247125
0.0009762961833
0.9206361561
-0.001798330765
-0.00135016445
0.002122806669
0.9171870606
0.0009950921809
0.915778819
0.9153553318
0.0004134083191
0.9132521338
0.0009067150366
0.9130493749
0.001964816533
0.9126772587
0.002881691078
0.9124756505
0.001825289934
-0.4573123435
0.4569598095
0.003234225025
-0.4602722842
-0.004354106715
0.4573274363
0.007298954644
-0.4589421516
-0.008434880467
0.4606418384
0.001690224043
0.005044969624
-0.2279049984
-0.001591739966
0.2277503663
0.001746372053
-0.2303877809
-0.0003050833151
0.2375341473
-0.006834543501
-0.2534326458
0.02762513062
0.2595746969
-0.0337376915
-0.25604151
0.04817137639
0.2594280051
-0.05152848942
-0.2433877078
0.05753084534
0.2443014635
-0.0584314098
-0.2249333726
0.05883521751
0.2244721085
-0.05838199618
-0.2076347154
0.05507546048
0.2056855834
-0.05315316303
-0.1991840747
0.0438577944
0.1947195568
-0.03942916776
-0.2083661715
0.02231029963
0.2016328286
-0.0156039977
-0.2341593508
-0.00101901215
0.2358824129
-0.000705011844
-0.004480671544
-0.2318959987
0.2319429703
0.004433699893
-0.4621060072
-0.006938821164
0.4634983875
0.005546440777
-0.4611197471
-0.004163036575
0.4622713969
0.003011386763
0.004065181391
0.9211312964
-0.002398246826
-0.002162074931
0.0027474702
0.9185047718
0.001277303086
0.9172489862
0.9166326349
2.538252717e-05
0.9132267513
8.697355737e-05
0.9129877839
0.0002689576967
0.9124952746
0.0009495169163
0.9116524716
0.000142619735
-0.4567677697
0.4560430365
0.001674250127
-0.4560156611
-0.00200255616
0.4555045386
0.002513678674
-0.4547145671
-0.003233513141
0.4541127715
0.002063909034
0.001771399747
-0.2285550455
-0.003787124427
0.2275235148
0.004818888946
-0.2587811246
0.00980857104
0.2670621824
-0.01805333939
-0.2743367789
0.03680798773
0.2777641195
-0.04018417002
-0.2644989683
0.04444840852
0.264154573
-0.04406623406
-0.2430693817
0.03936745058
0.241061222
-0.03734627895
-0.223525225
0.0331699278
0.2233843789
-0.0330388873
-0.2041662103
0.03577275667
0.2056035733
-0.03724286979
-0.1861795648
0.03998860165
0.1854225053
-0.03928439253
-0.1967417679
0.04471759723
0.1858031282
-0.03382757755
-0.2087763783
0.01320599846
0.202448727
-0.006906146593
-0.006566922474
-0.2334872486
0.2341184144
0.005935756681
-0.4653827528
-0.008284065492
0.4672316719
0.006435146307
-0.4634064336
-0.005039673763
0.4646004002
0.003845707175
0.0050151973
0.9236827256
-0.004177879
-0.003388747495
0.002825731488
0.9206942376
0.001294397994
0.9187803196
0.9179270329
-0.0002384085032
0.9134651598
-0.0003947919871
0.9131441673
-0.0003390977133
0.9124395803
-5.176848351e-05
0.9114127866
-4.76442268e-05
-0.4552422981
0.4550118728
0.0001786568005
-0.4551135675
-0.001047430621
0.4544611197
0.001699878447
-0.4534692147
-0.002109632206
0.4526275792
0.001440389585
0.001510878106
-0.241262025
0.002311276668
0.2459039371
-0.006934869083
-0.2774719368
0.01976149851
0.280931558
-0.0231651038
-0.28195192
0.02679188291
0.280288707
-0.0250697389
-0.2552446167
0.01350136225
0.2553094504
-0.0135335956
-0.2291976894
-0.005782297086
0.2242643543
0.01072234566
-0.2229393449
-0.02332231992
0.2228915291
0.02336831079
-0.2187264673
-0.008931227132
0.2243500699
0.003289555311
-0.1969690618
0.01936824683
0.1995845044
-0.02203449189
-0.1740224181
0.02292193589
0.1731499476
-0.02211533944
-0.1870063465
0.01454197329
0.1832529958
-0.01084079882
-0.002744197567
-0.2311734731
0.2282861815
0.0056238656
-0.468946139
-0.008813588498
0.4707320991
0.007027628408
-0.4654209804
-0.005690379021
0.4662121706
0.00489918882
0.004403642003
0.9266895999
-0.003603799559
-0.003806716706
0.002467443415
0.9226304362
0.001059671668
0.9201880914
0.9189867045
-0.0006217374939
0.9140868973
-0.00112505705
0.9136474869
-0.001498130573
0.9128126538
-0.0003173915143
0.9112613962
-0.001029348709
-0.4549507264
0.4547139865
-8.065158619e-05
-0.4535156278
-7.777694318e-05
0.4532374352
0.0003559696083
-0.452400876
-0.00121999251
0.4523940885
0.0006853363026
0.0005413164667
-0.2557912494
0.004820384136
0.2586432352
-0.007639719128
-0.2914673561
0.01448835095
0.2874808966
-0.01043162569
-0.2760576379
0.01105738959
0.2743627534
-0.009302177683
-0.234365962
-0.002655662021
0.2266559503
0.01038575527
-0.2109405391
-0.0314652242
0.1072595777
0.1015826566
0.01467358014
0.01888994889
-0.02343773029
-0.1088355679
0.1082317473
0.02404155085
-0.01917749256
-0.2470136986
0.03667566889
-0.01956725973
0.1240979106
0.1249848714
-0.01574637757
-0.2127172638
0.2194385202
0.00899264846
-0.1751811488
0.001675179144
0.1795660483
-0.006129315779
-0.177525886
0.01081667362
0.1755887288
-0.008940825909
0.001239841736
-0.2160408368
0.2131727144
0.001604877047
-0.4725586679
-0.007828588884
0.473865363
0.006521893747
-0.467448301
-0.005018220381
0.4686659354
0.003800585985
0.002902874828
0.9289707745
-0.00243946814
-0.002744581274
0.001487178798
0.9240461322
0.0006065802583
0.9210686899
0.9195932848
-0.00101161312
0.9150985104
-0.001976100604
0.9146119744
-0.002755970424
0.9135925236
-0.001482417293
0.9119934423
-0.002005599275
-0.4547318709
0.4547813202
-0.001531866554
-0.4531469719
0.001632861339
0.4531047225
-0.001590611952
-0.4520651407
0.001490487659
0.4531322563
-0.0008444393637
-0.001711240852
-0.2633697711
0.00126672495
0.263687426
-0.001543309623
-0.2890684309
0.001859993683
0.2891629989
-0.001882803582
-0.2685949176
0.0002143549036
0.2675412846
0.0008958947364
-0.213183163
-0.005724411379
0.2111367958
0.007777427545
-0.09542369524
-0.005189812548
0.09547002988
0.005143477905
-0.02696621897
-0.1357160342
0.1383315102
0.02435074291
-0.0249571064
-0.2416007326
0.247475164
0.01906705879
-0.1853980202
-0.008359076876
0.1873765476
0.006319224651
-0.1736664349
-0.003024212995
0.1740413253
0.002580445887
0.002200536656
-0.2084177936
0.2068998109
-0.0007124865275
-0.475515521
-0.005075733637
0.4768833722
0.003707882424
-0.4696520918
-0.00273909816
0.4704826953
0.001908494588
0.0004107956851
0.9301579332
-0.0004585128376
-0.001139441582
-3.601560636e-05
0.9244929435
-9.220665776e-05
0.921124881
0.9195010781
-0.001387562803
0.9164860732
-0.002704023256
0.9159284348
-0.004090407578
0.9149789079
-0.002407675334
0.9132269556
-0.002916245523
-0.4550060342
0.4552208288
-0.002622469981
-0.4532193547
0.002864868896
0.4534459535
-0.003091467682
-0.4537612587
0.003296899274
0.4547231742
-0.002061432421
-0.00219192252
-0.2658181689
0.00325693979
0.2661340719
-0.003535826602
-0.2881588755
0.003437789987
0.2878782688
-0.00309620041
-0.2643019764
0.001472952462
0.2637440551
-0.0008689649442
-0.2092938075
-0.0004278375232
0.2094582817
0.0002658178373
-0.09906422425
0.00141769358
0.09955827306
-0.0019117424
-0.01211287933
-0.1512501162
0.1519347638
0.01142823171
-0.0137971602
-0.2612206095
0.2638072371
0.01120304905
-0.1943322143
-0.004870629526
0.1959053659
0.003247605694
-0.175480821
0.0001433142885
0.1759667259
-0.0006888331167
0.0009068006628
-0.205550969
0.2051558697
-0.0005434041881
-0.4783915761
-0.0009505293359
0.4795442333
-0.0002021278118
-0.4709269852
0.0007572240939
0.4711672263
-0.0009974651725
-0.002643887586
0.9296802624
0.001888219007
0.001233339355
-0.001902643804
0.9237516997
-0.001000583309
0.9202228205
0.9185004948
-0.001724361405
0.9182104346
-0.003554920732
0.9177589942
-0.005310250548
0.9167342378
-0.003322476598
0.9150797535
-0.003840571802
-0.4556157143
0.4560048278
-0.003711590103
-0.4537357429
0.004151492875
0.4542364421
-0.004652192097
-0.4557943431
0.005117032262
0.4573822518
-0.00315027974
-0.00354830561
-0.2669622668
0.00446891555
0.2673537488
-0.004829682285
-0.2873371497
0.005147937402
0.2872558538
-0.005017875872
-0.2628001385
0.00420465882
0.262542709
-0.003911537627
-0.2105094442
0.003415464872
0.210862325
-0.003767279231
-0.1017484992
0.002955257899
0.1019566998
-0.001568495092
-0.001594963315
0.004894734252
-0.1504873606
0.1496419341
-0.004049307757
0.002412269176
-0.2636132169
0.2618024175
-0.0006081286875
-0.1968123454
-0.001649652208
0.1967026377
0.001716653714
-0.1775619513
-0.0008495854339
0.1779909017
0.0003686275795
0.00111018464
-0.2065636794
0.2069646694
-0.001539270075
-0.4795499018
0.004675415955
0.4789308219
-0.004056336061
-0.4709561084
0.003816546018
0.4711855957
-0.004046033392
-0.006010312959
0.9274535679
0.004522644897
0.003714362526
-0.003932914813
0.9216743015
-0.001984482912
0.9182743886
0.9165160119
-0.002148277459
0.9203587121
-0.004276890237
0.9198876069
-0.006525859792
0.9189832073
-0.004212365414
0.9174840104
-0.004717751356
-0.4565635433
0.4571176911
-0.004766513204
-0.4547939439
0.005440552354
0.4554023519
-0.006048960301
-0.4593794064
0.006750921276
0.4617437093
-0.004456921386
-0.004651520189
-0.2686841101
0.005704352225
0.2691754126
-0.006171856488
-0.2872201808
0.006863265421
0.2872667529
-0.00687347902
-0.2619762479
0.006524528415
0.2618376848
-0.006360279155
-0.2120247921
0.006047871519
0.2124531074
-0.006475917035
-0.1031559058
0.004046609805
0.1032852028
-0.002074311008
-0.002101595772
0.0144416379
-0.1418631357
0.1406099074
-0.0131884096
0.0133506469
-0.2516187139
0.2466982871
-0.008439343206
-0.1929992521
-0.002657211015
0.1951871858
0.0004322267793
-0.1791858413
-0.0001781313451
0.1797859993
-0.0004646991469
0.003100905441
-0.2106984775
0.2115844174
-0.004007574542
-0.4778211814
0.009943050522
0.476287934
-0.008409803183
-0.4711906611
0.00708242073
0.4700131984
-0.005904958037
-0.009117549488
0.923760716
0.006699620704
0.006110780734
-0.00588297423
0.9184397263
-0.002884510983
0.9152759253
0.9136315009
-0.002536570572
0.9228952826
-0.005078107642
0.922429144
-0.007720756467
0.9216258561
-0.005026088926
0.920120713
-0.005331370139
-0.4578128241
0.4584945966
-0.005707861483
-0.4562020646
0.006492345631
0.4570363155
-0.00732659655
-0.4643064057
0.008224885551
0.4660456674
-0.005516239873
-0.00444088857
-0.2708045745
0.007075181721
0.2714354807
-0.007690271234
-0.2875482019
0.008729384273
0.2876806482
-0.008838464396
-0.2615062475
0.008652600556
0.2613801767
-0.008510578692
-0.2139710226
0.008163151139
0.2145875848
-0.008779711843
-0.104116586
0.005267840586
0.1042436962
-0.002678324362
-0.002716626411
0.01793293366
-0.132061341
0.1308205883
-0.0166921809
0.01693073685
-0.2323921029
0.2272275003
-0.01177700437
-0.1907610699
0.006398729678
0.1842099385
0.0001235747984
-0.1811106865
-0.003935605982
0.1813221561
0.003688077111
0.00457794519
-0.2160085287
0.2175294816
-0.006112317076
-0.4744111791
0.01409571076
0.472239547
-0.01192407866
-0.4687122512
0.01006550653
0.4671343738
-0.008487629165
-0.01181012279
0.9204890217
0.007858382386
0.007223434658
-0.007551155807
0.9141807593
-0.003657861615
0.9113826311
0.9099736393
-0.00657179991
0.9294670825
-0.0133032135
0.9291605576
-0.02010178594
0.9284244285
-0.005939990215
0.9272912286
-0.0213323113
-0.4593324832
0.4601853084
-0.006792815397
-0.4578957903
0.007713737031
0.458930215
-0.008748161719
-0.4709282987
0.009749058941
0.4754277311
-0.007463976414
-0.006782961189
-0.2726808643
0.01097339454
0.2743234555
-0.01261253437
-0.2881057008
0.01130922503
0.287533886
-0.01072791615
-0.2609241871
0.008407663046
0.2626641371
-0.01013983276
-0.2168510224
0.009871495662
0.2177069336
-0.005325958311
-0.005401448556
-0.05277492192
0.003324827518
0.05282436987
-0.003374275473
-0.05798160548
0.006560679376
0.05749557324
-0.01278491133
0.006710264205
0.01655826567
-0.1234091546
0.2433832175
-0.02937139232
0.01619937346
-0.1233603097
-0.2143798134
0.01290064859
0.2071567794
-0.005688148329
-0.1790547151
0.001046551471
0.1786336979
-0.0006473775184
-0.1838889184
0.002755909642
0.1851894527
-0.004076760268
0.008358250655
-0.2243037809
0.2255191129
-0.009578341608
-0.4697298663
0.01662139293
0.4672278461
-0.01411937282
-0.4654917925
0.01217109689
0.4637272718
-0.01040657619
-0.01382846265
0.9159923945
0.00939794735
0.00892714241
-0.008855436748
0.9092077333
-0.004340839962
0.9068680343
0.9056327993
-0.003002037782
0.9324691203
-0.006079863594
0.9322383833
-0.009313671903
0.9316582368
-0.006320342678
0.9307718322
-0.006473932856
-0.4630435143
0.4639390786
-0.007215906912
-0.4617663186
0.008211467582
0.4628273021
-0.009272451075
-0.4796432975
0.0104149391
0.4773791109
-0.004461172978
-0.003685099949
-0.2768387778
0.003298621066
0.2762832105
-0.002738012985
-0.2885761641
0.001642012068
0.2885889335
-0.001647730466
-0.2599938157
0.003447252253
0.2613496436
-0.00479836701
-0.2209566343
0.01114934946
0.2219733141
-0.006069833853
-0.006096195338
-0.05450073614
0.008061891132
0.1093977804
-0.05443785028
-0.004242839782
-0.004278245344
-0.1116722805
0.009057862946
0.1115982931
-0.01779769425
0.008813818677
0.02908052266
-0.2361981612
0.2323776985
-0.02526015783
-0.1961477594
0.006263729693
0.1938644872
-0.003985693243
-0.1798977124
0.001920664031
0.1747828296
0.003182469512
-0.189759511
-0.002130319696
0.1958284989
-0.00395146409
0.01019077194
-0.2319381166
0.2325161762
-0.01076965337
-0.4649926485
0.01738001013
0.4629958578
-0.01538321942
-0.4619552358
0.01349162955
0.4599592209
-0.01149561465
-0.01340517961
0.9106626596
0.009301912302
0.009433002207
-0.009639300632
0.9054418543
-0.004705695549
0.9019344292
0.9009271037
-0.003155187257
0.9356243075
-0.006386730196
0.9354699263
-0.009773219212
0.9350447258
-0.006639730005
0.9343920659
-0.006753722908
-0.464921104
0.4658861493
-0.007604775302
-0.4639117103
0.008646767594
0.4650115497
-0.009746607004
-0.4726218731
0.01092461377
0.4675835681
-0.002781518889
-0.003099333614
-0.271431358
-0.002591214448
0.2687758221
0.005252139551
-0.2871163049
-0.01168809412
0.2859181365
0.01289598266
-0.2674449102
-0.01213307222
0.2694405139
0.0101470303
-0.2310224157
0.001762096215
0.2369049302
-0.007641573143
-0.1124343321
0.01564551686
0.223861091
-0.01519815713
-0.1118741187
-0.225809161
0.02119793903
0.2264011273
-0.02178990529
-0.2174564238
0.01197994736
0.212548524
-0.007070082395
-0.1847503345
-0.00220220063
0.1835415202
0.003412039022
-0.1742343621
-0.002292498896
0.1758241232
0.00070076814
-0.2022897274
0.005938807186
0.2012080263
-0.004860978233
0.01269211183
-0.2326716807
0.2302461008
-0.01026653188
-0.4612437346
0.01871198673
0.4578723935
-0.01534064564
-0.4579734061
0.01364760344
0.4557668501
-0.01144104745
-0.01374515098
0.9055197866
0.009508103011
0.009379920971
-0.009681001707
0.901377705
-0.004910043743
0.8971634712
0.89601706
-0.003235987762
0.9388602953
-0.006543102234
0.9387770407
-0.009992830346
0.9384944539
-0.006798892906
0.9380594566
-0.006861328182
-0.4668750283
0.4678617928
-0.007785657447
-0.4661120962
0.008833147481
0.467207758
-0.009928809335
-0.4652766391
0.0110930353
0.4664318475
-0.006079801666
-0.006168342729
-0.2579840984
-0.001930471431
0.2535707879
0.006347605863
-0.2793656354
-0.01862020472
0.276104768
0.02189079028
-0.2727372719
-0.02748186669
0.2725327841
0.02769953359
-0.2500048635
-0.02360351894
0.2525669907
0.02105330045
-0.2284231109
-0.0131204242
0.2306465113
0.01090536454
-0.2206092065
-0.01018395288
0.2191554795
0.01164506767
-0.2023504647
-0.01768470679
0.2007321032
0.0193101779
-0.1831773667
-0.02030063573
0.1843966708
0.01908506028
-0.1837829633
-0.01118468502
0.1874999334
0.007467527223
-0.2112024712
0.004983071184
0.2152766608
-0.009057954777
0.0117443626
-0.2281680472
0.2275419023
-0.01111821769
-0.4569614485
0.01858628073
0.454142884
-0.01576771628
-0.452782939
0.01224861364
0.4511058881
-0.01057156275
-0.01278400192
0.8990334299
0.009866536282
0.009403822274
-0.007189590096
0.8957832932
-0.004930754719
0.8949046358
0.8910863053
-0.003249909935
0.9421102052
-0.00656258554
0.9420897163
-0.009997829438
0.9419296978
-0.006812114055
0.9416814297
-0.006807688463
-0.4688336108
0.4698059332
-0.007784436412
-0.4682853499
0.008804835365
0.4693421326
-0.009861618111
-0.4676453087
0.01097269748
0.468819031
-0.00609158087
-0.006054838873
-0.2388167932
0.006635529685
0.2347480304
-0.002565961714
-0.2633349626
-0.01344279442
0.2582898509
0.01849427236
-0.2675306035
-0.03100189952
0.2645339818
0.03400999121
-0.2550990615
-0.03927834108
0.2544495075
0.0399420428
-0.2357274325
-0.04000966175
0.2367127995
0.03903823943
-0.2174673171
-0.03760560518
0.2173284552
0.03775643131
-0.201051906
-0.03514435911
0.2026565082
0.03354808151
-0.1921861915
-0.02554714663
0.1959816016
0.02175525142
-0.2012899444
-0.007708100341
0.2065118477
0.002486477934
-0.2263407227
0.01225840342
0.2261376397
-0.01205537254
0.01059888311
-0.2259003828
0.2254127453
-0.01011124561
-0.4503745152
0.01720849266
0.4486179792
-0.01545195667
-0.4494764073
0.01377102816
0.4478487125
-0.01214333336
-0.01176370683
0.8917897719
0.01035620604
0.008651158794
-0.00667868308
0.8906982694
-0.004511924907
0.8927378776
0.8865743804
-0.003207300622
0.9453175058
-0.006467037776
0.9453494535
-0.009825281052
0.9452879411
-0.00669743352
0.9451887877
-0.006635205571
-0.4707479078
0.4716807472
-0.007630272841
-0.4703683635
0.008600968743
0.4713637628
-0.009596368001
-0.4699474079
0.01063070952
0.4710260007
-0.005886721745
-0.005822580586
-0.234770311
0.006454579942
0.2350623847
-0.006746653623
-0.2421630531
0.004937096262
0.2368659582
0.0003612024292
-0.2528036396
-0.01549717491
0.2483779504
0.01992847832
-0.249286968
-0.03041098362
0.2468359466
0.0328706869
-0.2373273192
-0.03719729879
0.2369473462
0.03758679969
-0.2175120863
-0.0344362853
0.2179123277
0.03404400007
-0.2106235919
-0.02745231162
0.2139481261
0.02413251112
-0.2096110732
-0.01161189556
0.2144908586
0.006733678117
-0.222609312
0.008826881411
0.2255662318
-0.01178369184
-0.2249163994
0.01087174605
0.2245687939
-0.01052414055
0.009426996607
-0.2241411072
0.2237584108
-0.009044300154
-0.4470181583
0.0156348057
0.4455626978
-0.01417934524
-0.446362188
0.01274660071
0.4449419901
-0.01132640282
-0.01439034233
0.8866073514
0.009633072263
0.00993969056
-0.009453916338
0.8857618434
-0.001860754512
0.8851447158
0.8847136258
-0.003118730596
0.9484362364
-0.006278475255
0.9485091981
-0.009510900767
0.9485203666
-0.006478726053
0.9485301947
-0.006373581644
-0.4725768814
0.4734568259
-0.007358670577
-0.4723209962
0.008266197596
0.4732420226
-0.009187224026
-0.4720519696
0.01013278721
0.4730242917
-0.005593536765
-0.005511572554
-0.2358830523
0.006098426796
0.2361387725
-0.006354146972
-0.2356260314
0.007128136153
0.2358846406
-0.00738674535
-0.2354836408
0.008157462739
0.2353060699
-0.007979965691
-0.238729167
-0.0001886199875
0.2360919884
0.002827554156
-0.2350325588
-0.007893061524
0.2342948228
0.008633486848
-0.2206337486
-0.006790078431
0.2219581337
0.005467851053
-0.2242717
0.001544175734
0.2274837131
-0.004755382792
-0.2265041099
0.01090460434
0.2263966248
-0.0107971193
-0.2248808598
0.01033142325
0.2246828581
-0.01013342159
-0.22366602
0.00943478728
0.2234045982
-0.009173365451
0.008328628238
-0.2227649682
0.2224605338
-0.00802419386
-0.4442376028
0.0140417998
0.4430298679
-0.01283406491
-0.4436545813
0.01161969331
0.4424264866
-0.01039159864
-0.01334380617
0.8819501282
0.008832489442
0.009168539997
-0.008815143279
0.8812331805
-0.004378634574
0.880708207
0.8803349913
-0.002995324283
0.9514315607
-0.00602026488
0.9515341387
-0.009093233387
0.9515933351
-0.006185904821
0.9516741962
-0.006051330131
-0.4742965662
0.4751157966
-0.00700513522
-0.4741216224
0.007842881097
0.4749632555
-0.00868451425
-0.4739433657
0.00953885408
0.4748111138
-0.005247875538
-0.005158726684
-0.2368526286
0.005691020836
0.2370740695
-0.00591246177
-0.236592401
0.006569666772
0.2368073161
-0.006784581898
-0.235981215
0.007409558617
0.2361812523
-0.007609595918
-0.2349481066
0.008176847386
0.2351243095
-0.008353050252
-0.2333199561
0.00881730481
0.2333256389
-0.008822987589
-0.2244332391
0.008994917892
0.2247730413
-0.009334720054
-0.228609063
0.00948968257
0.2285974342
-0.009478053708
-0.2261114847
0.00933876199
0.22602625
-0.009253527244
-0.2241650944
0.008894277972
0.2240135307
-0.008742714272
-0.2227149081
0.008205351196
0.2225118597
-0.008002302722
0.007336692638
-0.221673971
0.2214300717
-0.00709279339
-0.441926028
0.01252857092
0.4409165702
-0.01151911319
-0.4413171903
0.01048849132
0.4402575654
-0.009428866471
-0.01222192137
0.8777997082
0.008016674226
0.008355667074
-0.008113155247
0.8771244144
-0.004041171219
0.876636223
0.87629382
-0.002848080194
0.9542796409
-0.005715311834
0.9544013703
-0.008608456781
0.95448648
-0.005845844401
0.9546050291
-0.005693445297
-0.475893947
0.4766497938
-0.006601691147
-0.4757632299
0.007368335534
0.4765260197
-0.00813112532
-0.4756281179
0.008896731799
0.4763961395
-0.004873659362
-0.004791093996
-0.2376907965
0.005264944583
0.237881979
-0.00545612714
-0.2373955447
0.006013434141
0.2375743643
-0.006192253773
-0.236717427
0.006701850588
0.2368772007
-0.006861624214
-0.2355898366
0.007307155611
0.235726557
-0.007443876074
-0.2332867129
0.007766797087
0.2332582914
-0.00773837555
-0.2256694691
0.007907078396
0.2259262055
-0.008163814721
-0.2285460325
0.008229827361
0.2285247017
-0.008208496564
-0.2257919661
0.008074073413
0.2257197973
-0.00800190466
-0.2236080528
0.007709512789
0.2234867179
-0.00758817794
-0.2219679283
0.00715922461
0.2218053306
-0.006996626903
0.006459113763
-0.2207953841
0.2205960879
-0.006259817531
-0.4399913482
0.01113685619
0.4391419488
-0.01028745685
-0.4393014977
0.009408707003
0.4383858624
-0.008493071689
-0.01109757531
0.8741178612
0.007226266201
0.007553156186
-0.007396479068
0.8734233182
-0.003692839888
0.8729325838
0.8726009801
-0.00268621569
0.9569658565
-0.005382457802
0.9570976124
-0.008085739856
0.9571897621
-0.005477542624
0.9573171776
-0.005320345755
-0.4773648759
0.4780590395
-0.006171706261
-0.4772489102
0.006869478865
0.4779368936
-0.007557462289
-0.4771176112
0.008241155054
0.4777951963
-0.004495390884
-0.004423349267
-0.2384142183
0.004841341127
0.2385792615
-0.005006384312
-0.2380648465
0.005479974762
0.2382142998
-0.005629428005
-0.2373079551
0.006048156974
0.2374370859
-0.0061772877
-0.2360903548
0.00653306518
0.2361979353
-0.006640645678
-0.23313849
0.006861212151
0.2330895111
-0.006812233299
-0.2265832818
0.006993383819
0.2267683365
-0.007178438539
-0.2284514874
0.007189044778
0.2284245915
-0.007162148917
-0.2255174065
0.007031788099
0.2254540104
-0.006968392013
-0.2231560228
0.006721114248
0.2230553743
-0.006620465814
-0.2213637791
0.006267300134
0.2212300815
-0.006133602489
0.005689858576
-0.2200738745
0.2199081109
-0.005524094983
-0.4383600448
0.009881730786
0.4376389117
-0.009160597682
-0.4375594945
0.008406645757
0.4367656184
-0.007612769625
-0.01001570849
0.8708586666
0.006485811763
0.00678909129
-0.006697575892
0.8701051855
-0.003350512675
0.8695855206
0.8692504675
-0.002518394251
0.9594842508
-0.005039184643
0.9596184028
-0.007551958471
0.9597025359
-0.005103067045
0.9598158049
-0.004947518722
-0.4787125075
0.4793477805
-0.005738340063
-0.4785880622
0.006371607937
0.4792073819
-0.00699092761
-0.4784316609
0.007601071512
0.4790296778
-0.004130719194
-0.004068369317
-0.2390391616
0.004436841461
0.2391820191
-0.004579698968
-0.2386256085
0.004984044843
0.2387513805
-0.005109816821
-0.2377876104
0.005457303567
0.2378934463
-0.005563139507
-0.2364859026
0.005852240993
0.2365714886
-0.005937827054
-0.2329240829
0.006085101587
0.2328643916
-0.006025410275
-0.2272374895
0.006214538933
0.2273685907
-0.006345640076
-0.22833824
0.006321451653
0.2283079273
-0.006291138962
-0.2252738991
0.006164539271
0.2252168593
-0.006107499455
-0.2227770249
0.005892482905
0.2226911803
-0.005806638246
-0.2208627326
0.005508349413
0.220750277
-0.005395893712
0.005022318703
-0.2194707527
0.2193306247
-0.004882190726
-0.4369717632
0.008768922297
0.4363534949
-0.008150653993
-0.4360481381
0.007499084672
0.4353565263
-0.00680747292
-0.009006833604
0.8679732952
0.005808203013
0.006084002041
-0.00603901399
0.8671373659
-0.003026040817
0.8665725474
0.8662244266
-0.002351006567
0.9618352573
-0.004698240421
0.9619656367
-0.007025984953
0.9620302805
-0.00473551373
0.9621118846
-0.004586550926
-0.4799432732
0.4805235273
-0.005315767823
-0.4797933742
0.005889951855
0.4803508624
-0.006447440078
-0.4795919371
0.006992462773
0.480120933
-0.003788445665
-0.003733013032
-0.2395807313
0.004059634709
0.2397049137
-0.004183817166
-0.2390988349
0.004531162259
0.239205547
-0.00463787433
-0.238182861
0.004929499791
0.2382709529
-0.005017591621
-0.2368014724
0.005256288746
0.2368700907
-0.005324907104
-0.2326767193
0.005419233778
0.2326122565
-0.005354770983
-0.2276990027
0.005546178501
0.2277908348
-0.005638010632
-0.2282135559
0.005591695621
0.2281811833
-0.005559323015
-0.2250534075
0.005436398716
0.225001241
-0.005384232273
-0.2224511408
0.005193428341
0.2223763404
-0.005118627861
-0.2204383291
0.004861461259
0.2203419403
-0.004765072421
0.004445280883
-0.2189586103
0.2188384727
-0.004325143226
-0.4357787769
0.007790619708
0.4352437034
-0.007255546155
-0.4347303099
0.006688358377
0.4341246209
-0.00608266933
-0.008085504608
0.8654149651
0.005198616436
0.00544521821
-0.00543266037
0.8644845217
-0.002725884907
0.863865772
0.8634985417
-0.002189193512
0.9640244508
-0.004369769792
0.9641462129
-0.006522464568
0.9641829752
-0.004384595645
0.9642201532
-0.004246137515
-0.4810657283
0.4815956112
-0.004914478494
-0.4808786319
0.005435459808
0.4813812426
-0.005938070569
-0.4806191248
0.006426075246
0.4810886392
-0.003471886287
-0.003423703356
-0.2400521889
0.003712406548
0.2401606805
-0.003820898096
-0.2395015326
0.004121278094
0.2395928676
-0.004212613064
-0.2385136327
0.004460288117
0.2385880867
-0.00453474205
-0.2370550157
0.004734432285
0.23711037
-0.004789786575
-0.2324163947
0.004845341772
0.2323508622
-0.004779809257
-0.2280211003
0.004968984174
0.2280847971
-0.005032680957
-0.2280821219
0.004972077641
0.2280485965
-0.004938552297
-0.2248508892
0.004819307306
0.2248026395
-0.004771057543
-0.2221654523
0.004599198161
0.2220992083
-0.004532954098
-0.220072509
0.004307626587
0.2199886168
-0.004223734438
0.003946168055
-0.2185177656
0.2184135309
-0.003841933452
-0.4347440701
0.006936687406
0.4342768642
-0.006469481422
-0.4335749581
0.005972168955
0.4330415274
-0.005438738288
-0.007258249741
0.8631404267
0.004657947174
0.004874841025
-0.004884750886
0.8621110228
-0.002453653548
0.8614346746
0.8610448882