/*--------------------------------*- C++ -*----------------------------------*\
| =========                 |                                                 |
| \\      /  F ield         | OpenFOAM: The Open Source CFD Toolbox           |
|  \\    /   O peration     | Version:  v1912                                 |
|   \\  /    A nd           | Website:  www.openfoam.com                      |
|    \\/     M anipulation  |                                                 |
\*---------------------------------------------------------------------------*/
FoamFile
{
    version     2.0;
    format      ascii;
    class       volVectorField;
    location    "1.68";
    object      U;
}
// * * * * * * * * * * * * * * * * * * * * * * * * * * * * * * * * * * * * * //

dimensions      [0 1 -1 0 0 0 0];


internalField   nonuniform List<vector> 
12556
(
(99.99965833 0.0008873056351 -3.566920861e-21)
(99.99933309 0.003466698646 -3.181295169e-25)
(99.99859836 0.00874305268 -3.56833667e-21)
(99.99725432 0.01877616303 -3.558188358e-21)
(99.99968146 0.01609105909 3.452432778e-21)
(99.998483 0.02867992175 0)
(99.99756641 0.04920560488 0)
(99.9971578 0.07881520901 -6.314911999e-21)
(99.99608412 0.1202146593 7.510888534e-22)
(99.99504358 0.1749272403 -5.1699548e-21)
(99.994512 0.240341215 5.143143064e-22)
(99.99518637 0.3071657568 0)
(99.99707616 0.3603547668 0)
(99.99950302 0.3857202858 1.624187182e-22)
(100.0023755 0.3760615384 -8.130818375e-22)
(100.0043649 0.3354764227 7.381906274e-22)
(100.0050702 0.2775658947 0)
(100.0051443 0.2163852043 1.428704088e-21)
(100.0051069 0.1593159418 5.914616907e-21)
(100.0027671 0.1154584379 -1.72089776e-21)
(100.0120984 0.1361860154 -1.512004743e-20)
(100.0086541 0.08532283424 0)
(100.0066284 0.04634089447 -1.922807397e-21)
(100.0064445 0.01482690424 -1.356680812e-20)
(99.99691048 0.001949868633 1.426224639e-20)
(99.99366697 0.008226988476 3.56980006e-21)
(99.98679057 0.02196595392 2.498956991e-20)
(99.97498892 0.04948580896 -1.070491979e-20)
(99.97471444 0.07454316833 3.47419021e-21)
(99.95567396 0.1352226215 -2.589032162e-23)
(99.92953359 0.2327041065 0)
(99.9138829 0.3272522038 -6.256242263e-21)
(99.87878123 0.5054733811 -5.929209404e-21)
(99.8421141 0.7452993673 -1.07395975e-20)
(99.81438866 1.040793337 -4.667159485e-21)
(99.81702997 1.356181253 -5.09629244e-21)
(99.86277565 1.621191697 -1.159721774e-20)
(99.94101695 1.758748933 -6.771168865e-22)
(100.0273394 1.730608918 -2.994845802e-22)
(100.0967977 1.551612416 3.776981675e-21)
(100.1291342 1.284772576 -8.084351524e-21)
(100.127406 1.004602405 0)
(100.148084 0.7857631815 -2.550487796e-20)
(100.1107601 0.5511130284 4.964064997e-20)
(100.1136738 0.3921564394 1.464380369e-20)
(100.0831292 0.2449093984 3.050561302e-20)
(100.0644309 0.133226404 -3.059584685e-20)
(100.0572569 0.04256320797 1.549063361e-20)
(99.99273388 0.001024373818 -1.42304925e-20)
(99.98371314 0.006783589584 -2.853661551e-20)
(99.96468453 0.0238920193 -6.423536312e-20)
(99.93333247 0.05954900018 8.553389303e-20)
(99.91198847 0.1102869821 -7.068894046e-21)
(99.85637936 0.2115593112 -6.956926547e-21)
(99.776686 0.3740503814 -1.211163847e-20)
(99.72380719 0.5629326108 0)
(99.61203749 0.8902193338 2.443171842e-20)
(99.49202847 1.343405638 0)
(99.3954423 1.948973811 0)
(99.4156285 2.634000975 8.678518726e-19)
(99.58867833 3.180354776 -5.167606324e-19)
(99.89665524 3.465457619 7.739131763e-22)
(100.2166939 3.392244962 -3.013798164e-21)
(100.4502873 3.009094786 -1.975558684e-20)
(100.5470841 2.4543969 -8.762053627e-21)
(100.5260731 1.870761303 -2.197216379e-20)
(100.4958123 1.362640714 -1.527761026e-19)
(100.380062 0.9407409578 -3.459638616e-20)
(100.3191796 0.6013955681 -1.51515396e-20)
(100.2346324 0.3747563562 3.450475194e-20)
(100.1824843 0.2033891971 -3.894578486e-21)
(100.1595558 0.06458672381 0)
(99.99165879 -0.003135056025 -7.151991816e-21)
(99.97452372 -0.004908443178 5.012296226e-20)
(99.93847674 0.007832560496 -1.433428524e-20)
(99.87939484 0.04125130567 0)
(99.82857565 0.1094661409 0)
(99.71792328 0.2351832458 -5.581758856e-20)
(99.56027911 0.4434021665 -1.119459051e-19)
(99.41982731 0.7128742586 2.662826711e-20)
(99.17199821 1.171225275 0)
(98.86735323 1.89902611 8.680353193e-20)
(98.62286541 2.942358159 -3.693434723e-18)
(98.62751812 4.187125379 0)
(99.16613061 5.184480612 0)
(99.98109975 5.553962956 0)
(100.6934053 5.252824306 -1.98575634e-21)
(101.1241055 4.538774186 1.064933356e-18)
(101.2743357 3.597855411 1.55720086e-19)
(101.1994294 2.662810748 0)
(101.0488016 1.841962352 5.667501355e-20)
(100.7940867 1.240032654 -4.446570404e-20)
(100.6116411 0.741298373 -3.900339776e-20)
(100.4499796 0.4546666709 1.984342147e-20)
(100.3488339 0.2447098771 -3.992921324e-21)
(100.3023451 0.07712432957 0)
(100.0011578 -0.01128197509 0)
(99.97465202 -0.02927252728 0)
(99.91949896 -0.0314369765 7.180815789e-21)
(99.82778741 -0.01027062287 1.089586285e-20)
(99.73951509 0.06288724443 1.80475351e-20)
(99.55986118 0.1895242024 0)
(99.30463121 0.4053407537 0)
(99.0426302 0.7268424255 -1.096978245e-19)
(98.56759021 1.318195654 1.922499366e-19)
(97.93447305 2.36609867 -9.020076049e-20)
(97.34535821 4.031742771 0)
(97.41550567 6.194323535 0)
(98.67136108 8.018409737 -6.773293015e-19)
(100.584184 8.273754471 -4.618841949e-19)
(101.8809415 7.318803722 1.073536901e-18)
(102.4288201 5.974923988 1.665310993e-18)
(102.4673766 4.600924061 0)
(102.1711264 3.269516482 -7.717785236e-22)
(101.7892609 2.139219451 -9.651263135e-20)
(101.3340781 1.400252539 8.086971225e-21)
(100.9583945 0.7737025022 0)
(100.6994841 0.4687669033 4.103515781e-21)
(100.5369954 0.2480258917 -3.080875281e-21)
(100.4609915 0.07727953168 -1.022860318e-21)
(100.0297859 -0.02366061275 0)
(99.99376695 -0.06678544505 0)
(99.91985505 -0.09491899946 -1.441568646e-20)
(99.79542942 -0.1002486059 2.920861175e-20)
(99.6597124 -0.03612660018 0)
(99.4105678 0.06493350567 0)
(99.04644075 0.2554983762 2.282685874e-20)
(98.63447879 0.584444592 1.09157906e-19)
(97.83730451 1.242016507 9.984798819e-19)
(96.66338197 2.496348062 1.829976474e-18)
(95.26645365 4.847212511 0)
(94.83191511 8.636124891 0)
(97.72350579 12.43084776 8.887767088e-21)
(102.3375614 12.09211062 0)
(104.3674206 9.354496157 -2.173317271e-18)
(104.6158068 6.993944129 0)
(104.2004601 5.150812663 1.731489246e-19)
(103.4813416 3.556950506 2.726569976e-19)
(102.6600352 2.157729295 2.50085765e-20)
(101.9413136 1.37164087 -1.692721127e-20)
(101.3220918 0.6791878104 0)
(100.9482993 0.4036705408 0)
(100.7167175 0.2061340598 -1.044961296e-21)
(100.6079475 0.06308816436 -3.148282487e-21)
(100.0858011 -0.03999147817 3.509980235e-21)
(100.041225 -0.1165340724 -3.533634663e-21)
(99.95080903 -0.1809481627 7.19841388e-21)
(99.79753293 -0.2258890145 -2.638109737e-20)
(99.61581927 -0.187636766 7.484448462e-23)
(99.30119191 -0.1383983438 2.237685594e-20)
(98.83872108 -0.01240637079 -3.827871442e-20)
(98.25678528 0.2681718274 0)
(97.13166322 0.8278344454 0)
(95.23210027 1.978017854 0)
(92.40941657 4.254023702 3.625945341e-20)
(88.9080124 9.463455518 0)
(93.41244015 20.53307393 -1.775264066e-19)
(107.2872815 17.84115077 -4.867116265e-19)
(108.7437198 10.71321497 4.186587757e-19)
(107.6824137 7.052875322 0)
(106.3782524 4.889755614 1.825536201e-18)
(104.987477 3.269217054 0)
(103.5704595 1.811543287 0)
(102.5330806 1.085713943 9.518748809e-21)
(101.6467276 0.4525176154 2.780977975e-21)
(101.1541562 0.2499162879 -3.281902699e-21)
(100.8559333 0.1167682757 -3.735281505e-21)
(100.7148277 0.03416346769 8.954138515e-21)
(100.1762963 -0.05950974157 -3.510354591e-21)
(100.1251011 -0.176151111 3.534911586e-21)
(100.0223853 -0.2849756103 -4.47661944e-21)
(99.84772292 -0.3799483427 -2.997706779e-21)
(99.62522462 -0.3829081394 1.27510182e-20)
(99.26109401 -0.4067329138 7.551231008e-21)
(98.7241922 -0.3813389149 -3.885846469e-21)
(98.00470063 -0.2161874446 -2.683876538e-20)
(96.64341845 0.07376324656 -1.0615715e-19)
(94.23785705 0.6490560865 1.008404792e-19)
(90.43210821 1.446651671 -4.176600198e-19)
(83.76234709 2.383606037 0)
(120.6136967 21.63027796 0)
(114.9286717 9.30302503 -3.528930575e-19)
(111.0705608 5.394012418 0)
(108.5412227 3.521614474 -5.687932413e-19)
(106.4098386 2.230566359 6.233786497e-19)
(104.3395992 1.050741433 -5.152026986e-21)
(102.9964505 0.5521886885 2.163333946e-20)
(101.8633489 0.09870136931 -3.422672619e-21)
(101.2730815 0.01665353312 2.792845397e-21)
(100.9214392 -0.01428521708 -5.51383978e-22)
(100.7530513 -0.008102258234 -8.459193742e-21)
(100.3065231 -0.08105026472 -1.689857421e-21)
(100.2513908 -0.2420018288 -1.269178368e-21)
(100.1420314 -0.4002470394 -4.343845403e-22)
(99.9558559 -0.5515333427 1.311206058e-21)
(99.70265132 -0.6063893079 -2.324705548e-23)
(99.31101222 -0.7163235344 0)
(98.73507379 -0.810610419 1.930793171e-21)
(97.94178345 -0.8029310303 -1.092915723e-19)
(96.50657954 -0.8542998665 -5.657978403e-20)
(94.06140435 -0.9546128938 3.481454682e-20)
(90.77609249 -1.487481215 -1.980265915e-19)
(87.36998394 -3.28483831 -4.436411919e-19)
(133.5141851 8.20949851 -5.767004111e-20)
(119.5658533 3.512157069 8.142669426e-19)
(113.4470124 1.860681034 -8.970626811e-20)
(109.9907897 1.073306862 0)
(107.3393151 0.549073112 -2.337001236e-19)
(104.7714204 -0.0422716334 -5.342069189e-21)
(103.2220829 -0.1789108173 1.231137074e-20)
(101.9161727 -0.3482288043 1.190539048e-21)
(101.2687475 -0.2729358237 0)
(100.8848744 -0.1750482023 4.286356644e-21)
(100.6988523 -0.05990408541 4.227525737e-21)
(100.4792187 -0.1031975354 3.330872142e-21)
(100.423175 -0.3097052314 4.943982923e-23)
(100.3134286 -0.5186686401 0)
(100.1267316 -0.7283754126 1.723940507e-22)
(99.8551234 -0.8408895335 -1.748760839e-21)
(99.4596567 -1.039766411 1.848941905e-21)
(98.88210362 -1.255538201 1.929565154e-20)
(98.07960673 -1.412714064 -2.112306731e-19)
(96.69949649 -1.772232681 1.661163571e-19)
(94.46527258 -2.336729238 -1.701670315e-20)
(91.85534163 -3.265892503 -1.841055538e-19)
(89.69369888 -4.550900753 0)
(132.014142 -7.069422357 0)
(119.7496149 -3.678185774 0)
(113.7403725 -2.447823086 7.614035006e-19)
(110.2104184 -1.847107038 1.339037174e-18)
(107.4753031 -1.453076871 -2.428369173e-19)
(104.7330974 -1.288246341 4.547701513e-20)
(103.1392842 -1.002117712 0)
(101.7715252 -0.8318367994 -1.169706909e-21)
(101.1191922 -0.5849814842 -4.779293736e-21)
(100.7296262 -0.3481418512 5.326586986e-22)
(100.5382521 -0.1157742068 0)
(100.6943212 -0.1245690375 -1.640873457e-21)
(100.6402791 -0.3748930775 1.653851652e-21)
(100.5359346 -0.6321485008 1.613858075e-21)
(100.3604223 -0.8984329432 -1.50195812e-21)
(100.0811848 -1.069097486 -1.724536703e-21)
(99.7039954 -1.35017175 0)
(99.15670237 -1.677060854 2.711983514e-20)
(98.3917536 -1.984747741 -5.02564048e-20)
(97.13240407 -2.587206402 2.110533865e-19)
(95.13919138 -3.434846501 1.369347066e-20)
(92.89739732 -4.463427718 3.410560338e-19)
(91.03544892 -5.435776555 0)
(124.1954096 -15.84738068 -1.59946041e-18)
(116.4943354 -9.181591799 1.018859438e-18)
(112.0977154 -6.186034732 0)
(109.2067813 -4.529751493 -6.15668668e-19)
(106.7820265 -3.345714032 2.211373718e-19)
(104.2059438 -2.461994386 0)
(102.7429924 -1.791731098 -2.943823247e-20)
(101.4289692 -1.290267636 -1.448976941e-20)
(100.8222895 -0.8828898745 1.086517427e-21)
(100.4530729 -0.5145384319 -3.427353478e-21)
(100.2686746 -0.1697239968 5.026193922e-22)
(100.9489977 -0.1438934164 6.044691173e-21)
(100.8996384 -0.4335031634 0)
(100.8052226 -0.7320665708 -1.610718934e-21)
(100.6490396 -1.05496022 0)
(100.3698322 -1.276183455 0)
(100.0328465 -1.625116958 -5.130645966e-21)
(99.54027496 -2.045098777 -2.618458446e-20)
(98.84418665 -2.479390244 9.620964611e-20)
(97.74029998 -3.265073645 1.439220944e-19)
(95.97196028 -4.316078382 5.953466469e-20)
(93.91145545 -5.469248951 -4.660408135e-19)
(92.03998065 -6.447138897 5.054707608e-19)
(115.5597188 -19.23892063 0)
(111.8258978 -12.1298252 5.294811583e-19)
(109.2975382 -8.625008155 -2.068708264e-18)
(107.322334 -6.467946302 5.005476782e-19)
(105.4470845 -4.784810692 1.975928376e-19)
(103.2965036 -3.385752035 2.332573253e-21)
(102.0857001 -2.444654321 -3.544383058e-20)
(100.9193954 -1.676989418 8.58703921e-21)
(100.3954916 -1.134982735 0)
(100.0664663 -0.6578614874 3.951345958e-21)
(99.89903903 -0.2165255376 0)
(101.2383349 -0.1607622855 6.036999793e-21)
(101.1954291 -0.485089085 9.538746037e-20)
(101.1134058 -0.8189255812 -1.921045419e-19)
(100.9789857 -1.186599687 -4.741333304e-22)
(100.7272485 -1.447057155 -1.516447261e-21)
(100.4324476 -1.849068194 0)
(100.0112406 -2.340817982 0)
(99.40005511 -2.872422015 -5.256005126e-19)
(98.47601691 -3.788690278 1.809258505e-19)
(96.95890062 -5.005253332 1.291790639e-20)
(95.11026944 -6.394686125 -2.306850377e-19)
(93.26726275 -7.647731583 -1.147888614e-19)
(103.951002 -28.35616191 0)
(107.4499526 -18.04799915 -1.546106178e-19)
(107.1864316 -12.77150576 1.419247483e-18)
(106.1721574 -9.634434136 -1.51152032e-18)
(105.0711452 -7.462457786 7.926856336e-19)
(103.7974783 -5.613034442 4.583918656e-19)
(102.176727 -3.968038158 -6.998884507e-20)
(101.2561113 -2.896620465 0)
(100.2976739 -1.96236428 0)
(99.87033674 -1.321532049 1.226247132e-20)
(99.5917226 -0.7675961636 2.267506622e-21)
(99.44755997 -0.2526648732 -7.323371959e-21)
(101.55546 -0.1735474709 0)
(101.520187 -0.5247150292 0)
(101.4532508 -0.8850055676 0)
(101.3428232 -1.281006232 0)
(101.1189413 -1.582106392 0)
(100.8696181 -2.026737783 0)
(100.5204391 -2.570332643 2.092599591e-21)
(100.0143398 -3.163581492 -1.592467478e-19)
(99.28202952 -4.153407957 1.574961021e-19)
(98.06658176 -5.47561756 2.227231043e-20)
(96.6389352 -7.125281487 0)
(95.18708741 -9.376088227 2.243686139e-19)
(97.08040144 -18.32114213 0)
(102.5045013 -14.85604194 -2.708922381e-19)
(103.5050038 -11.74071409 0)
(103.3933904 -9.478959923 1.586539241e-19)
(102.9155967 -7.625641359 0)
(102.1184285 -5.863803788 -5.948215883e-20)
(101.0021538 -4.230924223 -9.503747809e-20)
(100.3496061 -3.142363696 -3.593943193e-20)
(99.6167088 -2.127476357 -1.991194579e-20)
(99.2821589 -1.44037329 1.951291813e-20)
(99.05634322 -0.8400051963 0)
(98.93777683 -0.2765752536 1.955164666e-20)
(101.8932455 -0.1821374545 0)
(101.8664467 -0.5515528288 0)
(101.8167498 -0.9296263551 0)
(101.7323881 -1.339646498 0)
(101.5372458 -1.665819415 0)
(101.3435657 -2.132585382 0)
(101.0745875 -2.68417902 4.369504228e-20)
(100.6926153 -3.286866191 0)
(100.1889052 -4.237582019 -5.279209217e-21)
(99.32542021 -5.50916876 -2.334880617e-21)
(98.42974553 -7.115740994 -3.155747407e-19)
(97.72262086 -9.20028408 1.859649811e-19)
(98.49828892 -11.77767712 2.448293008e-20)
(100.4436223 -11.40981772 -1.030409998e-19)
(101.1750663 -10.02625753 9.131578033e-21)
(101.305236 -8.619078939 1.026437122e-18)
(101.121725 -7.203818511 -7.006697857e-21)
(100.6387298 -5.710793864 -2.444094527e-20)
(99.88423396 -4.237080649 0)
(99.45443828 -3.21590455 0)
(98.9167715 -2.187105815 -3.656370853e-20)
(98.66407678 -1.494776697 1.804151482e-20)
(98.48825365 -0.8753998173 7.590716212e-22)
(98.39423751 -0.2883710887 -1.343383959e-20)
(102.2438131 -0.1866086346 0)
(102.2252916 -0.5654353097 0)
(102.192509 -0.9525022465 0)
(102.1336092 -1.365406436 0)
(101.9670433 -1.705469561 0)
(101.8244921 -2.175551602 0)
(101.6286886 -2.71438589 0)
(101.3599679 -3.282066956 6.653286897e-20)
(101.0377371 -4.118793669 3.628473352e-19)
(100.4698161 -5.191244532 -9.131231157e-19)
(99.88278204 -6.467665228 -8.122379193e-19)
(98.02569777 -7.610498981 -7.773425761e-19)
(99.26337113 -8.966565142 0)
(99.70888875 -8.985878927 -1.760216638e-19)
(99.91003996 -8.400417919 0)
(99.91357171 -7.551490703 -6.560443641e-20)
(99.76158493 -6.498330717 -2.510474861e-19)
(99.42452758 -5.31258949 0)
(98.89583365 -4.063112658 -2.96708095e-20)
(98.62610327 -3.158976418 4.597885684e-20)
(98.2317489 -2.163850987 1.127964784e-20)
(98.04602581 -1.494830163 1.932219316e-20)
(97.91236705 -0.8785890144 -2.193245709e-20)
(97.8392452 -0.2895528718 0)
(102.5994969 -0.1873646614 0)
(102.5884093 -0.5675632231 0)
(102.5704755 -0.9555052287 0)
(102.5341189 -1.362402302 0)
(102.3936602 -1.706339639 0)
(102.2952746 -2.164783941 0)
(102.158139 -2.675540909 0)
(101.9672075 -3.197800373 -1.283497681e-19)
(101.7731227 -3.888179857 0)
(101.3978524 -4.718661264 -1.154820781e-21)
(100.9160709 -5.634260042 -6.848337268e-19)
(100.0943674 -6.252908578 3.442592904e-20)
(99.4689366 -7.047701131 -1.799400144e-20)
(99.53450024 -7.300179606 2.298298412e-21)
(99.29133763 -7.044826323 -4.099182569e-19)
(99.04994357 -6.501901702 0)
(98.77634201 -5.712348525 0)
(98.46600085 -4.814677521 0)
(98.05977389 -3.791199424 0)
(97.88114452 -3.009282512 0)
(97.58585814 -2.079733244 3.864992875e-20)
(97.45027477 -1.452612798 -3.613776216e-20)
(97.34846513 -0.8559826535 -2.460167985e-21)
(97.29131091 -0.2825983319 2.468286902e-21)
(102.953374 -0.1849592983 0)
(102.9486128 -0.5597460034 0)
(102.942847 -0.9416372705 0)
(102.9250127 -1.335128069 0)
(102.8076026 -1.674201951 0)
(102.7436685 -2.110714333 0)
(102.6506278 -2.583724716 0)
(102.50845 -3.065775478 0)
(102.3813296 -3.627946072 0)
(102.1057034 -4.247717989 3.349348899e-19)
(101.6711363 -4.892913055 -6.087671403e-19)
(101.3379103 -5.401977003 0)
(98.20717756 -5.827566076 -1.592420902e-20)
(99.63816956 -6.072080221 -1.485202297e-22)
(99.00781374 -5.9417579 1.244964955e-19)
(98.48963967 -5.556525018 0)
(98.06505939 -4.971383582 0)
(97.72177187 -4.294157389 0)
(97.36080628 -3.464074747 0)
(97.22412977 -2.798539738 0)
(96.99114711 -1.953573439 0)
(96.88962079 -1.378185738 0)
(96.81052318 -0.8152571607 0)
(96.76469466 -0.2703345445 0)
(103.2997676 -0.1799827087 0)
(103.3001221 -0.5439086026 0)
(103.3037248 -0.914232386 0)
(103.3000131 -1.288978868 0)
(103.2012558 -1.616402685 0)
(103.1619178 -2.024778378 0)
(103.0984263 -2.455692118 0)
(102.9860638 -2.891565471 0)
(102.8771292 -3.370846017 0)
(102.6260739 -3.848095535 0)
(102.2044811 -4.306974466 1.331412661e-19)
(101.7418771 -4.705284578 0)
(97.47940983 -4.905556065 -8.55114405e-22)
(99.75885788 -5.140370094 0)
(98.81435477 -5.043012555 0)
(98.08566325 -4.754962206 0)
(97.5392487 -4.322844285 0)
(97.13898256 -3.800158648 0)
(96.7827833 -3.122791464 0)
(96.65489412 -2.560928298 0)
(96.4536014 -1.805294933 0)
(96.37179176 -1.284522017 0)
(96.30639032 -0.762181797 0)
(96.26876243 -0.2534402114 0)
(103.6342793 -0.1730437187 0)
(103.6384917 -0.5220120955 0)
(103.6486835 -0.8766967776 0)
(103.6547388 -1.229393281 0)
(103.5700546 -1.540521434 0)
(103.5462471 -1.917688368 0)
(103.4995732 -2.306101572 0)
(103.4015846 -2.694648149 0)
(103.2890734 -3.101605277 0)
(103.0193167 -3.488513252 0)
(102.5610965 -3.839617346 0)
(101.8146637 -4.124749358 0)
(98.01175306 -4.274919915 0)
(99.75330286 -4.406600959 0)
(98.64845172 -4.319984087 0)
(97.78407001 -4.097694799 0)
(97.13759831 -3.765218714 0)
(96.67657838 -3.353076052 0)
(96.3014105 -2.794175572 0)
(96.16395081 -2.318508428 0)
(95.97357846 -1.648720142 0)
(95.90023369 -1.181671872 0)
(95.84141273 -0.7029611713 0)
(95.80840641 -0.234276773 0)
(103.953731 -0.1647413428 0)
(103.9605826 -0.495958978 0)
(103.9747671 -0.832272199 0)
(103.9866199 -1.161324088 0)
(103.9117452 -1.453336242 0)
(103.8958025 -1.798483541 0)
(103.8560915 -2.147476339 0)
(103.7606062 -2.489891737 0)
(103.6314615 -2.835035196 0)
(103.3314745 -3.150539923 0)
(102.8321339 -3.426388453 0)
(101.7931746 -3.621954045 0)
(98.53229477 -3.75716304 -6.364914613e-35)
(99.7232763 -3.818418114 0)
(98.51206657 -3.734986621 0)
(97.54795091 -3.554012227 0)
(96.82088497 -3.288536843 0)
(96.30327241 -2.955612594 0)
(95.89776476 -2.489497545 0)
(95.74052789 -2.084371533 0)
(95.54750265 -1.493279912 0)
(95.4745583 -1.076854221 0)
(95.4171403 -0.6419505486 0)
(95.38620604 -0.2144128115 0)
(104.2560481 -0.1556174054 0)
(104.2644479 -0.4674610874 0)
(104.2803551 -0.7838177399 0)
(104.2945902 -1.08895356 0)
(104.2259067 -1.360456021 0)
(104.2116792 -1.674523868 0)
(104.1709278 -1.987927155 0)
(104.0704613 -2.287727607 0)
(103.9169422 -2.581118937 0)
(103.5822393 -2.840461944 0)
(103.0439347 -3.060777619 0)
(101.7236663 -3.19220454 0)
(98.91488562 -3.316005792 0)
(99.68072745 -3.334178252 0)
(98.39426731 -3.253259633 0)
(97.35542836 -3.100145504 0)
(96.5638328 -2.881473888 0)
(95.9959952 -2.606496206 0)
(95.55669988 -2.213337338 0)
(95.37433159 -1.865902112 0)
(95.17028191 -1.345067388 0)
(95.09241691 -0.9749168896 0)
(95.03289684 -0.5821434561 0)
(95.00218062 -0.1948598861 0)
(104.5401458 -0.1461269802 0)
(104.5491713 -0.4379601536 0)
(104.5649345 -0.7337507623 0)
(104.5787269 -1.015559376 0)
(104.513448 -1.266319828 0)
(104.4962149 -1.551306215 0)
(104.4486391 -1.832634785 0)
(104.3382163 -2.094735337 0)
(104.1563307 -2.345246783 0)
(103.7862836 -2.560509445 0)
(103.2115672 -2.739458363 0)
(101.6275423 -2.825488636 0)
(99.18812893 -2.938427145 -8.019391949e-35)
(99.63051907 -2.93019012 0)
(98.28945047 -2.851547494 0)
(97.19340991 -2.718392654 0)
(96.35000965 -2.533668144 0)
(95.73858196 -2.302125499 0)
(95.26569153 -1.966860969 0)
(95.05624558 -1.666702429 0)
(94.83650921 -1.20764786 0)
(94.75046199 -0.8789042914 0)
(94.68661973 -0.5254778879 0)
(94.65484988 -0.1762667276 0)
(104.8057692 -0.1366344541 0)
(104.8146686 -0.4086000717 0)
(104.8288399 -0.6840026826 0)
(104.8399758 -0.9436480474 0)
(104.7758718 -1.174224052 0)
(104.7522767 -1.43260703 0)
(104.6939693 -1.685197273 0)
(104.5703692 -1.914759229 0)
(104.358557 -2.129919756 0)
(103.9547518 -2.3105798 0)
(103.3454437 -2.458179258 0)
(101.5184251 -2.511782506 0)
(99.38059206 -2.614443964 0)
(99.57563169 -2.590000407 0)
(98.19433307 -2.513613406 0)
(97.05370166 -2.395467437 0)
(96.16844507 -2.236227046 0)
(95.51958859 -2.038035705 0)
(95.01499914 -1.749243829 0)
(94.77852036 -1.488000143 0)
(94.54090031 -1.082786381 0)
(94.44487409 -0.7905581542 0)
(94.37542827 -0.4731100175 0)
(94.34178313 -0.1590234924 0)
(105.0532911 -0.1274217672 0)
(105.0614676 -0.3802458999 0)
(105.0729764 -0.6360292034 0)
(105.0798194 -0.8750658985 0)
(105.0151497 -1.086528624 0)
(104.9829009 -1.32095981 0)
(104.9113318 -1.547928335 0)
(104.7725919 -1.749863492 0)
(104.5308328 -1.935944365 0)
(104.0960147 -2.089410467 0)
(103.4530933 -2.212777618 0)
(101.4045104 -2.242957466 0)
(99.51473955 -2.336246364 2.615471174e-35)
(99.51800685 -2.301868785 0)
(98.10683865 -2.227750776 0)
(96.93096302 -2.12132474 0)
(96.01162921 -1.981787605 0)
(95.33078235 -1.809747614 0)
(94.79705499 -1.558679166 0)
(94.53468411 -1.329626888 0)
(94.27851013 -0.9710749269 0)
(94.1717124 -0.7107107819 0)
(94.0960475 -0.4256344342 0)
(94.0600376 -0.143336936 0)
(105.2835377 -0.118700149 0)
(105.2905301 -0.3535277587 0)
(105.2986156 -0.5908767373 0)
(105.3000163 -0.8111052115 0)
(105.2334764 -1.004829709 0)
(105.1910952 -1.217956301 0)
(105.1047579 -1.422153664 0)
(104.9497485 -1.600940166 0)
(104.6789923 -1.763106387 0)
(104.2162793 -1.89514011 0)
(103.5401789 -1.999455594 0)
(101.2908956 -2.012533235 0)
(99.60737601 -2.097421103 0)
(99.45894284 -2.057055163 0)
(98.02554669 -1.985201572 0)
(96.82152237 -1.888190674 0)
(95.87422504 -1.764253788 0)
(95.16605799 -1.613078512 0)
(94.60592285 -1.39294168 0)
(94.31933259 -1.19063829 0)
(94.04484955 -0.8723807861 0)
(93.92714087 -0.6395850826 0)
(93.84508826 -0.383259153 0)
(93.80645865 -0.1292875379 0)
(105.4976679 -0.1106208812 0)
(105.5031293 -0.3288846356 0)
(105.5072741 -0.5492630966 0)
(105.5024681 -0.7526204732 0)
(105.4330643 -0.9301590727 0)
(105.3796608 -1.124496891 0)
(105.2778765 -1.308826851 0)
(105.1059608 -1.468078117 0)
(104.8077359 -1.610660655 0)
(104.3200871 -1.725731325 0)
(103.6109715 -1.814870117 0)
(101.1807038 -1.815309032 0)
(99.67061447 -1.892857692 0)
(99.3993259 -1.848958985 0)
(97.94943396 -1.779314625 0)
(96.72275406 -1.690012048 0)
(95.75233838 -1.578641448 0)
(95.02080429 -1.444328407 0)
(94.43691588 -1.249756412 0)
(94.12798008 -1.069741607 0)
(93.83589834 -0.7861583053 0)
(93.70753526 -0.5770220629 0)
(93.619203 -0.345941889 0)
(93.57785497 -0.1168730129 0)
(105.6970838 -0.103286178 0)
(105.70076 -0.3066039362 0)
(105.700632 -0.5116487078 0)
(105.6891468 -0.7001291651 0)
(105.6161298 -0.8630985883 0)
(105.5512176 -1.04104598 0)
(105.4336329 -1.208182736 0)
(105.2448075 -1.351007728 0)
(104.9208913 -1.477585473 0)
(104.4108395 -1.579168146 0)
(103.668718 -1.656106792 0)
(101.0757684 -1.647091417 0)
(99.71299694 -1.718418482 0)
(99.33972112 -1.672477863 0)
(97.87768756 -1.604911079 0)
(96.63266782 -1.521975986 0)
(95.64300186 -1.420834405 0)
(94.89141518 -1.300261442 0)
(94.28621329 -1.126921657 0)
(93.95681303 -0.9654906696 0)
(93.64806184 -0.7116439496 0)
(93.5095198 -0.5226394223 0)
(93.41517046 -0.3134905297 0)
(93.37110274 -0.1060406038 0)
(105.883307 -0.09676135621 0)
(105.8850174 -0.2868607698 0)
(105.8804225 -0.4783056305 0)
(105.862001 -0.6539180981 0)
(105.7848029 -0.803938607 0)
(105.7081846 -0.9677577507 0)
(105.57473 -1.119962883 0)
(105.3692457 -1.249241682 0)
(105.0215408 -1.362780905 0)
(104.4911479 -1.453614192 0)
(103.7159327 -1.520707548 0)
(100.9771795 -1.504552113 0)
(99.74043136 -1.570721022 0)
(99.28046345 -1.523612078 0)
(97.80962442 -1.45792644 0)
(96.5497004 -1.38025158 0)
(95.5438955 -1.287466811 0)
(94.77502123 -1.178120698 0)
(94.15067605 -1.022437098 0)
(93.8025909 -0.8764607779 0)
(93.4781565 -0.6480111343 0)
(93.33001054 -0.4759511652 0)
(93.22997915 -0.2856389718 0)
(93.18324793 -0.09671194733 0)
(106.058009 -0.09108260617 0)
(106.0576214 -0.2697453072 0)
(106.0484569 -0.4493667144 0)
(106.022997 -0.6140956959 0)
(105.9411152 -0.7527642027 0)
(105.8527813 -0.9045340412 0)
(105.7036241 -1.043922801 0)
(105.4818154 -1.162123046 0)
(105.1121997 -1.265123674 0)
(104.563092 -1.347406357 0)
(103.7546077 -1.406542107 0)
(100.8856174 -1.384933927 0)
(99.75696396 -1.446870147 0)
(99.22173776 -1.399118528 0)
(97.74463688 -1.335089045 0)
(96.47256242 -1.261735106 0)
(95.45312645 -1.175761734 0)
(94.66925012 -1.075554194 0)
(94.02766863 -0.9345319245 0)
(93.66251244 -0.8013286294 0)
(93.32329108 -0.5944327553 0)
(93.16614377 -0.4364368981 0)
(93.06078017 -0.2620905979 0)
(93.01146504 -0.08879649252 0)
(106.2226544 -0.08627319743 0)
(106.2200891 -0.2553030001 0)
(106.2063193 -0.4248720818 0)
(106.1738287 -0.5807323569 0)
(106.0869668 -0.7095198 0)
(105.9870355 -0.8511520709 0)
(105.8225136 -0.9798206861 0)
(105.5846887 -1.088966107 0)
(105.194936 -1.183538305 0)
(104.6283566 -1.259074041 0)
(103.786321 -1.311784422 0)
(100.801446 -1.28596878 0)
(99.76539794 -1.344481386 -3.798930691e-36)
(99.16363227 -1.296378483 0)
(97.68218374 -1.233760344 0)
(96.40016999 -1.163915353 0)
(95.3691202 -1.08345579 0)
(94.57206059 -0.9906453561 0)
(93.91494666 -0.8617212924 0)
(93.53412105 -0.7388988337 0)
(93.1810316 -0.550192145 0)
(93.01546022 -0.4035907473 0)
(92.90510263 -0.2425610673 0)
(92.85330395 -0.08220854807 0)
(106.3796111 -0.08232619625 0)
(106.3747554 -0.2435182485 0)
(106.3563294 -0.4047956364 0)
(106.3168289 -0.5536216572 0)
(106.2242039 -0.674096155 0)
(106.1127962 -0.8073217823 0)
(105.9335682 -0.9278543382 0)
(105.6797644 -1.028967568 0)
(105.2714822 -1.117035929 0)
(104.6883312 -1.187345973 0)
(103.8123414 -1.234896785 0)
(100.7247632 -1.205817848 0)
(99.76769126 -1.261594344 0)
(99.10615566 -1.213285289 0)
(97.6217802 -1.15182422 0)
(96.33159844 -1.08476821 0)
(95.29057393 -1.00871105 0)
(94.48189974 -0.9220752677 0)
(93.81040985 -0.8029066761 0)
(93.41523525 -0.6881934235 0)
(93.04859033 -0.514499356 0)
(92.87511619 -0.3769504715 0)
(92.76002903 -0.2267654926 0)
(92.70579101 -0.0768532827 0)
(106.5278925 -0.079293529 0)
(106.52082 -0.2344747556 0)
(106.497805 -0.3891499998 0)
(106.4514632 -0.5332458989 0)
(106.3545289 -0.6462471576 0)
(106.2317674 -0.7728492272 0)
(106.0379741 -0.8876243402 0)
(105.7689231 -0.9816205567 0)
(105.3433343 -1.064764172 0)
(104.7441941 -1.131136597 0)
(103.8337112 -1.174597081 0)
(100.6553763 -1.142947377 0)
(99.76526278 -1.196561201 0)
(99.04926992 -1.148148774 0)
(97.56297052 -1.087590714 0)
(96.26601415 -1.022658498 0)
(95.21633119 -0.9499744095 0)
(94.39746484 -0.86805138 0)
(93.71222938 -0.756829805 0)
(93.30377699 -0.6480908569 0)
(92.92566077 -0.4872673848 0)
(92.744803 -0.3561332821 0)
(92.62528212 -0.214551701 0)
(92.56878924 -0.07270442821 0)
(106.6790184 -0.07701807504 0)
(106.6692438 -0.2279130723 0)
(106.6413258 -0.3777720444 0)
(106.5870976 -0.5170704862 0)
(106.4802928 -0.6260272723 0)
(106.3454849 -0.7478247356 0)
(106.1372778 -0.8583243592 0)
(105.8535579 -0.9464635394 0)
(105.411732 -1.02601429 0)
(104.7969512 -1.089549264 0)
(103.8513318 -1.129864965 0)
(100.593136 -1.096220498 0)
(99.75919476 -1.148145952 0)
(98.99291341 -1.09969338 0)
(97.5053226 -1.039762807 0)
(96.20264763 -0.9763205664 0)
(95.14528135 -0.9060522725 0)
(94.31698296 -0.8273057786 0)
(93.61913823 -0.7223409137 0)
(93.19811001 -0.6186664464 0)
(92.80394199 -0.4659217906 0)
(92.61522492 -0.3407073642 0)
(92.49117829 -0.2055021965 0)
(92.43206845 -0.06955788031 0)
(106.7964987 -0.07600462603 0)
(106.7851184 -0.2246256485 0)
(106.7534807 -0.3716123965 0)
(106.6949101 -0.5114103504 0)
(106.6001759 -0.61273758 0)
(106.4551149 -0.7316170881 0)
(106.2327579 -0.8396181086 0)
(105.9349454 -0.923033582 0)
(105.477738 -1.000161981 0)
(104.8475015 -1.061812516 0)
(103.8660333 -1.09988343 0)
(100.5379801 -1.064877786 0)
(99.75032617 -1.115468212 0)
(98.93695887 -1.066973836 0)
(97.44839709 -1.007360747 0)
(96.14077474 -0.9448006537 0)
(95.07644155 -0.8760869822 0)
(94.23934526 -0.7994232597 0)
(93.52981809 -0.698947361 0)
(93.09703235 -0.5988963372 0)
(92.70722436 -0.4557411657 0)
(92.5136711 -0.3314232464 0)
(92.38623012 -0.2003381 0)
(92.32561289 -0.06788419638 0)
(107.0250079 -0.07485935852 0)
(107.0098436 -0.2222661161 0)
(106.9707056 -0.3674715928 0)
(106.8974132 -0.5020402667 0)
(106.7129472 -0.607582004 0)
(106.5566496 -0.72459439 0)
(106.3216693 -0.8315759034 0)
(106.014152 -0.9110650019 0)
(105.5421685 -0.9866700458 0)
(104.8966007 -1.047170106 0)
(103.8787112 -1.083981126 0)
(100.4900507 -1.048461067 0)
(99.73924275 -1.097998737 0)
(98.88131335 -1.049282075 0)
(97.3918206 -0.989672523 0)
(96.07976792 -0.9274070091 0)
(95.00897608 -0.8594462 0)
(94.16347689 -0.7840002763 0)