/*--------------------------------*- C++ -*----------------------------------*\
| =========                 |                                                 |
| \\      /  F ield         | OpenFOAM: The Open Source CFD Toolbox           |
|  \\    /   O peration     | Version:  v1912                                 |
|   \\  /    A nd           | Website:  www.openfoam.com                      |
|    \\/     M anipulation  |                                                 |
\*---------------------------------------------------------------------------*/
FoamFile
{
    version     2.0;
    format      ascii;
    class       surfaceScalarField;
    location    "1.43";
    object      meshPhi;
}
// * * * * * * * * * * * * * * * * * * * * * * * * * * * * * * * * * * * * * //

dimensions      [0 3 -1 0 0 0 0];
oriented        oriented;


internalField   nonuniform List<scalar> 
25162
(
0
0
0
0
0
0
0
0
0
0
0
0
0
0
0
0
0
0
0
0
0
0
0
0
0
0
0
0
0
0
0
0
0
0
0
0
0
0
0
0
0
0
0
0
0
0
0
0
0
0
0
0
0
0
0
0
0
0
0
0
0
0
0
0
0
0
0
0
0
0
0
0
0
0
0
0
0
0
0
0
0
0
0
0
0
0
0
0
0
0
0
0
0
0
0
0
0
0
0
0
0
0
0
0
-6.421302498e-09
3.797236668e-08
-4.252636914e-07
0
1.339551556e-08
3.615649788e-07
0
0
0
0
0
0
0
0
0
0
0
0
0
0
0
0
0
0
0
0
0
0
0
0
0
0
0
0
0
0
0
0
0
0
0
0
0
0
0
0
0
0
0
0
0
0
0
0
0
0
0
0
0
0
0
0
0
0
0
0
0
0
0
0
0
0
3.021026987e-08
-4.981416026e-07
-2.678660078e-06
3.141545751e-06
1.019078918e-05
-2.800611482e-05
-2.303138954e-05
3.964792735e-05
1.341893034e-05
-7.392399468e-05
-2.305302998e-05
8.302820042e-05
-1.80095586e-06
-9.697161374e-05
3.178194621e-06
9.625166047e-05
-1.449742461e-05
-7.783883433e-05
2.64069415e-05
6.718469581e-05
-6.915973095e-06
-2.995666773e-05
1.921559105e-05
1.860763162e-05
0
-5.388894555e-07
4.227082267e-07
0
0
0
0
0
0
0
0
0
0
0
0
0
0
0
0
0
0
0
0
0
0
0
0
0
0
0
0
0
0
0
0
0
0
0
0
0
0
0
0
0
0
0
0
0
0
0
0
0
0
0
1.441718745e-06
-8.013221553e-07
-7.079199607e-06
5.736667974e-06
4.624145544e-05
-4.930545667e-05
-6.972444283e-05
7.019428637e-05
8.3664053e-05
-0.0001404573382
-0.0001083057581
0.0001640623876
6.109795748e-05
-0.0002265828645
-7.508169451e-05
0.0002427784316
-1.023062246e-05
-0.0002709981597
1.351677696e-05
0.0002725286282
-7.933708439e-05
-0.000250980682
0.0001008986431
0.0002351456371
-8.96987139e-05
-0.0001662942483
0.0001220976957
0.0001386751691
-3.509245927e-05
-5.750399084e-05
5.976973988e-05
3.545736842e-05
0
-8.002790615e-07
1.136714493e-06
0
0
0
0
0
0
0
0
0
0
0
0
0
0
0
0
0
0
0
0
0
0
0
0
0
0
0
0
0
0
0
0
0
0
0
0
0
0
0
0
0
0
0
0
0
-4.814833274e-07
1.987285245e-07
5.175103628e-05
-2.352206843e-05
-7.219350778e-05
4.05527987e-05
0.000151967918
-0.0001080817789
-0.0001802616888
0.0001333133914
0.0001840872233
-0.0002107714401
-0.0002077995175
0.0002353561959
0.0001142719833
-0.0002976148506
-0.000125239843
0.000313132192
-2.46716842e-05
-0.0003415026212
2.816526627e-05
0.0003448822447
-0.000166471752
-0.0003355072151
0.0001858061088
0.0003248678949
-0.0002312654149
-0.0002662934658
0.0002675788128
0.0002388294838
-0.0001647024348
-0.0001418668348
0.0002066026815
0.0001129960053
-3.663493371e-05
-3.366685087e-05
5.865102521e-05
1.638683922e-05
0
0
0
0
0
0
0
0
0
0
0
0
0
0
0
0
0
0
0
0
0
0
0
0
0
0
0
0
0
0
0
0
0
0
0
0
0
0
0
0
0
0
1.381519392e-05
-1.655935757e-06
-2.197302371e-05
6.997530926e-06
0.0001443203074
-3.872965655e-05
-0.0001662516852
5.274918802e-05
0.0002636937179
-0.0001009317158
-0.0002872568058
0.0001180317353
0.000273268153
-0.0001742250794
-0.0002900249676
0.0001905467699
0.000149341633
-0.0002301226085
-0.0001552619506
0.0002377254088
-3.492014176e-05
-0.0002452397304
3.545785367e-05
0.000245971634
-0.000227560614
-0.0002464676228
0.0002326338258
0.0002461027651
-0.0003673374191
-0.0002245309577
0.0003860019224
0.0002174451868
-0.000332824274
-0.0001601727385
0.000370838014
0.0001352596266
-0.0001416716406
-5.994830054e-05
0.0001711878399
3.908914658e-05
-2.345300222e-06
-3.492406149e-06
6.200133663e-06
3.229887315e-08
0
0
0
0
0
0
0
0
0
0
0
0
0
0
0
0
0
0
0
0
0
0
0
0
0
0
0
0
0
0
0
0
0
0
0
-4.244818253e-07
2.570168307e-10
8.420431904e-10
4.765860779e-05
-1.953985022e-06
-5.670369341e-05
3.949782437e-06
0.000216079558
-1.083945856e-05
-0.0002329549815
1.740966745e-05
0.0003435833206
-3.056998311e-05
-0.0003565909346
3.683723318e-05
0.0003262723121
-5.783368246e-05
-0.0003346344945
6.489639714e-05
0.0001631479361
-7.099940473e-05
-7.820025483e-05
-8.804232275e-05
4.336279327e-05
3.073125299e-05
-4.420194662e-05
-1.197460781e-05
1.206921569e-05
4.410733874e-05
-4.116092986e-05
-0.0002370427234
7.102475027e-05
-2.971944257e-05
0.0001239983549
0.0001128999906
-8.0109149e-05
-0.000427120228
0.0004329720055
8.085146355e-05
-0.000460576645
-6.636149191e-05
0.0004777499941
6.122830853e-05
-0.0002516113613
-3.570930452e-05
0.0002787984134
2.544442352e-05
-4.198352685e-06
-2.93304308e-05
3.847311544e-05
1.188851071e-06
0
0
0
0
0
0
0
0
0
0
0
0
0
0
0
0
0
0
0
0
0
0
0
0
0
0
0
0
0
0
0
0
0
1.778193694e-06
0
-3.807343301e-06
-1.903828555e-07
-4.272889608e-07
7.483986457e-05
6.37216855e-06
-7.69868721e-05
-1.259810135e-05
0.0002626007767
4.052349816e-05
-0.0002662461044
-5.125786613e-05
0.0003837110006
8.133473284e-05
-0.000386851501
-8.908864867e-05
0.0003485006692
0.0001006474728
-0.0003501878915
-0.0001001762601
8.840757438e-05
4.539100653e-05
-8.861089735e-05
-4.518768355e-05
4.464797633e-05
-0.0001123339865
0.0001122661607
-4.458015047e-05
9.717919595e-05
-0.0004370543975
0.0004367155052
-9.26824567e-05
-0.0005284604939
7.128585128e-05
0.0005355240679
-6.269552148e-05
-0.0003355381157
3.622096509e-05
0.00034445514
-2.801005806e-05
7.312246613e-06
-6.027217747e-05
6.998130779e-05
-3.404456262e-06
0
0
0
0
0
0
0
0
0
0
0
0
0
0
0
0
0
0
0
0
0
0
0
0
0
0
0
0
0
0
0
0
0
4.945717516e-06
0
-6.234782073e-06
-1.358167892e-06
-1.758399111e-06
8.799518481e-05
2.033873898e-05
-9.029896871e-05
-3.760675632e-05
0.0002800652238
0.0001111189804
-0.0002828190723
-0.0001392057414
0.0003969553924
0.0002171637307
-0.0003988653122
-0.0002373817023
0.0003528392347
0.0002698810074
-0.0003532319077
-0.0002706616629
8.821271944e-05
0.0001301897945
-8.819849467e-05
-0.0001302040193
0.0001309221483
-0.0001121389398
0.0001120637508
-0.0001308469593
0.0002715466195
-0.0004337260068
0.0004328816167
-0.0002670283971
-0.0005528208548
0.0002223860341
0.0005557673288
-0.0001993897371
-0.0003758673599
0.0001199867691
0.0003821335313
-9.343348363e-05
2.807239256e-05
-8.239785232e-05
8.646762941e-05
-1.375343009e-05
0
0
0
0
0
0
0
0
0
0
0
0
0
0
0
0
0
0
0
0
0
0
0
0
0
0
0
0
0
0
0
0
0
7.479024298e-06
0
-9.179229051e-06
-3.284304811e-06
-3.986780343e-06
9.598994326e-05
3.676452696e-05
-9.827237821e-05
-6.579977291e-05
0.0002894989547
0.0001864370714
-0.0002921588934
-0.0002319527434
0.0004033753634
0.0003573854228
-0.0004052058333
-0.0003896069299
0.000353991382
0.0004397682676
-0.0003542802444
-0.0004405351954
8.802737083e-05
0.000214965535
-8.807349321e-05
-0.0001060841743
-0.0001088352383
0.0002165665097
-0.0001115939599
0.0001114666241
-0.0002164391739
0.00044194607
-0.0004324089612
0.0004325336178
-0.0004367955062
-0.0005521847406
0.0003698429879
0.0005497180889
-0.0003333134446
-0.0003773760699
0.0002018874245
0.0003745312101
-0.0001572016222
4.636171457e-05
-8.367117927e-05
8.238401658e-05
-2.238505089e-05
0
0
0
0
0
0
0
0
0
0
0
0
0
0
0
0
0
0
0
0
0
0
0
0
0
0
0
0
0
0
0
0
0
1.102281945e-05
0
-1.3124067e-05
-6.665003732e-06
-7.778961333e-06
0.0001053495268
5.734901646e-05
-0.0001078196872
-9.931762953e-05
0.0003002614294
0.0002692813833
-0.0003030494222
-0.0003324182664
0.0004107834549
0.000504030001
-0.000412707995
-0.0005472610218
0.0003549294151
0.0006110683377
-0.0003551006514
-0.0006114479851
8.784111536e-05
0.0003004870321
-8.783195618e-05
-0.0001489023072
-0.0001515938841
0.0003019628337
-0.0001107531052
0.00011055758
-0.0003017673085
0.0006115827822
-0.0004331652612
0.0004333255318
-0.0006003190391
-0.0005317868156
0.0004994377765
0.0005188762762
-0.0004445880678
-0.0003437356488
0.0002590574735
0.0003338985431
-0.0001975712191
5.112933173e-05
-6.453284028e-05
6.042433593e-05
-2.185829473e-05
0
0
0
0
0
0
0
0
0
0
0
0
0
0
0
0
0
0
0
0
0
0
0
0
0
0
0
0
0
0
0
0
0
1.563877634e-05
0
-1.656696243e-05
-1.212951613e-05
-1.307029856e-05
0.000115812833
8.289074421e-05
-0.000118908564
-0.0001389976738
0.0003119342114
0.0003603151125
-0.0003153355881
-0.0004410635206
0.0004188748714
0.0006567105426
-0.0004212420074
-0.0007096122897
0.0003554636594
0.0007820248313
-0.00035559728
-0.0007819625501
8.764498705e-05
0.0003857298986
-8.76046493e-05
-0.0001914815541
-0.0001942886822
0.0003861684346
-0.0001095368932
0.000109372008
-0.0003860035494
0.0007703599139
-0.0004316973802
0.0004303027476
-0.0007448572891
-0.0004875889363
0.0005853197948
0.0004816178028
-0.0005204192479
-0.0002896706856
0.0002845528549
0.0002685895557
-0.0002091101914
4.238267984e-05
-3.969918637e-05
3.366198534e-05
-1.368675307e-05
0
0
0
0
0
0
0
0
0
0
0
0
0
0
0
0
0
0
0
0
0
0
0
0
0
0
0
0
0
0
0
0
0
2.290309474e-05
0
-2.942496819e-05
-2.25669299e-05
-2.668872682e-05
0.0001285457052
0.0001186247598
-0.0001361971666
-0.0001909241674
0.0003268202503
0.0004655097249
-0.0003323800651
-0.0005623988811
0.0004291918683
0.0008137711569
-0.0004285136702
-0.0008787035298
0.000355656368
0.0009529693966
-0.0003560106813
-0.0004709769134
-0.0004816381698
4.52151466e-05
0.0002338861178
-4.527856327e-05
-0.0002338227011
-3.468625462e-06
0.0001166477229
3.197911995e-06
-0.0002337235723
0.0001173465629
0.0004687257726
-0.000108445857
0.0002284838096
-0.0009477390534
0.0004791413679
-0.0001201660396
-0.0004225413735
0.0009075597885
0.0004173895622
-0.0008618732527
-0.0004380491182
0.0006422249271
0.0004208146254
-0.000549376562
-0.0002160860612
0.0002656575742
0.0002011875688
-0.00018317962
2.04503125e-05
-1.319682351e-05
1.025986545e-05
-1.994783933e-06
0
0
0
0
0
0
0
0
0
0
0
0
0
0
0
0
0
0
0
0
0
0
0
0
0
0
0
0
0
0
0
0
0
3.332507957e-05
0
-2.772388064e-05
-3.459674917e-05
-3.264732416e-05
0.0001476753073
0.0001551224689
-0.0001438091259
-0.0002419637504
0.0003441568149
0.0005639256725
-0.0003391677915
-0.0006769882248
0.0004384609103
0.0009703489561
-0.0004337285075
-0.001039660962
0.0003509498039
0.001124668129
-0.0003509498038
-0.0005571287233
-0.0005675394061
4.388505922e-05
0.0005571287233
-8.474617057e-05
4.086111137e-05
-0.0002771003665
-0.0002800283567
-1.202336006e-05
0.0002771003715
1.202335257e-05
-0.0005571287233
0.0002800283592
0.001124668129
-0.0002297960168
0.0002301832739
-0.001122976328
-0.0003985938769
0.001000906014
0.0003902789327
-0.0009286869109
-0.0003620509969
0.0006318540133
0.0003482582011
-0.0005292774461
-0.0001448281516
0.0002154087994
0.0001247801364
-0.0001356392588
3.200360935e-06
-1.916009984e-06
8.630628234e-07
0
0
0
0
0
0
0
0
0
0
0
0
0
0
0
0
0
0
0
0
0
0
0
0
0
0
0
0
0
0
0
0
0
0
1.759717363e-05
0
-6.583039181e-06
-1.784216946e-05
-1.14918332e-05
0.0001159797539
0.0001232418876
-0.0001021965806
-0.000206064696
0.0003028173077
0.0005311768679
-0.0002840615354
-0.0006511478517
0.000399462003
0.0009873254961
-0.0003817150519
-0.001079214134
0.0003417599568
0.001259016693
-0.0003318060044
-0.001284540024
8.474617058e-05
0.00129574472
-0.0001573994561
-0.00129574472
7.265328559e-05
-3.614310165e-05
0.00129574472
3.614310165e-05
-0.00129574472
-0.0002300224456
0.001277281959
0.0002267916859
-0.001246338675
-0.0003580288092
0.001043042763
0.0003414172037
-0.0009411301066
-0.0002792703605
0.0005764983016
0.0002566637428
-0.0004511757451
-7.406949473e-05
0.0001366975402
6.024613e-05
-7.163121935e-05
0
0
0
0
0
0
0
0
0
0
0
0
0
0
0
0
0
0
0
0
0
0
0
0
0
0
0
0
0
0
0
0
0
0
0
0
0
1.62474472e-07
0
0
-1.095578334e-07
0
5.40365768e-05
4.663156416e-05
-3.81128387e-05
-0.0001036379919
0.0002113572419
0.0003727138273
-0.0001829669898
-0.000482731504
0.0003115502769
0.0008216576512
-0.0002831362796
-0.0009265446277
0.000287173794
0.00118224752
-0.0002673862658
-0.001243380293
0.0001493447435
0.001354228814
-0.0001424695859
-0.001370350691
-3.256100241e-05
0.001369676484
2.991039628e-05
-0.001352938964
-0.0002002354534
0.001236969579
0.0001855923576
-0.001171853524
-0.0002705274919
0.000893741942
0.0002409567888
-0.0007786123388
-0.0001735194702
0.000413340179
0.0001434349773
-0.0003004317474
-2.370632698e-05
5.385336183e-05
1.38319775e-05
-1.458236813e-05
0
0
0
0
0
0
0
0
0
0
0
0
0
0
0
0
0
0
0
0
0
0
0
0
0
0
0
0
0
0
0
0
0
0
0
0
0
0
0
0
0
0
4.346605841e-06
1.18198189e-07
-7.326359683e-07
-8.815467429e-06
9.444592168e-05
0.0001475045975
-6.703827228e-05
-0.0002227552279
0.0001872512557
0.0004896753604
-0.0001536261369
-0.0005819927626
0.0001953071525
0.0008324573362
-0.0001681436482
-0.0009006265616
0.0001113613307
0.001041869669
-9.815669928e-05
-0.001065766119
-1.974311042e-05
0.001063765174
1.618622952e-05
-0.001037984633
-0.0001290912506
0.0008852614688
0.0001081456613
-0.0008107763372
-0.0001445632182
0.0005365697424
0.0001132268807
-0.0004369852216
-6.017528839e-05
0.0001641478543
3.821751826e-05
-9.514525792e-05
-1.863628626e-07
3.926507858e-07
0
0
0
0
0
0
0
0
0
0
0
0
0
0
0
0
0
0
0
0
0
0
0
0
0
0
0
0
0
0
0
0
0
0
0
0
0
0
0
0
0
0
0
0
0
0
0
0
8.479558515e-06
4.29249776e-06
-1.361876107e-06
-1.975302453e-05
6.049808154e-05
0.0001343523226
-3.608570579e-05
-0.0001861885697
8.569727753e-05
0.0003468722928
-6.086328971e-05
-0.0003949106118
5.492165121e-05
0.0004989880896
-4.099474936e-05
-0.0005165190235
-7.038345375e-06
0.0005091464911
4.793232956e-06
-0.000486547419
-4.923924793e-05
0.0003666680676
3.324867612e-05
-0.0003137862061
-3.620513692e-05
0.0001458482597
1.910352614e-05
-9.591009646e-05
-1.75044754e-06
5.378800636e-06
4.813165719e-09
-5.761696693e-08
0
0
0
0
0
0
0
0
0
0
0
0
0
0
0
0
0
0
0
0
0
0
0
0
0
0
0
0
0
0
0
0
0
0
0
0
0
0
0
0
0
0
0
0
0
0
0
0
0
0
0
0
0
0
2.116078279e-07
0
0
-7.684649681e-07
8.451353797e-06
2.085129617e-05
-1.353050174e-06
-3.227910655e-05
8.758374117e-06
6.304443032e-05
-2.935200392e-06
-6.859533468e-05
-7.600668071e-07
6.419353225e-05
2.155776473e-07
-5.609815267e-05
-3.346799491e-06
2.231592001e-05
2.752449887e-07
-1.227250058e-05
0
0
0
0
0
0
0
0
0
0
0
0
0
0
0
0
0
0
0
0
0
0
0
0
0
0
0
0
0
0
0
0
0
0
0
0
0
0
0
0
0
0
0
0
0
0
0
0
0
0
0
0
0
0
0
0
0
0
0
0
0
0
0
0
0
0
0
0
0
0
0
0
0
0
0
0
0
0
0
0
0
0
0
0
0
0
0
0
0
0
0
0
0
0
0
0
0
0
0
0
0
0
0
0
0
0
0
0
0
0
0
0
0
0
0
0
0
0
0
0
0
0
0
0
0
0
0
0
0
0
0
0
0
0
0
0
0
0
0
0
0
0
0
0
0
0
0
0
0
0
0
0
0
0
0
0
0
0
0
0
0
0
0
0
0
0
0
0
0
0
0
0
0
0
0
0
0
0
0
0
0
0
0
0
0
0
0
0
0
0
0
0
0
0
0
0
0
0
0
0
0
0
0
0
0
0
0
0
0
0
0
0
0
0
0
0
0
0
0
0
0
0
0
0
0
0
0
0
0
0
0
0
0
0
0
0
0
0
0
0
0
0
0
0
0
0
0
0
0
0
0
0
0
0
0
0
0
0
0
0
0
0
0
0
0
0
0
0
0
0
0
0
0
0
0
0
0
0
0
0
0
0
0
0
0
0
0
0
0
0
0
0
0
0
0
0
0
0
0
0
0
0
0
0
0
0
0
0
0
0
0
0
0
0
0
0
0
0
0
0
0
0
0
0
0
0
0
0
0
0
0
0
0
0
0
0
0
0
0
0
0
0
0
0
0
0
0
0
0
0
0
0
0
0
0
0
0
0
0
0
0
0
0
0
0
0
0
0
0
0
0
0
0
0
0
0
0
0
0
0
0
0
0
0
0
0
0
0
0
0
0
0
0
0
0
0
0
0
0
0
0
0
0
0
0
0
0
0
0
0
0
0
0
0
0
0
0
0
0
0
0
0
0
0
0
0
0
0
0
0
0
0
0
0
0
0
0
0
0
0
0
0
0
0
0
0
0
0
0
0
0
0
0
0
0
0
0
0
0
0
0
0
0
0
0
0
0
0
0
0
0
0
0
0
0
0
0
0
0
0
0
0
0
0
0
0
0
0
0
0
0
0
0
0
0
0
0
0
0
0
0
0
0
0
0
0
0
0
0
0
0
0
0
0
0
0
0
0
0
0
0
0
0
0
0
0
0
0
0
0
0
0
0
0
0
0
0
0
0
0
0
0
0
0
0
0
0
0
0
0
0
0
0
0
0
0
0
0
0
0
0
0
0
0
0
0
0
0
0
0
0
0
0
0
0
0
0
0
0
0
0
0
0
0
0
0
0
0
0
0
0
0
0
0
0
0
0
0
0
0
0
0
0
0
0
0
0
0
0
0
0
0
0
0
0
0
0
0
0
0
0
0
0
0
0
0
0
0
0
0
0
0
0
0
0
0
0
0
0
0
0
0
0
0
0
0
0
0
0
0
0
0
0
0
0
0
0
0
0
0
0
0
0
0
0
0
0
0
0
0
0
0
0
0
0
0
0
0
0
0
0
0
0
0
0
0
0
0
0
0
0
0
0
0
0
0
0
0
0
0
0
0
0
0
0
0
0
0
0
0
0
0
0
0
0
0
0
0
0
0
0
0
0
0
0
0
0
0
0
0
0
0
0
0
0
0
0
0
0
0
0
0
0
0
0
0
0
0
0
0
0
0
0
0
0
0
0
0
0
0
0
0
0
0
0
0
0
0
0
0
0
0
0
0
0
0
0
0
0
0
0
0
0
0
0
0
0
0
0
0
0
0
0
0
0
0
0
0
0
0
0
0
0
0
0
0
0
0
0
0
0
0
0
0
0
0
0
0
0
0
0
0
0
0
0
0
0
0
0
0
0
0
0
0
0
0
0
0
0
0
0
0
0
0
0
0
0
0
0
0
0
0
0
0
0
0
0
0
0
0
0
0
0
0
0
0
0
0
0
0
0
0
0
0
0
0
0
0
0
0
0
0
0
0
0
0
0
0
0
0
0
0
0
0
0
0
0
0
0
0
0
0
0
0
0
0
0
0
0
0
0
0
0
0
0
0
0
0
0
0
0
0
0
0
0
0
0
0
0
0
0
0
0
0
0
0
0
0
0
0
0
0
0
0
0
0
0
0
0
0
0
0
0
0
0
0
0
0
0
0
0
0
0
0
0
0
0
0
0
0
0
0
0
0
0
0
0
0
0
0
0
0
0
0
0
0
0
0
0
0
0
0
0
0
0
0
0
0
0
0
0
0
0
0
0
0
0
0
0
0
0
0
0
0
0
0
0
0
0
0
0
0
0
0
0
0
0
0
0
0
0
0
0
0
0
0
0
0
0
0
0
0
0
0
0
0
0
0
0
0
0
0
0
0
0
0
0
0
0
0
0
0
0
0
0
0
0
0
0
0
0
0
0
0
0
0
0
0
0
0
0
0
0
0
0
0
0
0
0
0
0
0
0
0
0
0
0
0
0
0
0
0
0
0
0
0
0
0
0
0
0
0
0
0
0
0
0
0
0
0
0
0
0
0
0
0
0
0
0
0
0
0
0
0
0
0
0
0
0
0
0
0
0
0
0
0
0
0
0
0
0
0
0
0
0
0
0
0
0
0
0
0
0
0
0
0
0
0
0
0
0
0
0
0
0
0
0
0
0
0
0
0
0
0
0
0
0
0
0
0
0
0
0
0
0
0
0
0
0
0
0
0
0
0
0
0
0
0
0
0
0
0
0
0
0
0
0
0
0
0
0
0
0
0
0
0
0
0
0
0
0
0
0
0
0
0
0
0
0
0
0
0
0
0
0
0
0
0
0
0
0
0
0
0
0
0
0
0
0
0
0
0
0
0
0
0
0
0
0
0
0
0
0
0
0
0
0
0
0
0
0
0
0
0
0
0
0
0
0
0
0
0
0
0
0
0
0
0
0
0
0
0
0
0
0
0
0
0
0
0
0
0
0
0
0
0
0
0
0
0
0
0
0
0
0
0
0
0
0
0
0
0
0
0
0
0
0
0
0
0
0
0
0
0
0
0
0
0
0
0
0
0
0
0
0
0
0
0
0
0
0
0
0
0
0
0
0
0
0
0
0
0
0
0
0
0
0
0
0
0
0
0
0
0
0
0
0
0
0
0
0
0
0
0
0
0
0
0
0
0
0
0
0
0
0
0
0
0
0
0
0
0
0
0
0
0
0
0
0
0.0001196504704
-0.0001196673572
8.822960622e-05
0.0001003599531
-0.0001199001788
-0.0001004132953
6.14463189e-05
5.850720199e-05
-0.0001007703809
4.488469927e-05
0.0001005336579
0.0002043236587
8.800670425e-05
-0.0001008776394
-0.0001034253527
9.954654784e-05
-0.0002060469576
-9.969863122e-05
0.0001044309349
0.000101768106
0.0001001253385
6.694543385e-05
6.421132913e-05
0.0002897978631
8.783439237e-05
-0.0001435960002
-0.0001461951399
9.883141637e-05
-0.0002910640521
-9.871647733e-05
0.0001467495721
0.0001441995409
9.942151572e-05
0.0001095557831
0.0001071357588
0.0003749659574
8.761553667e-05
-0.0001861551022
-0.0001887814048
9.731365458e-05
-0.0003753336892
-9.764045807e-05
0.0003756604927
0.0003021881386
9.860611151e-05
0.0002314357228
-0.00023143826
4.521768383e-05
-0.0001161926075
7.181104949e-07
-7.620888764e-07
0.0001162365859
0.0001155266929
-0.0002313956689
-3.792256948e-06
9.598879888e-05
-0.0004588328971
-9.610613456e-05
0.0004589502328
0.0003864563942
9.702569496e-05
0.0002746874328
-0.0002746874328
4.388505921e-05
-0.0002746874467
1.475467812e-06
-1.475453285e-06
0.0002746874322
0.0001167867725
5.790609471e-07
-0.0005464518345
0.0002499591295
8.317895438e-06
1.464002749e-06
0.0001699573919
-0.001065964562
0.0005443578023
0.0005303600992
-8.385711211e-05
-9.485361961e-05
0.0004688699182
9.584465326e-05
3.44115199e-05
-3.427771879e-05
8.827377327e-05
4.209413427e-07
-4.419178639e-05
-4.311015735e-07
-3.410362681e-05
-0.0001004984587
3.383170466e-05
-9.979665776e-05
-4.17888412e-05
0.0001004245691
1.436459307e-05
-2.039840434e-05
-1.433629951e-05
2.037011077e-05
-2.116766258e-05
-2.791786483e-05
2.117539286e-05
2.791013455e-05
-0.0001198331499
-0.0001122059686
0.0003800126755
-0.0002279610805
-0.0003805359116
0.0002285956765
-0.0003829928453
9.968220712e-05
0.0003814198658
0.0003970622251
-0.0003979399201
0.0003537528538
-9.999513223e-05
0.0001000105446
0.0002043082463
0.0001001695791
0.0001301645201
-0.0001001443047
1.590606256e-05
-4.176573586e-05
-1.588419527e-05
4.174386857e-05
-1.470586232e-05
-3.193492514e-05
3.207017024e-05
1.457061722e-05
-0.00020595241
-0.0001116885075
0.0003789249336
-0.0003998975119
-0.0003792202695
0.0004001971824
0.000271898751
0.0003797120403
0.0005683175674
-0.0005688207185
0.0003547463035
-9.97838174e-05
9.979998313e-05
0.0002897816973
0.0002149464602
-9.99760575e-05
-8.79737696e-05
0.0002472397804
8.799443886e-05
-0.0001222708302
-0.0001249896194
-2.478919601e-05
-6.280960962e-05
2.471618268e-05
0.0001249771143
-6.209449136e-05
2.471422037e-05
-5.264879432e-05
0.0001060746468
-2.473833157e-05
-5.340174125e-05
1.406289895e-05
-6.341299772e-05
-1.41391572e-05
6.348925598e-05
-1.465913989e-05
-5.305096373e-05
5.281159782e-05
1.489850581e-05
-0.0002909913668
-0.0001108257905
0.0003780939793
-0.0005688174589
-0.0003782878606
0.0005698395288
0.0004422561944
0.0003786533032
0.0007392243184
-0.0007391730728
0.0003552174599
-9.956340512e-05
9.958349493e-05
0.0003749458675
0.0003004519518
-9.974873713e-05
-8.762894478e-05
0.0003324917619
8.772936936e-05
-0.0001649865858
-0.0001676056007
-1.20049446e-05
-8.421550524e-05
1.202200038e-05
8.419844946e-05
2.463523249e-05
-7.414935117e-05
0.0001489411096
-2.460404308e-05
-7.482294782e-05
2.65682473e-05
-0.0001681639679
-2.667213411e-05
0.0001682678548
-2.708539932e-05
-0.000149874999
2.674314138e-05
7.55312309e-05
7.468602604e-05
0.0009102452391
0.0003557020297
-0.0004498234795
-0.0004604674213
-9.950085897e-05
-0.0002289526279
9.940847353e-05
0.0004604807362
0.0003857144057
-9.954791227e-05
-4.524295323e-05
0.0002103004829
-0.0002103303861
4.527285642e-05
-1.218476795e-05
-0.0001054727931
1.218858881e-05
0.0001054689723
1.215467852e-05
-9.543245988e-05
9.539271545e-05
-1.21149341e-05
0.0001065428421
2.293085756e-06
-0.0001062477046
-2.588223237e-06
2.567545328e-05
-0.0002105140875
-2.566547402e-05
0.0002105041083
-2.620679496e-05
-0.0001920511278
0.0001920751381
2.618278461e-05
0.001040928755
0.000352556465
-0.0004960835821
-0.0005464518345
-9.684645183e-05
-0.0002717644017
9.684645181e-05
0.0005464518345
-0.0002370279565
0.0004709101086
-9.949689321e-05
-4.521077774e-05
0.0002528642251
-0.0002528422729
4.518882555e-05
-1.195384716e-05
-0.0001266755025
1.186500423e-05
0.0001267643454
1.211137927e-05
-0.0001164756321
0.0001164399945
-1.207574164e-05
0.0006318570267
-0.0006318570267
8.474617059e-05
-0.0006318570267
-7.317884883e-08
7.317886236e-08
0.0006318570267
0.0002771003662
1.475473123e-06
2.176508151e-05
4.2459015e-05
-2.181580521e-05
-2.083481416e-05
-2.157347715e-05
-2.183295199e-05
6.111484374e-05
2.179140795e-05
-3.021637276e-05
-3.085692694e-05
2.125324155e-05
2.2123845e-05
-2.225882201e-05
-2.111826455e-05
3.987768568e-05
-3.990158815e-05
2.178898398e-05
-3.119500196e-05
-1.478487927e-05
3.127401891e-05
-2.100443161e-05
2.103324994e-05
1.433577474e-05
-0.0001005310888
-8.790858615e-05
0.0001004490111
4.545263736e-05
4.253802645e-05
-3.094439691e-05
2.167411973e-05
3.086469564e-05
-4.259885006e-05
1.528845377e-05
-3.115512988e-05
-1.532832585e-05
-5.197702324e-05
2.467849535e-05
0.0001034178077
-5.14050594e-05
-8.492936977e-05
2.467558825e-05
8.49314632e-05
-2.467768168e-05
8.811327865e-05
0.0001725667464
-8.810164307e-05
-0.000172578382
2.166405516e-05
-2.169837734e-05
-4.214058553e-05
-4.275446205e-05
-1.12860046e-05
-5.198216883e-05
1.129115019e-05
6.373842192e-05
-2.185939911e-05
-3.148066843e-05
-3.223130637e-05
8.235658972e-05
2.170316523e-05
-4.089816819e-05
-4.14975316e-05
-5.227798576e-05
-1.440872125e-05
5.202756712e-05
-4.269065722e-05
4.264253663e-05
1.595418314e-05
-5.14770883e-05
-8.572914635e-05
8.575767667e-05
5.144855797e-05
-1.646183746e-05
1.645147847e-05
-4.268029823e-05
1.522102871e-05
-5.243337221e-05
-1.506564225e-05
1.520423768e-05
-3.185070905e-05
-4.180820669e-05
-1.641936664e-05
-8.29151728e-05
-5.148437893e-05
8.292246343e-05
-7.343599474e-05
2.461744474e-05
0.0001462073539
-7.275357144e-05
-6.351292637e-05
0.0001277759191
-2.476842252e-05
-6.42837662e-05
0.0002580114158
-8.788739902e-05
-0.0001277365131
-0.0001303612733
1.137799709e-05
-1.138069206e-05
-6.35102314e-05
-1.116577767e-05
-7.345214642e-05
1.118192935e-05
-1.128032828e-05
-5.265447064e-05
-6.275371815e-05
1.132210563e-05
-0.0001470094444
-2.708228108e-05
7.383720396e-05
7.316912215e-05
-6.400177927e-05
6.400367353e-05
1.406100468e-05
-9.895421101e-05
-0.0002590418814
9.890936364e-05
0.0001307787941
0.0001283079347
-3.030111226e-05
6.446972583e-05
3.017749257e-05
-0.0001283478854
2.999200641e-05
-0.0001469685507
-3.00329001e-05
1.537264492e-05
-5.320257995e-05
6.262744643e-05
-0.0001258023894
-1.488768183e-05
-1.565148523e-05
-0.0002484774358
-9.91976738e-05
0.0001256687659
0.0001230521327
-9.474481541e-05
1.219988593e-05
9.469960799e-05
-8.486642338e-05
8.482963706e-05
-1.196815829e-05
0.0003428921851
-8.770118778e-05
-0.0001701621816
-0.0001726577605
1.13135188e-05
-1.12993605e-05
-8.488058168e-05
-1.150597397e-05
-9.479136984e-05
1.15525284e-05
-1.115172604e-05
-7.41634028e-05
-8.426110341e-05
1.135911696e-05
-0.0001894960428
-2.626400799e-05
0.0001895532558
-0.0001709805725
0.0001709973283
2.655149156e-05
-0.0001160513111
1.213259356e-05
0.0001160300968
-0.0001062217288
0.0001062295562
-1.219259537e-05
0.0002129109729
-4.523632346e-05
-0.0002129176027
-9.578418961e-07
-0.0001064913583
0.0001061630576
1.286142578e-06
1.145965938e-05
-1.143293608e-05
-0.0001062484521
-1.124037043e-05
-0.0001160795939
1.126865319e-05
-1.14662637e-05
-9.547217014e-05
-0.0001054526567
1.143952293e-05
-1.510178162e-06
0.0001070951784
4.783920997e-05
-0.0004591393594
-4.791541687e-05
0.0002307828976
0.0002284326687
-0.0002129709366
0.0002129432495
2.570314037e-05
2.28697823e-06
-0.0001064852508
-0.0002769175424
-2.344118199e-05
0.0002757438052
1.297168207e-05
1.164323716e-05
-0.0001273782822
0.0001273787956
-1.195436057e-05
0.000255450862
-4.526199081e-05
-0.0002553996489
1.787547224e-06
-0.0002528395061
0.0002531116438
-2.059684851e-06
1.016689974e-05
-1.022975531e-05
-0.0001273154266
-1.965412077e-05
-0.0002768101096
1.085056464e-05
8.696123347e-06
-1.123525049e-05
-0.0001164807521
1.007985143e-05
-0.0001265884542
-0.0002504170818
1.372722738e-06
0.0002508319063
0.0002275131788
-0.0002281463144
0.0003522720598
0.0001001948996
0.0001196251499
0.0001003728416
4.538578835e-05
-0.0001003676235
-8.836500884e-05
7.718159469e-05
-7.715332964e-05
8.833674378e-05
-2.474996771e-05
2.474746615e-05
3.988018724e-05
2.476476297e-05
2.138750956e-05
-2.489903097e-05
8.138155685e-06
-1.514135254e-05
-7.279024549e-06
1.42822214e-05
-1.023936162e-05
-8.6429183e-06
1.031937058e-05
8.562909335e-06
0.0001619802928
-0.0001620178362
8.815082207e-05
2.468942908e-05
8.234274889e-05
2.477027767e-05
6.373940226e-05
-2.477125801e-05
2.944920282e-05
-8.010936369e-05
-1.44269455e-05
6.508710638e-05
-0.0003751476763
-0.000109722906
0.0003812302403
-0.0007323728855
-0.0003803938274
0.0007395071801
0.0006125551678
0.0003788331557
2.788954467e-05
-0.0001008185229
-1.007860978e-05
8.300758804e-05
1.406352174e-05
-0.0002001259552
-1.423152821e-05
0.0001004706916
9.982327011e-05
-7.570440676e-06
-9.577566295e-05
9.576641208e-05
7.579691546e-06
1.919996498e-06
-0.0002501554757
-2.181602595e-06
4.952106187e-05
-0.0004994925225
-4.860047795e-05
0.0004985719386
-0.0004692148851
4.779068246e-05
0.000235849993
0.0002334134196
2.475347093e-05
6.113165047e-05
4.246397059e-05
-2.47549233e-05
8.741085537e-05
-8.829941851e-05
-8.74764457e-05
4.875875101e-06
2.662683398e-05
-4.819311459e-06
-2.668339763e-05
1.052592086e-05
5.646071512e-06
-5.51965258e-06
-1.065233979e-05
1.496123691e-05
-5.464044626e-06
-1.505226608e-05
5.555073797e-06
-3.112889684e-05
3.091480275e-05
-2.095356849e-05
1.961160785e-05
-3.995930706e-05
-3.099510205e-05
-7.700402396e-05
-0.0001002937309
3.975232152e-05
3.701434453e-05
-9.528157919e-05
-7.654902414e-06
9.536604092e-05
-8.729608477e-06
-9.070516231e-05
9.09964679e-05
8.438302887e-06
-9.820873253e-05
-0.0003436798566
0.0003438992827
9.798930646e-05
-2.966041828e-05
2.956239442e-05
-0.0001708825487
2.923595685e-05
-0.0001894109721
-2.932102749e-05
2.98755008e-05
-0.0001497584934
-0.0001681518502
-2.967253604e-05
-0.000333508568
-9.8343422e-05
0.0003336432574
-1.930638983e-06
-0.000111939965
0.0001123158513
1.554752764e-06
0.000120775175
-2.870470396e-06
-0.0001206994409
2.794736254e-06
-6.438421031e-07
-0.0002411057898
4.814140714e-07
0.0001208281205
0.0001204400973
2.389399868e-06
-1.407683737e-06
-2.361603597e-06
1.379887467e-06
2.40286495e-06
3.966384152e-05
-1.920997909e-05
-2.175277294e-05
9.414164117e-07
-2.045370848e-06
1.823573618e-05
-1.869770014e-05
2.258580896e-05
-1.831851897e-05
-2.78976264e-05
1.829828054e-05
-1.713318601e-06
-5.248983282e-05
2.19595818e-06
-1.736621436e-06
2.791813181e-05
2.582568286e-05
-5.175273701e-06
5.238164354e-06
2.326509215e-06
-1.75714172e-05
2.570957289e-05
-2.789249838e-05
-3.196949515e-05
2.791615212e-05
1.631048468e-05
1.563535673e-05
-9.155408272e-06
7.156674736e-06
-1.557268367e-05
-9.204655524e-06
9.210819477e-06
-1.024552557e-05
-1.516231601e-05
-9.134444796e-06
-2.908781968e-05
-2.773588056e-05
1.483355239e-05
1.409764947e-05
-1.367244332e-05
-3.701651382e-05
3.701769528e-05
1.367126186e-05
-3.654498421e-05
-1.374740037e-05
3.661994127e-05
-1.393645862e-05
-5.874330484e-05
5.867450777e-05
1.400525569e-05
-5.832913849e-05
-1.405993755e-05
5.845261742e-05
-8.431675353e-05
8.735087821e-06
-8.056194093e-06
8.36378598e-05
-8.222016643e-05
0.000105220453
6.448916274e-06
-2.684062541e-05
-0.0001601402625
0.0001601493089
2.683157909e-05
-1.026663453e-05
8.980398246e-06
-8.093393015e-05
9.452276501e-06
-8.451374514e-05
-9.255284892e-06
-9.172080296e-06
1.474053038e-05
-7.359645791e-05
6.802800783e-05
-7.959940128e-05
-1.077659695e-05
-0.0001575952541
-2.68770675e-05
7.912863562e-05
7.850306053e-05
-0.0001009064243
1.187810225e-05
0.000100876637
-1.184831491e-05
3.337906009e-05
0.0002021397393
-3.338269568e-05
-0.0002021361037
-3.335959219e-05
0.0002103211364
-0.000210350474
3.338892971e-05
1.354266824e-05
-0.0002105707079
-1.365267033e-05
0.0002106807099
-0.0002027112224
1.388257804e-05
0.0001018107364
0.0001010814298
0.0001300299552
9.903408781e-07
-0.0001031307514
1.192997652e-05
-0.0001220448055
0.0001220168309
-1.190200188e-05
3.329366389e-05
0.0002447141314
-3.332807045e-05
-0.0002446797249
-3.333384812e-05
0.0002528257936
3.32293473e-05
-0.0001259992775
-0.0001267220153
3.334701503e-05
0.0002338080066
-3.338363391e-05
-0.0002337713877
0.0002420315099
-0.0002420310242
3.329317823e-05
-0.0001212300626
1.192038965e-05
0.0001212396494
2.058520163e-05
5.054154822e-06
-1.085638069e-06
-2.455371838e-05
2.587838544e-05
4.852397894e-06
-2.585490823e-05
-2.177731522e-05
5.053066759e-05
2.177270322e-05
-2.48859303e-05
-2.564012529e-05
-6.024145058e-06
6.049811433e-06
2.585271906e-05
5.98993393e-06
2.070734481e-05
-6.112077108e-06
-5.295394452e-06
4.027433401e-06
3.068932191e-05
-2.942136086e-05
2.658472116e-05
-5.982032232e-06
5.327037935e-05
-2.170762833e-05
-2.636862494e-05
-2.69714413e-05
-2.183306375e-05
2.961166733e-05
-2.959656686e-05
2.181796329e-05
-6.179945066e-06
6.153407081e-06
1.49877749e-05
6.691067933e-06
1.016717685e-05
-6.332323928e-06
-2.007429016e-05
5.95613129e-06