/*--------------------------------*- C++ -*----------------------------------*\
| =========                 |                                                 |
| \\      /  F ield         | OpenFOAM: The Open Source CFD Toolbox           |
|  \\    /   O peration     | Version:  v1912                                 |
|   \\  /    A nd           | Website:  www.openfoam.com                      |
|    \\/     M anipulation  |                                                 |
\*---------------------------------------------------------------------------*/
FoamFile
{
    version     2.0;
    format      ascii;
    class       volScalarField;
    location    "1.94";
    object      omega;
}
// * * * * * * * * * * * * * * * * * * * * * * * * * * * * * * * * * * * * * //

dimensions      [0 0 -1 0 0 0 0];


internalField   nonuniform List<scalar> 
12556
(
31.93135292
31.93228926
31.93323979
31.93406389
31.96672392
31.96769535
31.96871574
31.97080666
31.9747375
31.98077728
31.9882818
31.99467536
31.99663788
31.99423653
31.98773007
31.98053655
31.97489423
31.97073714
31.96898179
31.96759074
31.93367286
31.9325102
31.93148601
31.93055057
31.79599158
31.79860376
31.80110546
31.80323835
31.83690572
31.84062363
31.84681479
31.87141131
31.8901473
31.91923333
31.95540613
31.98904891
31.9998951
31.98639125
31.95495612
31.92064702
31.89264626
31.87402366
31.84712439
31.84015449
31.8030539
31.79948673
31.79634132
31.79359595
31.66250515
31.66714121
31.67152648
31.67527163
31.70983609
31.71822196
31.73300365
31.77038901
31.8152676
31.88039491
31.9580727
32.02648125
32.05463714
32.02457139
31.95702251
31.88041694
31.8185583
31.77524184
31.73220746
31.71700491
31.67529739
31.66919231
31.66366967
31.65905674
31.53059552
31.53655042
31.54237164
31.54809394
31.58609958
31.60254816
31.63443465
31.69619396
31.78506434
31.91317615
32.0657118
32.20879184
32.27481301
32.22037897
32.07362378
31.91274986
31.78361424
31.69964782
31.63020729
31.60142517
31.55148365
31.5415859
31.53330737
31.52665521
31.40072812
31.40851302
31.41644195
31.42591088
31.46802674
31.4970293
31.55695867
31.65649983
31.82502361
32.07514713
32.4060529
32.80324799
33.02814164
32.92341954
32.50892589
32.11770339
31.8232269
31.66011187
31.54782591
31.49543215
31.43189101
31.4168185
31.40522743
31.3962477
31.27169105
31.280906
31.29104846
31.30518373
31.35695386
31.40570438
31.50742491
31.66725979
31.96261551
32.44552754
33.28504674
34.79434882
36.01708324
35.4485234
33.82025913
32.70845759
32.00575839
31.67011958
31.48744432
31.40131349
31.31731528
31.29432482
31.2784386
31.26686847
31.14514524
31.15636293
31.17021265
31.19187342
31.25414557
31.32941532
31.48461306
31.74177856
32.23077879
33.13509503
35.33114051
42.83974944
50.56799761
46.8251797
37.48342606
34.01607683
32.41202383
31.75400199
31.45118782
31.32087912
31.20822829
31.17457326
31.15332255
31.1387904
31.02030389
31.0334125
31.05129981
31.08254741
31.15955717
31.26804509
31.49317924
31.87712963
32.61902258
34.14386211
38.81047419
63.31922754
82.28460589
45.86204785
36.37840974
33.09124936
31.92101433
31.44147855
31.25264563
31.10543826
31.05811584
31.03005052
31.01213803
30.90027099
30.91635794
30.94042229
30.98437191
31.07453989
31.22079024
31.52934889
32.05773174
33.06788776
35.17674796
41.8216388
78.81784664
162.3140485
57.88225369
39.5802436
33.99727843
32.15531426
31.45183038
31.19529446
31.00934629
30.94607277
30.90997079
30.88835866
30.78530401
30.80394943
30.83390765
30.89095784
31.00006312
31.18637985
31.58621624
32.25755016
33.49877148
36.00475292
43.53959139
84.91615749
202.7278049
68.14416814
42.70129624
34.90737896
32.40854415
31.48012203
31.14742765
30.92069445
30.83977549
30.7946533
30.76870018
30.67877349
30.70112126
30.73894928
30.81203887
30.93535151
31.1626794
31.65357469
32.45321059
33.86664652
36.62204289
44.74062756
94.48906272
201.2376388
73.74015655
44.77792523
35.61653246
32.63923045
31.5138442
31.10697733
30.83940606
30.74049376
30.68562464
30.6552006
30.57872656
30.60404411
30.64838977
30.73612334
30.87852435
31.14759222
31.7231529
32.62937592
34.17250786
37.11764376
45.88842632
105.8991227
184.878992
75.0840531
45.66962475
36.03251422
32.81395761
31.5424093
31.0706856
30.76553343
30.64821208
30.58383854
30.54838317
30.48800581
30.51723886
30.57057223
30.67438205
30.82698122
31.13635395
31.7821776
32.78724129
34.41774822
37.53135474
47.27546552
115.10325
878.7241671
157.6916386
73.55832594
45.62038666
36.12722777
32.91431555
31.55781377
31.03466179
30.69601687
30.56270724
30.48836753
30.44843022
30.40201292
30.43456017
30.49555119
30.61209394
30.78826971
31.14212327
31.88227414
32.9602508
34.68043051
38.02428498
49.33899802
159.6065086
538.4799862
146.7722808
70.99979572
44.74421083
36.00732687
32.96213371
31.55564895
30.99575269
30.62786771
30.48156755
30.39808266
30.35339524
30.32218774
30.35793695
30.42554635
30.55278559
30.74272
31.13027896
31.94117251
33.17432375
35.14575067
38.85080276
51.35865071
383.4756504
383.4566271
134.6679527
66.33231253
43.51048255
35.74998828
32.96524987
31.53386357
30.95051868
30.56055108
30.40296705
30.31109049
30.26282653
30.24251393
30.28114072
30.35443365
30.49165653
30.69524711
31.11043079
31.98035678
33.4604041
36.02305362
40.86194598
58.82943732
752.5151415
308.8640938
115.2360556
60.12857558
41.91536639
35.45104866
32.9165257
31.49088362
30.89730624
30.48938996
30.32293383
30.22445189
30.17241832
30.16516695
30.20657461
30.28427145
30.42871414
30.64301387
31.0803963
31.99486594
33.70492302
37.36262004
45.70055279
103.5792226
990.3338755
204.4110782
91.25251639
53.63528924
40.35287744
35.22361692
32.83828979
31.43013247
30.83522291
30.4149837
30.24205586
30.13782587
30.0827184
30.08334533
30.12718224
30.20853634
30.35958067
30.58414985
31.03813721
31.98865668
33.79056185
38.66501438
57.69972288
391.1577756
529.5677572
143.5963643
73.46844718
49.08570291
39.44609628
35.0534113
32.73920695
31.35308346
30.76109258
30.33267463
30.15490614
30.04703735
29.98948862
30.00157522
30.04775242
30.13188458
30.28679532
30.51775809
30.98379099
31.96252528
33.83167426
39.17852332
75.50547641
594.0021503
250.4072305
113.3734606
65.37489223
47.39890529
39.09426129
34.87319097
32.62369692
31.26388711
30.67731445
30.24495064
30.06438992
29.95390918
29.89504283
29.91245398
29.96049928
30.04712496
30.20611577
30.443878
30.91836577
31.91875309
33.84656083
39.62528732
83.70940586
550.4294708
219.0898295
106.4764981
63.97238731
46.78279397
38.78483186
34.69128788
32.49833412
31.16526016
30.58488739
30.14950106
29.96682543
29.85470737
29.79514466
29.82353227
29.87319758
29.96170155
30.12234724
30.36286767
30.84341698
31.86106045
33.84234435
40.11569528
89.26205158
506.6065497
206.7035185
103.1614551
63.09389608
46.30007962
38.5070979
34.51344356
32.36766767
31.05948314
30.48502655
30.04969491
29.86658078
29.75370781
29.69384635
29.72589962
29.77656899
29.86682108
30.0302316
30.27554474
30.76063273
31.79247375
33.82470899
40.72029085
92.76159247
467.9529268
196.8502955
100.4967811
62.40427684
45.93341552
38.26369922
34.34331205
32.23503893
30.94845305
30.37910985
29.94286014
29.75909386
29.64589175
29.5861483
29.63065192
29.68200897
29.77331086
29.93691649
30.1825571
30.67146714
31.71568233
33.80140658
41.49651397
94.76109276
434.2752334
188.8362554
98.28592188
61.83882816
45.6597997
38.0571575
34.18380891
32.1031197
30.83387935
30.26849862
29.83418501
29.65128104
29.53830171
29.47889305
29.52571667
29.57722264
29.66955105
29.83518911
30.0849476
30.57724424
31.63353425
33.7838007
42.34358463
95.62753407
404.5127841
182.1757426
96.41649653
61.36490967
45.45092335
37.88576993
34.03690538
31.97398361
30.71732618
30.15451558
29.71933611
29.53615545
29.42339633
29.36455292
29.42670198
29.47815293
29.57077949
29.73543288
29.98347898
30.47935228
31.54909475
33.78442648
43.12434733
95.72438034
378.0898232
176.3907388
94.80695013
60.9612049
45.28650159
37.74437472
33.90312828
31.84898565
30.60006717
30.03824798
29.60572492
29.42398719
29.31184524
29.2536248
29.31617198
29.36721742
29.46036074
29.62684935
29.87941247
30.37907849
31.46511385
33.81093417
43.77701343
95.23952397
354.498358
171.2599247
93.39953324
60.61275348
45.15431131
37.62713463
33.78176829
31.72875758
30.48302371
29.92067657
29.48576297
29.30336691
29.19152861
29.13401202
29.21629302
29.26687306
29.35983122
29.52447215
29.77328404
30.27746428
31.38365561
33.86064243
44.29234782
94.30825403
333.252527
166.6399024
92.14914904
60.3078664
45.04695286
37.52931096
33.6716171
31.61346026
30.36685089
29.8024764
29.37070077
29.19002264
29.07887524
29.0220265
29.10126683
29.15117467
29.24437457
29.41112627
29.66623827
30.17527408
31.30604677
33.92389773
44.67811593
93.05742998
314.0920587
162.4196392
91.02466942
60.03854052
44.95981354
37.44739277
33.57141701
31.503002
30.25197986
29.6843164
29.24728932
29.06512989
28.95415586
28.89798707
29.0032831
29.05256668
29.14534073
29.30958539
29.55826333
30.07309658
31.23300131
33.99139712
44.95582608
91.59302963
296.6502172
158.5408831
90.00642018
59.79931966
44.88945116
37.37865418
33.48002074
31.39719949
30.13871029
29.56649652
29.13385063
28.95365848
28.84330023
28.78773382
28.88380898
28.93232595
29.02518432
29.19203461
29.45051508
29.97141583
31.16463094
34.0564255
45.14558079
89.99914957
280.6600249
154.9430369
89.07472419
59.58459105
44.83266324
37.32083131
33.39638026
31.29581066
30.02723634
29.44953261
29.0071376
28.82441791
28.71404369
28.65907025
28.79051275
28.83839454
28.93077272
29.09468951
29.34243329
29.87064665
31.10049407
34.11399857
45.25937335
88.32179747
265.8980344
151.5779516
88.21035546
59.38859025
44.78643431
37.27198006
33.31954222
31.19856757
29.91769327
29.3334295
28.89862581
28.71811501
28.6081805
28.55368772
28.66546905
28.71257066
28.8048918
28.97175745
29.2355275
29.77115847
31.03981137
34.16038284
45.30368498
86.56704899
252.2070791
148.4023032
87.39720925
59.20598298
44.74797182
37.23038262
33.24864143
31.10519233
29.81018808
29.21874878
28.76686281
28.58286239
28.47275291
28.4187351
28.58013321
28.62666999
28.71861224
28.88274654
29.12858872
29.67328636
30.98185347
34.19408892
45.28736957
84.77574788
239.4650675
145.3831445
86.62173189
59.03189263
44.71473327
37.19452263
33.18289592
31.01541387
29.70487015
29.1052606
28.66793002
28.48597122
28.37601652
28.32232547
28.44703146
28.49279516
28.58451446
28.7509477
29.02405885
29.57747834
30.92607066
34.21582532
45.22709228
83.01622612
227.5963345
142.4960809
85.87295051
58.86229205
44.68456169
37.16309153
33.1216142
30.92900383
29.60205481
28.99402033
28.52639476
28.34097409
28.23075613
28.17741893
28.37369399
28.41903598
28.51057122
28.67634253
28.92019685
29.48443706
30.87226163
34.22658726
45.13376955
81.31246005
216.5198813
139.7287166
85.14446349
58.69425116
44.65561076
37.13489731
33.06413886
30.8456881
29.50253216
28.88509777
28.44480096
28.25936459
28.14895141
28.09575747
28.20399956
28.24845862
28.3397297
28.50756629
28.82203928
29.39570192
30.82091063
34.22657042
45.01254619
79.67289036
206.1689391
137.0807361
84.43581392
58.52636289
44.62626025
37.10888826
33.01001239
30.76539108
29.4083719
28.7819441
28.26314863
28.07377392
27.96270676
27.90974178
78.02590117
193.3482572
93.72319268
84.0835686
246.2410551
200.8606878
93.11492363
240.1262908
248.0304306
104.5925927
214.5339978
236.8893737
114.0546072
1087.628766
917.6549516
191.9251982
211.0543771
140.4389105
663.233377
1062.937853
562.5495007
186.5333013
189.7493754
59.88377755
49.91202606
85.42699138
46.2921359
635.929733
208.2964863
153.1917648
64.05940555
50.90813444
43.20285209
71.78145917
67.78148922
2205.26613
1563.774622
200.4206696
79.36286915
68.42323014
44.49417124
77.4087807
72.34957322
87.88669596
249.5765895
227.3860173
1183.415712
1676.651627
202.7997195
87.56454283
82.13521922
45.67590502
85.86500068
78.33615027
98.5934198
347.6064052
282.7872746
636.9458794
863.1563638
47.02046141
96.48774789
86.90618018
107.6447416
514.4315216
418.1461499
2660.134705
405.9519194
473.0938902
48.97594626
116.6183785
98.05438115
123.122776
1073.479218
721.033447
153.1425978
498.9618175
653.2401223
199.4287193
230.7125488
121.2124369
192.9284009
1522.581841
672.7456069
150.8432427
534.0638035
1052.164552
224.6925735
206.690764
81.58245064
268.8913679
279.7163795
236.3812957
266.1551494
1698.910948
2205.259058
226.5159761
1510.955243
1284.087585
1087.617995
1507.662578
223.6236123
279.7285612
253.2591948
89.06805758
321.1184679
362.4308569
281.7258492
317.9670432
905.3864908
1155.699183
246.4185536
860.6844975
666.4346157
1268.480392
895.3731294
247.9526335
414.0703268
350.7980804
99.97298782
425.1554938
521.4741728
365.1396853
421.3808983
487.6837698
611.7950467
710.8634531
523.5314775
107.9253887
3605.128175
702.4802088
1046.698731
526.3178721
687.1479357
4010.90005
371.516326
399.0154208
2350.14489
8555.875126
1081.615828
124.4138258
763.6077959
1672.26832
7808.001705
1054.818584
1646.502453
785.4153593
41.22783635
67.0265031
55.82973033
72.0734352
157.0804524
104.962862
3964.467504
699.769339
81.10391
204.4515548
182.9630948
6503.041088
187.4118247
89.71578855
88.6225197
6186.094127
918.9132592
1025.029538
690.2229438
328.2816969
358.5653038
180.2699653
160.9839664
74.0199036
1472.086116
296.3615002
667.3065284
172.3119273
470.7775635
138.8988935
1046.948675
1354.563873
223.8754595
503.6498392
427.9647573
643.0544211
518.0109499
227.4678215
1585.535298
4830.920015
934.8857207
84.3309925
67.12488506
109.3279072
180.1220377
80.83108851
86.72866558
5626.00591
441.4131292
3920.523181
511.0524331
2857.561947
396.4200568
1792.694016
1768.894004
1384.455372
1418.940439
2665.695511
5536.317156
721.6515549
3252.173507
1724.671667
6268.310151
3763.668745
754.7613627
452.6054469
183.0859513
190.4921009
770.0577317
875.1471574
5639.19581
774.0530159
232.9071237
245.6074296
217.5980546
228.103671
771.2602097
1344.868846
1474.122863
213.7044682
956.218345
794.1398153
1408.800129
956.029732
217.6253295
158.3824542
493.0430099
234.2834863
708.8174837
526.1913954
170.0374918
697.1739964
999.7868431
1065.636045
1007.884378
268.2180945
1509.773893
268.5236602
251.0767999
1473.977268
1426.765183
1505.777441
1479.282927
255.0143012
1819.411514
1840.730711
1377.885635
451.5894829
441.0851886
452.5267725
453.3026237
1366.000889
1280.390506
402.0988094
367.8840596
435.3272428
412.2323679
1303.169477
340.02569
342.7048425
296.9870587
299.2098524
966.5577964
6491.660434
985.7808352
453.8354146
460.3417526
392.754616
396.6030096
1625.035014
1170.859079
549.7034551
1440.222823
2460.09678
573.1047885
204.4852558
213.9994621
193.172966
201.5359212
564.8702409
1764.409979
745.0773744
756.9835392
561.2902423
565.6600774
6321.13154
1295.649526
657.8233575
738.3548362
251.041601
261.0515178
1316.268133
2653.314367
2277.159174
3305.327935
1087.231703
6902.252016
3544.509031
5992.334181
1083.329848
885.812941
4453.960082
2740.446255
4695.377586
2510.594431
3341.387109
50.44894552
118.8792677
119.0265801
171.5660087
4247.604264
7965.430543
401.7855875
170.6382746
182.6417407
1372.735953
3772.595527
4983.256686
571.8224841
632.0239427
1211.609248
300.0944713
318.4227493
671.2833071
175.171343
128.6849385
266.6533495
548.4544966
159.0342667
188.6287882
2078.140708
5248.165392
5388.974354
1667.367941
1271.634875
3701.757558
2646.845951
6260.250706
6116.040327
1593.249326
322.0451719
153.660948
158.2924101
147.975713
152.1903753
316.3602936
174.4531582
180.9037711
448.1994729
993.3856612
411.6009556
429.2570164
6630.309889
3499.642468
607.649797
1320.708193
4830.978484
5248.322084
722.6918766
293.8009938
245.161387
353.8209739
310.4619068
757.6797203
1753.856417
6209.748841
6273.232718
2087.718101
267.6630474
142.7692465
146.6488548
713.5259709
701.4011559
353.6729275
2490.885329
2270.79874
1082.245271
771.0894148
398.9733921
416.2179947
1118.602022
441.4396179
450.6471205
422.2766583
436.8551298
1095.145726
378.4178397
166.7761068
172.4747582
159.9034008
164.9797665
374.2092729
436.5223173
1007.970133
999.2118057
1568.959242
1525.001395
501.4772616
375.7363865
748.5211659
715.5348152
995.4498039
989.574697
410.6025508
531.2318419
1125.36067
906.9537259
6396.276664
2682.371027
724.442283
889.8695687
540.8082838
1599.784965
1575.910773
1603.651077
606.9531525
5468.160047
8642.951955
325.8643642
365.3705149
435.7647089
451.3821684
1087.40331
2533.14918
1559.247764
704.3425946
1686.806942
8423.708205
2331.898897
2146.925934
15849.0943
1063.890234
1569.17471
2407.872997
2955.638318
2186.662274
6471.283945
6574.760207
1654.786044
2210.421539
6371.020158
1514.506615
1451.19248
455.594367
1726.369041
708.1833593
1694.543828
498.4475013
4972.753229
3652.854311
1188.540457
5662.815242
6470.395475
5041.89356
3809.394014
1312.73234
5180.736318
6268.718432
3773.489725
4953.270194
6639.222994
2639.363413
3435.863093
1907.946802
2384.148714
5969.232857
5872.9013
1611.049404
973.8372805
2669.757677
1779.690095
873.3969244
539.9061726
1613.465649
5575.484432
7165.192445
1975.286821
1691.425165
5447.978765
5581.766472
4095.077999
3821.73237
1304.365892
6360.519492
6259.139009
4719.675792
6180.474288
6220.011065
1547.560529
6234.653092
4208.649559
3868.933097
4324.056429
2401.33615
1095.274794
1188.003908
4883.215018
1399.388034
1594.095928
1225.592951
1341.124131
4612.080751
4334.990229
1264.241749
1513.278714
385.9563682
405.5639209
906.7662181
745.5779674
367.1422851
381.0925218
1444.735758
1454.441168
950.3829258
363.3639289
383.63454
337.9584956
357.3709329
944.3690184
999.0420416
426.9342062
461.2339406
390.6715872
416.9156194
1006.545067
645.1427331
310.9111141
332.1121587
922.0932564
953.5502916
3464.551375
3597.335716
1251.393203
5080.749225
5223.334281
6569.988785
3587.248085
2978.391462
5098.886089
3539.53515
841.7109951
2470.069901
3314.937782
1542.665659
557.8647028
620.9549827
534.6165415
547.4287643
1510.640989
667.6525327
676.7954343
641.4311135
664.3534089
1459.432927
489.0733086
500.8765305
469.3679923
484.9000938
1452.517159
1494.319698
519.6419645
530.4380975
504.7162688
515.9598104
1493.032624
6063.309422
6158.546909
1771.489727
1999.847876
6354.061023
6033.633289
968.2132915
971.6935085
944.9853716
967.1369776
982.06543
993.1420407
973.0892071
979.8233758
691.2386241
700.3327283
679.6433937
688.1704625
738.2679013
903.8525657
704.8363668
716.3521332
2113.365394
2499.377088
1665.051253
1959.421289
6760.328377
4018.955521
4426.307214
2683.584764
3870.94408
1020.104489
1013.336038
440.6376418
1600.158392
1604.293959
1570.251783
1591.519892
1647.214798
490.8998489
1490.441128
1071.200945
962.1423351
768.4671437
379.6866914
1038.734831
1481.004847
993.6714867
1048.406458
1537.516322
1559.325052
1499.762844
1528.353366
407.1037122
987.8551201
979.432685
6539.415565
1727.407647
6491.203688
5659.719888
6469.240182
1858.455561
6606.474657
2391.975169
6336.721951
5555.50785
730.7657031
808.0457383
1631.205463
1604.749762
545.3564342
591.604541
1692.211051
1633.613808
6279.43776
1125.455091
462.4992249
502.758343
6377.732677
7196.645618
1755.905782
7805.384129
5803.150558
2809.394221
1065.288533
6904.50698
4281.835527
7602.654819
4682.224871
1514.293545
75.84470342
47.06323855
38.90492861
6379.311352
6353.930433
173.830293
88.29284255
89.59962467
6594.523604
1240.193152
3507.00278
2672.152309
417.0943852
346.6886838
202.5454017
444.8613294
293.9866823
718.1559895
2613.160413
426.9038797
487.7994044
61.07215649
73.60129276
155.3020792
553.0389206
1136.364062
1695.439109
239.265249
133.0779861
136.7816925
127.9634822
131.8359391
236.1460941
1073.054912
1203.396974
3869.886115
865.0282776
758.5962417
442.0718651
350.3374082
362.9669974
740.807773
1848.444639
2374.389559
789.997035
137.9543208
141.5312469
264.0804681
329.401925
671.4287025
647.4476326
626.5370904
563.0840395
308.9857191
635.8126525
333.0259039
346.1364567
5102.173553
4823.629543
3290.283331
1608.284301
1587.55013
1025.4676
4479.33315
6233.024351
5664.385037
1718.161757
941.8866919
1045.428006
1675.230145
1059.380201
1640.026206
1627.781333
1645.567285
4274.714412
6303.000278
4337.720065
4728.166847
6129.006001
2008.01159
1594.582038
932.3682207
1487.307477
228.0720682
178.6844173
333.6302835
1146.843093
3176.598706
2236.267761
6412.304102
6744.241884
6884.311658
5759.956883
6576.559158
114.7494584
150.3758515
421.1414196
4561.712338
2952.026035
2261.889362
6175.076695
4709.597387
2940.975688
4974.335996
4593.673214
6809.720598
6469.741713
4939.337835
991.2420401
1070.100457
2196.592018
6424.182444
3733.662756
4126.375159
5029.328178
3391.117445
3838.89202
1392.510143
1815.905824
1469.326519
954.0413112
665.7170419
672.933867
1374.844396
879.5157259
920.2407271
678.1977698
687.0478396
965.8140823
276.6528222
304.4367035
619.0190294
778.7974088
1357.692632
1009.01323
1485.16804
1536.729001
1007.298778
1826.208403
1355.220769
1403.271125
974.1254518
975.2465136
1512.606686
1489.188962
1499.738559
1432.329332
1450.673177
1467.693182
946.0518049
948.2783314
935.7813752
939.6259379
1437.16728
1502.117387
967.0708531
969.5237503
950.8271638
953.489045
1484.020228
684.8201443
675.0775419
332.1008045
350.9832118
698.0971417
687.9633942
535.0580174
524.5743329
290.2453155
1524.210242
1525.633084
1503.01354
1506.200052
1851.511205
1530.890501
1531.418111
306.4108034
552.4898511
539.3384046
6493.996729
6430.398701
4312.117487
4554.586679
6449.53484
6499.318617
6718.889082
1059.522954
2181.70988
1807.523527
317.734221
328.8844801
609.2856754
548.4804482
305.6820694
314.605059
1053.938129
1054.029025
742.1777491
759.1939052
1060.75011
1064.943006
6285.330456
1390.60405
920.3098509
908.4734842
11534.21897
2169.131868
2653.196916
5289.673931
4522.175007
1702.320928
1682.907572
1074.159099
6685.681969
7251.751881
6944.784197
5555.166902
1137.584646
1744.230784
1692.254228
3559.473805
1409.396955
1718.741913
6262.381498
6190.115261
5053.521797
4742.880507
3041.727921
1537.819386
2280.183805
1977.123485
4243.695465
6351.021596
5573.410954
6435.747432
6191.941069
4686.719807
266.0166047
384.282658
1402.46846
5393.958568
5277.370783
5530.383733
5493.961761
5326.631604
3473.241441
3455.791317
3484.28941
3475.098962
5319.383065
6289.779956
3509.215239
3540.674829
3353.907021
3459.289733
6388.342017
5018.924115
3173.167911
2861.111734
3433.382996
3351.148678
5132.667279
6189.13439
3620.334704
3650.305996
3575.732163
3594.311744
6236.112305
5673.195821
5564.271193
5777.518547
5533.200778
1006.514768
714.9658936
718.1611717
1556.148856
1009.799201
1013.057942
985.4470872
1004.190126
1545.486736
6125.66445
6322.40315
5638.465101
6201.454284
1610.564942
1623.060228
1584.41934
1598.05307
2031.228252
975.0038113
1545.73592
1487.761064
1590.79345
1017.513922
1020.427353
1014.329541
1016.266177
1584.673366
1525.826721
1564.533982
1086.681692
1469.090946
2009.185958
6533.290616
6179.055982
4955.428863
6360.927415
825.387801
1141.859524
13023.79703
1089.699794
760.7534502
763.3074094
1691.496591
8117.636825
8423.255969
9773.737317
6264.620854
6036.011325
1654.445686
1643.785489
1059.882369
1613.509015
3462.936763
5202.274384
3595.248654
4550.982344
3533.329042
1483.738345
4752.092192
3527.598305
6528.958241
6781.339193
6333.448521
5057.989653
5653.916211
1484.429534
1792.059644
1630.125666
794.2233765
1009.701989
1491.033914
1570.551185
1034.663579
1465.352568
1924.924344
6295.217102
6505.421658
6215.759229
5752.764936
6524.405077
6470.097685
6338.708605
4164.748005
5638.303591
5204.410072
6283.376058
6487.552867
4555.726873
4828.381379
5249.157652
6537.409703
5424.36472
4109.694418
4403.249866
4337.502386
3054.608773
4284.139077
2251.998268
3321.401252
4541.596088
4995.747284
4551.039485
5782.742486
3666.093729
3488.060201
5007.415929
3613.408841
5363.395465
5473.736605
3494.059721
3488.043288
3513.273429
3489.071347
5507.49756
3990.738762
2312.87296
2357.321491
6293.51923
6286.283856
5465.507972
6614.274855
6406.760393
6317.809809
6303.391813
6546.563656
5283.888725
2787.475466
3119.985602
2423.401349
2550.294439
4542.191795
6481.808807
5540.215871
3373.957788
6788.292862
6505.124944
6485.238442
4526.067672
6490.617753
6277.748099
2841.857123
3229.291798
5594.453036
1427.053495
1466.493188
732.9344789
807.6903622
1330.93967
963.0951881
690.4756841
713.2192857
1461.579217
1432.823319
875.245512
1519.850854
1858.151422
954.3877572
1495.566012
1487.843017
3460.856804
2331.713587
2296.69074
2564.92042
2480.828952
3648.699407
5440.102345
5115.853744
3353.495053
5069.554965
5291.941397
4758.605007
5003.724048
3297.258099
4983.462647
4921.027367
6378.289133
4693.138586
1025.591141
1017.569916
1472.608811
1517.648517
983.8791612
980.0076314
1475.643797
1484.180589
1460.404751
1469.264742
943.4736441
945.0374663
1466.183016
1445.202922
941.0003684
942.1146841
961.0289506
963.4710101
1497.37511
1489.51666
956.3955506
958.8128176
6124.242938
3728.997156
3755.772246
3670.876394
3695.948731
6110.931155
6061.142343
4152.824693
4817.990017
3808.207327
3908.299931
6053.749463
969.4693302
1500.181214
1491.99772
1511.849368
1506.402331
970.4668387
960.7817848
1463.310139
1447.528561
1484.115776
1474.78036
965.2967654
986.0727167
1547.335754
1539.409612
1558.838879
1551.141685
987.9697505
974.8437085
1522.370739
1517.660774
1534.790789
1527.651653
976.7844431
1517.197463
1519.70865
694.1396449
972.6658481
971.1109306
976.7625546
975.5248523
697.6222265
1510.628767
1513.493045
1567.029925
1491.481633
757.7256049
1023.463165
1032.658617
1416.006542
1367.636952
830.4740786
706.7076352
981.4435749
981.0403904
986.5528495
990.360277
715.2399468
1539.146351
1532.588837
6400.165929
6266.98195
6553.635724
4845.599176
5566.50231
4161.854651
6388.151799
6460.334725
6382.814321
6393.307242
4252.199934
3011.752369
5558.107286
4789.955604
6258.230087
6396.312841
3510.588427
1024.142627
735.6590109
737.1118799
723.6945593
725.8664691
1013.651981
1600.500792
1612.299189
1575.037166
1589.176088
1560.296964
1960.626755
1432.590566
858.9823313
939.7690999
761.0830869
781.865048
1061.066284
1395.51574
1899.518261
1520.746538
1448.05392
1003.686325
1570.074356
1559.229741
1601.923591
1563.265563
999.8983538
1543.855121
1553.602627
1510.725308
1520.754036
6254.955393
4392.060023
4635.753212
3451.203275
3992.934256
6345.8911
6471.215513
6286.407258
4980.099982
5572.256587
6774.921197
6161.099295
4834.812741
5066.037112
4025.145387
4434.996158
6336.629828
1651.302459
1652.339322
1636.218069
1639.379974
1102.591351
1113.588674
785.9189554
1707.566124
1617.539161
1668.135555
1659.614031
1618.610715
1027.922582
1034.599938
1021.983447
1026.473604
1615.295934
1649.613534
1045.946448
1097.751537
1035.843764
1048.748346
1652.738829
6096.911228
787.5834148
791.6573664
1127.220624
6250.646313
8838.824026
9120.958336
8919.674116
8798.085873
6845.45267
1706.609909
6853.958704
5099.901328
5471.910939
1072.389667
1675.43048
1661.470694
6854.198716
7459.400426
7234.145212
5988.437072
6501.049071
7918.391888
7539.613662
5041.094399
7138.068003
6238.54632
2059.17894
1663.46377
1127.045006
31.79372806
31.81996791
31.88390782
31.83032583
31.8712156
31.9100418
31.88498238
31.93597786
31.94477553
31.95118124
31.99749146
31.97974673
32.00863233
32.0286066
31.99881134
32.02976402
32.0182764
31.99413493
32.00876368
31.96539726
31.9647869
31.95090265
31.90036125
31.9300228
31.88700952
31.84516685
31.89951467
31.83412108
31.80501727
31.87823802
31.71176444
31.76532956
31.80235671
31.78607243
31.86641581
31.86307377
31.8951333
31.99200813
31.94027013
32.02397091
32.11982882
32.01260026
32.14186712
32.18266963
32.05359177
32.18842363
32.17738162
32.0355864
32.15462454
32.05671435
31.9756387
32.02734027
31.92270602
31.8991482
31.89271365
31.81050316
31.83201724
31.78751607
31.7310234
31.78351934
31.66374416
31.76442655
31.7581021
31.80581833
31.9578619
31.87768799
32.01607453
32.21452648
32.02774104
32.28701815
32.52668972
32.17220698
32.57455036
32.71336963
32.27594412
32.75866728
32.73303117
32.24187273
32.66110411
32.43832955
32.12106226
32.365205
32.10182597
31.95174405
32.02743796
31.84754929
31.81211678
31.80110222
31.69369975
31.71745139
31.6590859
31.83959332
31.77472939
31.9161978
32.20324406
32.00466772
32.32528086
32.78848096
32.31670817
32.98554123
33.7823872
32.67595857
33.96591736
34.74661497
33.02423752
34.83894312
34.71998274
32.95158328
34.36254096
33.6505987
32.62925219
33.38578201
32.65560411
32.21221453
32.46598754
32.04264509
31.88347548
31.94047176
31.71499415
31.69390749
31.71669937
32.01837427
31.87408667
32.14742603
32.67899641
32.30192994
32.92592713
34.05919965
33.02673461
34.64976081
37.99184382
34.24863964
39.39547778
46.67086547
35.82100565
47.1027935
43.95285155
35.59584129
41.28894551
37.29944478
34.17735623
36.2465808
34.02769598
32.95221945
33.52167474
32.50672086
32.1422781
32.28178643
31.8214327
31.73204972
31.83511084
32.29778464
32.08209575
32.50326727
33.40332581
32.84603612
33.85909903
36.31067008
34.54461485
37.88385426
53.37680098
39.60819348
48.25563124
55.82736091
45.04535491
71.7160472
68.39295937
50.58319501
54.14734664
46.91692055
43.49741312
43.25404175
36.79072905
34.65073209
35.55931248
33.34426961
32.69679773
32.89575596
32.03855397
31.86645009
32.00873149
32.6627601
32.39012898
32.95543221
34.2607398
33.62834338
34.93690485
38.71802524
36.97281924
39.71169042
42.86221797
41.6548668
66.61531087
76.93998203
72.32602915
113.2377289
77.52024237
63.60763571
54.84049198
40.94906928
37.84562676
38.56118888
34.5120146
33.62994047
33.74752771
32.35547018
32.11237165
32.20883097
33.03266326
32.75618144
33.3973768
35.00145628
34.45529631
35.82364655
40.32338864
39.18744096
42.35349955
46.36166578
45.68476048
79.69437229
95.26957354
93.92619185
183.7714251
109.851931
98.29571231
65.9971321
45.31053033
42.23414222
41.75475249
35.78013918
34.87286883
34.68201483
32.71551847
32.44614045
32.4102439
33.36804132
33.11952846
33.78426851
35.58119536
35.15745635
36.48849318
41.38748502
40.61529864
43.8877742
48.32056656
47.86545461
85.82119161
114.1790256
110.85993
205.3776241
126.8859354
122.4932428
72.80622012
48.54113785
46.42876183
44.23689725
36.81265506
36.11775623
35.46144965
33.03909739
32.79782406
32.59994024
33.65518818
33.44069819
34.10697482
36.03806518
35.6978102
37.00986148
42.27319505
41.60279561
45.07752314
49.98290426
49.4822729
95.853061
130.6483148
127.4707503
196.0587879