/*--------------------------------*- C++ -*----------------------------------*\
| =========                 |                                                 |
| \\      /  F ield         | OpenFOAM: The Open Source CFD Toolbox           |
|  \\    /   O peration     | Version:  v1912                                 |
|   \\  /    A nd           | Website:  www.openfoam.com                      |
|    \\/     M anipulation  |                                                 |
\*---------------------------------------------------------------------------*/
FoamFile
{
    version     2.0;
    format      ascii;
    class       volScalarField;
    location    "0.99";
    object      p;
}
// * * * * * * * * * * * * * * * * * * * * * * * * * * * * * * * * * * * * * //

dimensions      [0 2 -2 0 0 0 0];


internalField   nonuniform List<scalar> 
12556
(
985.0928886
983.1367241
978.6289212
969.857113
958.1259752
933.957062
895.8983553
837.1994041
751.9870328
634.0288877
480.7791231
295.8219106
92.30633537
-110.6825278
-294.7612478
-448.303088
-568.5889831
-658.0849392
-721.9176033
-765.315409
-800.5860008
-816.0753314
-824.83028
-828.8005368
986.3174209
984.8747887
981.3806797
974.4326479
962.5905081
941.5684928
907.2598875
859.1380429
781.1096868
669.4771903
518.8945937
330.928747
120.1444863
-93.43339496
-288.1315339
-448.8935649
-572.3205788
-662.7186311
-732.8495197
-772.9347475
-807.15525
-820.4138442
-827.9522314
-831.3549579
989.2443576
988.9250113
987.7941331
984.8420177
975.7505828
961.8491544
936.7360297
893.7838274
825.5635315
719.7292915
565.272851
361.4819477
122.6330148
-119.5391565
-331.088027
-496.2029197
-615.5978065
-697.4628117
-762.5684896
-794.3367767
-822.1549293
-830.7076596
-835.5171334
-837.5982231
992.9939666
994.2600034
996.4901297
998.8797344
995.5395818
991.7343711
981.2513513
951.3086803
902.3453016
811.5183803
660.4979027
433.2323392
137.2879239
-169.8728324
-418.542147
-586.782094
-693.3348466
-759.2868949
-807.7980148
-826.2319992
-843.2193443
-845.5833145
-846.3526491
-846.496179
995.861078
998.9541348
1005.152264
1013.785636
1017.924632
1027.373776
1035.964921
1029.194238
1010.528699
953.5109266
828.8149865
581.3245332
174.8950035
-269.0444899
-579.0147396
-740.4662978
-811.777426
-843.7412908
-865.47272
-865.8346557
-867.3589036
-862.1098886
-858.0054352
-855.8661205
996.0466974
1000.971441
1011.162596
1026.765774
1038.153975
1063.23048
1094.09237
1116.599733
1141.776119
1149.131744
1104.413491
884.8126876
243.2030553
-517.7078321
-886.8268314
-977.7873686
-969.8370228
-946.6272067
-930.5900306
-908.145283
-891.0133381
-877.3447918
-867.9698239
-863.4415095
991.8136146
998.3566232
1011.930977
1033.525542
1053.952751
1092.544089
1145.394742
1197.48728
1271.154348
1362.369144
1490.352172
1574.253562
436.3358404
-1294.830864
-1441.089109
-1303.689932
-1158.117847
-1056.217404
-993.9495563
-947.0109807
-910.5472616
-888.0733849
-873.7867467
-867.0407923
981.6547745
989.3543451
1005.308496
1031.090023
1059.181307
1108.055421
1176.687313
1253.183508
1363.252053
1521.364372
1809.350857
2416.052385
-3237.929731
-2209.263512
-1660.311283
-1337.701301
-1153.457725
-1043.304267
-975.3745975
-920.3557497
-891.0768441
-873.07273
-864.5083042
964.4283538
972.6697583
989.707618
1017.365425
1051.081385
1104.658141
1180.627117
1270.547458
1394.102543
1560.54713
1822.165029
2181.52597
-4624.921633
-2716.642362
-1894.368552
-1452.471223
-1212.317709
-1067.52842
-985.3065723
-917.0450917
-883.9107371
-863.7877045
-854.1616666
939.5357946
947.6485246
964.3526521
991.3744907
1028.070696
1080.772951
1154.612528
1243.952614
1357.614208
1499.601772
1684.22371
1872.555282
-4151.807533
-2650.980039
-1893.128172
-1456.165677
-1213.885359
-1058.681981
-973.3295441
-898.7182747
-865.1507829
-844.7684413
-834.9864584
906.9979099
914.3666784
929.425293
953.4577198
990.6898503
1037.654511
1102.163897
1182.896233
1277.704054
1388.111832
1519.034614
1648.218943
-3061.809218
-2200.489414
-1689.358395
-1358.474157
-1158.335501
-1016.507873
-938.8535157
-865.337947
-834.7153668
-815.9200531
-806.8464941
867.4008578
873.5290252
886.0077432
904.8364163
941.4905997
978.5103721
1028.894651
1096.092326
1168.75879
1249.474835
1343.178384
1459.310844
-1968.831153
-1622.000204
-1382.788344
-1193.324995
-1059.339206
-946.8906949
-885.0677387
-818.6294241
-793.9229917
-778.1419663
-770.4710775
821.8265713
826.3989128
835.8559656
849.2301844
880.8021255
907.2479482
940.6753413
992.4557651
1041.482663
1091.823997
1143.946777
1234.868831
-740.4560335
-992.8824699
-1083.776644
-1067.428804
-1004.636668
-937.199874
-859.8149416
-817.0091061
-763.0444277
-745.1381466
-733.1046805
-727.2779731
771.6008619
774.5128578
780.7393246
789.0352023
814.2189881
829.7518989
846.6142848
880.5706231
906.2902517
924.9120958
925.3713568
925.9133419
296.430298
-393.510478
-682.1040756
-801.3612569
-825.4994446
-808.6331272
-765.9173592
-741.584287
-702.2119687
-690.8854324
-682.8940625
-679.0891925
718.2018801
719.3957636
722.0593849
725.1146111
744.2954264
748.4595292
750.079154
764.9209309
768.1591203
758.7424733
713.8207979
583.7101016
273.7254694
-147.0917885
-440.4046373
-604.0026189
-672.0853563
-687.4653092
-672.2372307
-664.6700463
-638.8612973
-633.6872413
-629.6854965
-627.832481
663.0965914
662.7379979
662.0777865
660.3457298
673.9556402
668.7517887
658.351159
654.4399621
636.3122777
604.6865753
539.031648
422.1626998
202.2657389
-81.69349013
-317.2023938
-469.2017209
-547.8155252
-580.2006812
-584.9269673
-590.1509905
-575.8369723
-575.9530846
-575.4822071
-575.3265653
607.6885045
606.0644858
602.6919211
597.0968567
605.5248673
593.1393178
573.6884698
556.2919471
518.043264
467.7840583
393.6216718
284.8447815
115.5014474
-78.95518361
-253.293554
-376.667702
-448.2773773
-489.0507412
-506.3659879
-520.4585603
-515.3251341
-519.6241467
-521.9780144
-523.1355016
553.2004035
550.6081325
545.1592193
536.6739032
540.833848
523.353767
498.0055086
473.5953367
422.7218277
359.6180644
279.2479275
186.038723
53.17698184
-86.56588567
-210.8847124
-303.7547688
-367.3756719
-412.011188
-437.2156209
-456.8302928
-458.641599
-465.9348036
-470.4051458
-472.5186189
500.5743959
497.29188
490.3621374
479.8880613
480.8700013
460.2741519
431.6697596
404.4065767
353.2755589
288.5978677
208.4700909
125.0649986
21.37302391
-81.25383952
-171.1599467
-245.6991745
-304.3853428
-348.7794103
-377.4682297
-399.9336141
-406.4375413
-415.6589417
-421.5557906
-424.3682141
450.4892617
446.7755019
438.9210769
427.2560056
426.0691701
403.9557045
374.1135257
346.4673123
297.8448618
239.0918001
170.0264923
99.67261468
16.12522932
-64.59669279
-138.3869436
-202.2065644
-254.8536316
-296.8128158
-326.2360965
-349.6141957
-358.9897452
-369.2608214
-375.9954369
-379.2066488
403.3935296
399.4726186
391.1799881
379.0044854
376.4042354
354.0057424
324.4783772
297.736746
252.8499272
200.6989338
142.0173863
81.54086609
13.73206509
-52.58172522
-114.1335303
-168.7443931
-215.2916576
-253.7765239
-282.3852171
-305.3609934
-316.2306726
-326.8783399
-333.9727149
-337.3591017
359.5370493
355.5853376
347.2370128
335.0864281
331.6512255
309.8309555
281.760668
256.4866132
215.8217552
169.8553723
119.3119842
67.88549886
11.49369223
-43.73939144
-95.53813513
-142.3330858
-183.1587704
-217.7817409
-244.7377299
-266.5201875
-277.9084936
-288.4338346
-295.529931
-298.9220323
319.0001639
315.1479503
307.0211336
295.2800072
291.4598591
270.7783772
244.6835866
221.345915
184.9321609
144.564691
100.9084144
56.98956359
9.540877124
-36.94474966
-80.83841295
-121.0041584
-156.64705
-187.4668171
-212.2191598
-232.4165675
-243.6516639
-253.7143073
-260.5642555
-263.8431351
281.7335079
278.0733763
270.360352
259.2874961
255.4168251
236.2186045
212.3575148
191.1683114
158.8385489
123.4852848
85.73525529
48.08737598
7.87090783
-31.52878074
-68.90580109
-103.4251383
-134.4456001
-161.6642792
-184.002432
-202.4076906
-213.0488872
-222.4362375
-228.8783571
-231.9648819
247.5988274
244.1932497
237.0215631
226.7803641
223.0958706
205.5629039
184.0299624
165.0471136
136.5426574
105.6693419
73.02113054
40.68937164
6.455277756
-27.07957337
-58.99841766
-88.67592403
-115.5976777
-139.4841645
-159.3797067
-175.9211697
-185.6940759
-194.2855345
-200.2208728
-203.0657404
216.3996176
213.2870093
206.7340794
197.4171016
194.0783165
178.2834822
159.0695511
142.2602461
117.2864282
90.4204425
62.22297865
34.45414577
5.261511136
-23.33080963
-50.61111609
-76.10289613
-99.39260313
-120.2327796
-137.7546932
-152.4498654
-161.2005753
-168.9392822
-174.314364
-176.8905608
187.8992886
185.0998442
179.2056004
170.8546737
167.9719695
153.917096
136.951807
122.2324995
100.4932857
77.22430333
52.93889655
29.13489851
4.25844188
-20.10393704
-43.39052608
-65.23283555
-85.29708138
-103.369273
-118.6377638
-131.5550859
-139.2050149
-146.0770574
-150.870663
-153.1671814
161.8366938
159.3578419
154.1360178
146.7587476
144.4057817
132.049706
117.2300739
104.4944092
85.71259378
65.68701902
44.86497316
24.54673408
3.417727154
-17.2742117
-37.08026515
-55.71215697
-72.89975198
-88.46136785
-101.6169307
-112.8509012
-119.3710319
-125.3897245
-129.6021236
-131.6186274
137.9406505
135.7815431
131.2288418
124.8110103
123.0388075
112.3166198
99.52568677
88.65938328
72.5844568
55.49793645
37.77212377
20.54892126
2.714643775
-14.7521075
-31.49001963
-47.27178938
-61.87861243
-75.15983353
-86.34800666
-96.00213801
-101.3916679
-106.5863106
-110.2309058
-111.9735372
115.9382149
114.0928603
110.1956257
104.7105418
103.5552952
94.39284068
83.51766037
74.39700077
60.81263171
46.40733366
31.47733623
17.03020809
2.127557125
-12.47079418
-26.47340442
-39.70045246
-51.97405001
-63.16657568
-72.54042381
-80.71409528
-84.98727751
-89.39508764
-92.49255092
-93.97112328
95.55542647
94.01582339
90.7554771
86.16792287
85.66985619
77.98459141
68.9641056
61.42626335
50.15206455
38.21131243
25.83156374
13.90050272
1.637509222
-10.37886009
-21.9150417
-32.82951678
-42.97770349
-52.24345234
-59.93157696
-66.72545237
-69.89816966
-73.56104561
-76.13485369
-77.36016749
76.54239881
75.2980895
72.65427869
68.92963943
69.1014574
62.81995361
55.56893264
49.52909991
40.39901795
30.73917693
20.71107396
11.08521193
1.227952209
-8.435487895
-17.72131556
-26.52074086
-34.72014331
-42.2226454
-48.27855145
-53.79844362
-55.90219825
-58.85938289
-60.93331244
-61.91771657
58.58271755
57.63088201
55.59022467
52.68559394
53.64209781
48.65289976
42.99717784
38.51154479
31.37168505
23.84192526
16.00694939
8.519962166
0.884123296
-6.606700917
-13.81259144
-20.65388664
-27.04657779
-32.92792445
-37.40088889
-41.71973979
-42.73658699
-45.03317344
-46.62442646
-47.37276636
41.64315863
40.9599954
39.50212448
37.43668597
38.86259158
35.2611595
31.11160639
28.14920463
22.89986493
17.38554171
11.62376309
6.148298052
0.592531004
-4.863738822
-10.11997838
-15.12279028
-19.81462137
-24.15237785
-27.1418241
-30.27999144
-30.40782952
-32.03285472
-33.16266559
-33.69887355
24.70140353
24.34799357
23.48531625
22.24385425
24.78713991
22.44096494
19.74214221
18.26569365
14.82777123
11.24547822
7.472598348
3.919623182
0.3405427736
-3.181456456
-6.582066395
-9.832117637
-12.89880498
-15.76110373
-17.31445214
-19.37044971
-18.11716029
-19.09087956
-19.75630471
-20.02355296
10.92728174
10.67171049
10.26792205
9.692664359
11.0478979
9.898599617
8.617553649
8.698138818
7.008675706
5.297219528
3.461673618
1.793567041
0.1160237953
-1.537090357
-3.143467926
-4.695412703
-6.181762007
-7.618522017
-7.704501684
-8.655544802
-8.165680859
-8.615333611
-8.932062987
-9.152001387
2231.237095
-4982.422171
-3458.41736
1904.788339
-4532.310345
-5015.353557
1673.130674
-3333.926085
-4401.91215
1483.695055
-2146.068912
-3178.389105
1252.524536
-792.4007731
-837.4944281
-1108.385333
-2006.719878
956.8061921
382.2569355
-743.3685097
242.1085472
-402.8186593
-993.544281
2356.418461
701.2996243
-3071.306862
-1092.14266
-6853.251369
-4652.208768
-4582.389715
-2935.381568
-2400.400949
1723.264232
1883.531277
2135.32396
-6482.207451
-6989.324638
-4262.683727
-2993.83235
-3020.015228
1561.123343
1659.872684
1852.78258
1781.635502
1823.28642
1941.625377
-4654.470935
-5578.443801
-3203.637691
-2518.583239
-2909.954238
1388.793679
1468.674225
1635.104616
1577.228451
1622.892872
1700.046137
-3017.655491
-3706.092375
1196.055274
1249.031227
1444.136875
1371.253622
1439.196893
1531.116606
-1628.519326
-1603.107979
-2200.529404
980.4475604
964.4612742
1216.763653
1110.860597
1153.031565
1307.08877
654.6147704
391.9826018
397.0576838
2780.2957
2348.775821
3189.665999
2861.060869
-7014.776206
-6898.172716
-4632.459879
-6580.138804
-6835.411046
1958.008161
2079.688078
2009.845445
2086.22192
1962.336798
2307.08832
2106.477464
-5635.477581
-6439.493776
-4791.346512
-6302.74022
-5541.920555
-6813.845497
-6344.090912
-4836.749253
1712.202744
1807.526325
1753.121001
1816.611524
1714.297883
1953.730985
1825.201449
-3808.86899
-4590.34943
-3802.26543
-4480.6222
-3735.407822
-5486.046228
-4597.926082
-3957.609287
1537.264796
1618.131625
1554.142092
1622.316192
1542.392415
1707.89018
1626.855474
-2288.588244
-2923.434892
1315.781946
1432.600027
1356.710138
-1579.645997
1438.767611
1321.804416
1536.109032
1445.434573
-1622.675449
-1006.702754
-1521.602903
-1575.870204
1046.06346
1140.59138
1090.521905
-3.298629016
1146.688075
966.8948719
1313.110053
1158.373509
-78.82788225
1841.921638
2176.518461
2291.05964
2416.883461
2800.788935
3036.411517
-9052.546151
-6086.851465
2048.641754
2100.646867
2303.176457
-3613.176344
-2100.031613
-1855.334702
-2359.889624
-2055.30383
-2009.136891
-2323.640463
-136.5376667
-467.454131
-859.2653859
2343.212033
2732.458805
2379.028777
2502.376653
4059.533031
3712.714626
-4393.646734
-6456.659845
-4414.002871
-2375.412723
-2715.829204
-2577.498004
-2878.971754
-2263.128009
-3636.485026
-2970.37441
-2725.033093
-1154.727222
-250.6841475
-422.5760162
1038.098439
2168.452397
3121.401921
-4126.325303
-1415.092222
668.1692264
-9128.725549
-6318.951949
-8717.047614
-5760.335803
-8572.690628
-5981.98593
-6716.18077
-6752.41668
-5088.652116
-5151.404072
-3181.847495
-3531.540014
-3305.64211
-3513.343513
-3153.323276
-3968.490616
-3567.966769
-3404.219507
1482.742991
1447.39578
1407.758123
-1627.670884
-1913.753695
-1969.335645
1232.757244
1194.555073
1130.93225
1268.287588
1213.93246
1242.17571
2871.917464
2541.909791
2561.935715
2547.051378
2888.770586
2320.68021
2510.062363
2500.855635
3165.340712
3636.30469
3912.64066
2953.498488
3545.144595
3101.507878
3601.876428
2952.444913
-7075.216221
-7075.101003
2026.475162
2106.367857
2017.859406
2204.909764
2193.867508
2304.527957
2113.236204
2181.855002
2176.938491
-6008.585269
-6059.386565
-5956.082875
-5336.213459
-5537.10007
-5017.887838
-5261.460741
-5906.38148
-6613.868468
-5777.399687
-5840.499219
-5595.063499
-5740.740802
-6579.479165
1765.440788
1758.172778
1893.888129
1884.570293
-4131.205107
-4013.542386
-4187.59724
1586.06108
1580.465338
1666.854841
1661.518113
-3098.197593
-2744.481426
-2646.560043
-2763.748018
-3119.734097
1369.225428
1333.831763
1285.207913
1393.780774
1349.470627
1378.245425
-1206.452612
1383.199247
1373.661221
1493.130114
1487.645417
-1975.425558
-1210.108524
-1254.424659
-1533.621259
1107.692547
1036.674634
969.3783996
993.273949
512.7101888
223.8244617
1248.824311
-237.7695986
182.4074174
-151.1771163
1239.981519
-330.6199218
-186.8889664
149.830445
-7876.305961
-2218.461284
-2383.894388
763.0448491
697.4071683
925.929794
804.9689642
819.8869559
1002.512363
285.1346695
-84.42442854
-283.5487507
4857.992931
-2417.777776
-2600.867718
-899.4506573
-1162.900507
-1159.823035
-103.100236
-358.6910085
-64.10166532
1544.701178
2818.588876
3975.871595
-5389.858446
-1881.364878
531.836412
-6593.055737
-7550.605322
-7394.707519
-6896.026599
-4837.819798
-5036.287617
-4823.216105
-5855.085376
-5667.30613
-5400.970439
1658.281715
1632.565176
1599.304168
1679.455581
1643.976133
1663.921916
1496.970371
1460.027496
1488.471747
1188.94044
1173.394039
1137.737143
918.9150999
714.2052081
444.1887029
-7051.767907
-7613.987408
-7612.116485
-6873.272664
-5732.047266
-5479.382344
-5842.945124
-5780.19472
-6868.560139
-5801.278722
-6094.290978
-5920.457034
-6289.198174
1750.227718
1729.864034
1691.696837
1723.207677
1740.22378
1732.251142
-4756.721872
-4555.537282
-4413.509713
-4147.800973
-3893.109388
-4176.653213
-5077.034382
-4655.738047
-4930.472812
-4272.59113
-4560.972592
-5016.958561
1576.128948
1543.813983
1508.960116
1588.365363
1555.161291
1581.677077
1608.104336
1624.157578
1634.916075
1557.339156
1580.351188
1560.216663
1690.026175
1697.752546
1717.060933
1638.122343
1649.754322
1640.890898
-2556.2384
-2696.278143
-2370.593619
-1404.398068
-1418.134449
1417.669554
1337.440364
1516.748607
1527.076192
1551.635069
1484.941097
1463.859641
-1763.779922
808.5927867
1014.609487
964.7161447
1124.892851
1081.58002
1091.919896
191.428656
423.4577013
191.1879563
1099.609703
461.6035388
745.8926839
551.2316649
601.5531815
1281.613685
1193.622765
-8340.324614
-7587.273942
-7960.796425
-3765.424744
-3834.826481
-2021.742586
-2168.487231
-2174.57899
2416.978656
2390.276018
4072.497965
4606.039559
4630.000009
4456.345708
4008.735135
-2791.769719
-2605.952039
-2566.246639
-2605.933717
-2809.028216
-1158.741704
-976.8715194
-997.016264
-979.0918211
-1158.05011
-750.2773192
-928.6441477
-500.9643503
-534.5139703
-700.4166481
-323.3955423
-480.8102491
-399.3857947
-8968.148351
-7766.453056
-7334.145702
-8025.189434
-7861.148389
-7150.257944
-6414.816284
-7747.188105
-7117.411734
-6992.597421
-6622.197828
-6861.754046
-7336.56138
-7170.686346
-5311.943777
-5107.038858
-4900.895357
-5166.976383
-5379.619683
-4888.282006
-5102.768381
-5450.563229
-5339.412482
-5607.525181
-5385.051587
-3328.557874
-3396.319339
-3365.063026
-3281.951678
-3432.02862
-3808.654856
-3695.603199
-3856.73234
-3482.136911
-3642.56187
-3749.844365
-1836.880054
-1818.563472
-1968.58198
1215.925769
1185.066497
1197.008193
1267.602443
1253.76192
1226.159976
2710.142071
2663.702277
2670.299584
2678.371753
2560.025269
2869.601644
2722.296656
2718.482666
2392.675659
2405.68101
2335.313596
2524.792479
2432.488307
2420.283082
3183.99997
3098.716164
2926.743725
3300.245915
3201.700123
-7745.676315
-7630.288943
-7060.124519
-7826.060898
-7997.930189
-7773.257178
-8035.472968
-8084.966136
-8066.959875
-8012.762557
-7037.73845
-7761.713401
-7790.694443
2066.839377
2063.671764
2040.654666
2100.753076
2072.734114
2077.716945
2006.824357
1986.282869
2034.35615
2013.518159
2235.25508
2244.556176
2200.862048
2315.327259
2260.837554
2250.038365
2143.147301
2141.459551
2110.260645
2187.804572
2152.573848
2154.794788
-6308.135416
-6150.403103
-5854.631553
-6229.833448
-6543.87328
-6353.513589
1795.847356
1775.118708
1827.592808
1802.083332
1742.380345
1726.397666
1767.445108
1747.542021
1940.842019
1911.405212
1978.582802
1950.655393
1862.602866
1835.399392
1901.621029
1872.458836
-4126.056217
-4306.799165
-3913.103849
-4074.196222
-4166.85038
-4607.26003
-4814.320341
-4362.963896
-4545.496649
1598.413349
1618.597558
1602.896394
1624.790351
1601.472033
1638.588704
1630.848479
1596.297861
1564.983151
1582.826535
1592.755064
1676.724143
1691.500045
1683.745791
1695.097743
1679.852759
1720.137804
1700.69649
1651.461476
1640.986877
1671.841427
1655.770837
1645.831183
1654.266993
1670.592189
-2811.227409
-2919.35818
-2985.175629
-2799.690554
-3039.956193
-2966.634404
-1168.991564
-1369.527795
-1391.850122
-1170.479025
1410.403664
1347.181153
1504.810707
1520.293253
1510.476127
1470.251582
1491.876825
1501.173285
-1853.465085
1069.956886
1065.594293
1015.910029
638.8312114
554.9477656
1079.331911
298.9553656
444.2986369
350.2893641
1270.617758
-390.903844
36.86625173
247.1664114
-6.195778385
1196.775459
-2919.35393
-2156.825152
-1453.040126
-2365.876846
-2422.442587
-1132.614207
-1213.863217
-1687.064063
-2427.901928
-946.2346109
-927.9407895
-759.0242496
-2177.505158
-1634.581832
-1601.893616
1617.81848
3331.605035
4503.757975
-6520.988815
-2488.013964
428.3515575
-2015.557861
-1706.859439
-3954.770264
-6619.644914
-7495.314302
-7695.044993
1873.380084
1846.539564
1800.073543
1911.791401
1862.589177
1890.566772
-1618.429034
-1767.74327
-1772.297085
-2275.422484
-1992.080589
-1939.615382
1289.717072
1263.468711
1277.775117
-7740.337454
-7767.707382
-7027.850887
1785.218001
1743.203304
1763.782677
1793.949637
1800.701427
1825.194073
1833.279829
1859.785711
1849.717635
1335.57261
1322.261808
1298.543982
-1591.554692
-1543.044877
-1533.287807
1327.517968
1336.854137
1329.5808
-1696.951552
-1706.74037
-1603.740493
-1419.334813
-1416.611275
-1568.250392
1133.205578
1304.337982
1311.878106
1319.389361
1166.93239
-8960.393834
-3651.683595
-2037.313875
-2110.798388
-2115.397168
-2366.236896
-2210.461089
-2178.948521
2467.80432
-5351.590128
-4830.828841
-5845.420367
-2518.664677
-2572.076603
-2411.914132
-746.3126807
-761.3892425
-577.6260955
-584.5045829
-687.6407535
-2681.749738
-2228.525785
-5186.498974
-8886.286857
-8389.791482
-8234.457591
-8647.204017
-8679.410482
-3231.465862
-3265.613088
-3213.279683
-3547.024997
-3546.710153
-3519.368622
-3079.893089
-3228.746787
-3304.525989
-3930.013693
-3873.006021
-3929.396616
-1964.485239
-1942.509465
-1975.856982
2810.771378
2889.276436
2581.437881
2585.96269
2591.762294
2553.229225
2337.331337
2348.867508
2328.34188
2517.005876
2483.69645
2476.458313
3344.145776
3164.420231
3272.774218
3495.693591
3514.704601
3658.472045
2954.346336
3022.82299
3027.056844
2050.331524
2047.570727
2046.81836
2104.197269
2095.382987
2097.971561
2006.235743
2001.043033
2042.503868
2034.819287
2208.327961
2210.69826
2197.001982
2309.09917
2290.240949
2286.483287
2120.570552
2121.062168
2112.394345
2184.611241
2173.964529
2173.030927
1772.82606
1793.733949
1786.11464
1738.897417
1745.932887
1765.636848
1907.124965
1935.599999
1919.723217
1929.49467
1919.127255
1994.763802
1985.114391
1846.349028
1908.858549
1898.685583
1858.886249
1869.215219
1897.610204
-4309.533573
-4382.979953
-3986.933596
-4054.791518
-4078.780771
-4452.284716
-4466.355963
-4353.525687
-4494.499428
-4317.954039
1354.736571
1330.749526
1343.540532
1403.880102
1386.404869
1363.26455
1387.893505
1398.871581
1392.944771
1364.583843
1368.791802
1377.798619
-1976.099417
997.9589854
1010.961722
979.6657244
681.123325
1005.710144
391.1111471
508.661789
621.9100355
1255.74533
1260.868745
1256.00146
-302.6116802
-143.5574363
-122.7557191
-138.6778053
1229.015927
1236.329131
1247.600956
-42.18803234
-126.3610699
-271.4788966
-2253.456542
-2300.404571
-2408.836012
-2359.089451
-2338.000694
5008.879844
5081.807578
4949.22195
-2478.337673
-2503.910962
-2416.625194
-2618.161546
-2560.221393
-2549.925741
-3585.472062
-2881.073234
-6162.00682
-6857.655548
-6871.548781
-6767.72743
-6816.527794
-7495.505239
-7310.976487
-7356.793749
-7222.461046
-7267.383346
-7445.693121
-5796.404312
-5710.41753
-5770.716135
-5579.506526
-5647.702171
-5735.740717
-7663.349466
-7444.773461
-7440.977262
-7402.64416
-7435.949829
-7658.350178
-6033.063284
-5944.546755
-6001.354731
-5831.062451
-5888.262451
-5979.151637
-6681.835803
-6724.642729
-6562.437634
-6623.756751
1628.299145
1622.821938
1618.252465
1563.541447
1559.390377
1552.885277
1572.652884
1566.552865
1571.739015
-1542.626007
-1598.609308
-1400.620289
-1485.766667
1435.273825
1431.110716
1447.691123
1440.159891
1341.10749
1333.888011
1340.802053
1335.870014
1535.248678
1532.00959
1524.615375
1546.637371
1539.662632
1544.134301
1461.698406
1456.938164
1476.872318
1459.452187
1467.493688
-1769.031751
-1762.97625
-1754.325065
-1603.674814
998.2672149
1016.499887
1097.779207
1110.387614
1104.045873
1086.214872
1118.253779
410.524316
398.8106751
1064.43777
950.8986544
734.9442487
1283.509165
1299.813631
1293.853138
1180.18115
-8875.726468
-9168.673897
-8677.07355
-8435.266993
-7963.076829
-7066.314533
-8794.039113
-8459.812305
-3701.280598
-3854.293938
-2173.779265
-2163.979948
-2170.51913
2441.176054
2360.408767
4683.22288
4495.180152
4423.808508
3978.969383
3843.224287
4290.629469
4119.786866
4259.179681
-2692.676411
-2617.908698
-2749.269776
-994.4351825
-989.6841705
-977.5568544
-1098.940472
-789.0911186
-764.8652477
-752.3649196
-916.0696197
-853.8527077
-854.4986856
-509.5931982
-566.0152763
-560.5351338
-381.1673984
-388.9628134
-436.1241315
-8591.481248
-8504.262363
-8941.847848
-7976.550428
-8336.190948
-8354.893128
-8722.883322
-8706.59932
-7062.069491
-6943.39174
-6984.973893
-6889.253581
-6905.085327
-7012.118331
-7276.538269
-7124.331895
-7174.431119
-7030.075624
-7076.042454
-7222.832843
-5245.120282
-5168.382884
-5234.87249
-5233.908278
-5308.473536
-4936.550613
-4966.96767
-4937.664257
-5039.121157
-5528.035391
-5566.083881
-5519.978155
-5434.721146
-5507.706246
-5304.152587
-5372.029933
-5460.333981
-3368.783948
-3276.370082
-3269.462761
-3290.693281
-3225.610448
-3285.391631
-3467.496608
-3491.994628
-3423.691624
-3766.31958
-3811.277906
-3835.846635
2759.450071
2621.043235
2398.335736
2371.696036
2359.872857
2447.295165
2453.504779
2425.484267
3299.182709
3399.630937
3398.492868
3705.01846
3573.62469
3108.964299
3103.999306
3198.440769
-7697.897511
-7486.830066
-7512.369299
-7448.506731
-7464.178614
-7659.25809
-7881.865644
-7935.139042
-8076.006071
-8400.751156
-8324.560228
-8465.460421
-8473.051495
-8104.06903
-8084.376169
-8277.504361
-8254.500449
-8010.683392
2066.345555
2058.009215
2058.554996
2088.315211
2085.943029
2076.148004
2016.291957
2011.152057
2027.616104
2021.689598
2238.972741
2224.629174
2222.048735
2267.481267
2271.791006
2254.553944
2142.384484
2131.250803
2130.82078
2164.592392
2163.934989
2153.483465
-6260.301413
-6163.597053
-6212.145267
-6055.987577
-6110.242597
-6203.155451
-6485.787348
-6391.5707
-6478.538352
-6260.211334
-6318.375472
-6414.437542
1789.486647
1791.884923
1797.29121
1777.374809
1785.265375
1782.569045
1818.169074
1817.405127
1828.597099
1802.009556
1808.108062
1809.288457
1737.384762
1740.029304
1744.168477
1729.889682
1735.345694
1732.11406
1760.100324
1760.93614
1768.875146
1748.413797
1753.915509
1753.404437
1950.516307
1940.044544
1931.062655
1935.881883
1945.972636
1915.569561
1925.70378
1921.23466
1972.749833
1961.043769
1868.910309
1859.863815
1852.983993
1856.326989
1865.795427
1836.683296
1840.339232
1842.593062
1891.878308
1895.545223
1905.521951
1875.832921
1885.661693
1882.170031
1888.737559
1878.880785
-4217.759779
-4254.571152
-4148.983051
-4115.616851
-4142.10154
-4666.22623
-4698.261725
-4647.235313
-4853.339922
-4765.342056
-4734.007759
-4410.796432
-4444.327023
-4415.537567
-4592.240451
-4537.665254
-4477.855308
1604.568181
1600.474744
1594.381004
1612.924206
1606.831622
1611.638737
1616.084969
1607.786938
1636.432021
1634.034724
1592.577913
1582.363255
1576.968375
1576.717363
1575.189993
1588.464984
1583.195216
1588.507703
1682.229191
1687.204057
1698.516219
1683.977863
1713.539281
1716.259285
1723.3341
1703.755965
1709.764558
1707.102615
1647.401253
1643.871255
1665.080661
1660.135291
-2924.277706
-2907.927959
-2974.831092
-2794.683328
-2847.498822
-2882.942615
-3112.226139
-3159.52932
-3023.06254
-3027.695115
-3039.159469
-1325.268078
-1332.163362
-1388.165597
-1188.478651
-1254.842524
-1261.110114
1404.451634
1391.378107
1425.869824
1417.082265
1352.334061
1359.89236
1355.569251
1363.187313
1355.956478
1380.550658
1371.688337
1509.375361
1506.691859
1501.716272
1518.011917
1512.105599
1514.52046
1495.78773
1488.826683
1483.334559
1497.229515
1493.090544
1498.443285
-1916.290523
1065.654142
1042.845328
1045.23495
600.7922514
608.8676702
660.5458814
556.8471062
562.0128182
549.6051486
1057.100871
391.693761
343.8205017
279.4464234
1262.546281
1264.664136
1270.720214
-369.5453913
124.0771357
68.09198104
231.8886968
222.4631274
232.7737736
51.24731457
-80.249094
-60.95532861
39.85648789
1210.127942
1225.989163
1218.197277
882.7089359
832.369364
804.185367
811.247611
734.6541134
701.5008436
703.3790538
592.8253855
560.4556212
549.5061226
404.5147588
379.8944914
350.6039812
180.4059353
172.0488491
121.0026797
-54.16778247
-42.53519649
-111.1849939
-268.508745
-242.683821
-316.7078658
-443.5270336
-412.041103
-480.8332081
-574.7870102
-544.1891561
-601.5343373
-667.5898421
-642.1204421
934.9247026
896.9622216
845.7788327
880.1261657
812.9447111
750.6216604
784.1353533
675.4395042
608.832685
631.0000143
471.6667872
416.8349993
409.9740887
204.7941728
184.324444
132.0303305
-85.41463099
-60.51977353
-154.2310121
-338.5659854
-282.1303427
-391.4232788
-523.341426
-459.1523162
-559.2133987
-646.6617365
-589.5737745
-670.2345166
-726.8369388
-679.8076457
1008.181875
990.4883016
917.7422719
980.6653965
934.9376335
839.164047
912.996534
820.2336071
704.9291624
778.1317552
607.6693369
497.5777584
534.0324177
264.4240681
215.4401217
162.7304684
-143.0315098
-96.3800416
-236.6180279
-469.2239875
-364.0045276
-529.1867129
-662.2733294
-551.5628857
-694.2490407
-762.7929249
-670.8536125
-778.5691955
-812.472602
-746.0585362
1094.71961
1106.251766
1018.168215
1107.99218
1103.081648
972.5978496
1096.166379
1050.701331
868.8855101
1023.491991
871.5800719
658.3106862
786.4188428
393.235186
288.2013863
224.2559912
-286.4432691
-166.1055505
-429.2928065
-727.8279332
-517.5335811
-789.8628929
-895.0404391
-710.2964923
-910.1500864
-926.9653607
-799.3169559
-927.297006
-921.8010713
-837.7331351
1178.974362
1224.900297
1137.226161
1240.805705
1292.229286
1149.842516
1310.960394
1370.787077
1124.32528
1388.510676
1390.627405
970.4954754
1340.692022
634.1592794
443.3944704
417.8072955
-801.4566506
-358.5695111
-1006.63773
-1261.190143
-827.9159931
-1275.372653
-1239.615575
-969.7326308
-1214.638096
-1134.710989
-975.5781071
-1109.714534
-1046.476818
-952.0475104
1242.586993
1317.194443
1251.777814
1345.479378
1448.354241
1336.78483
1491.722854
1670.196015
1455.271517
1755.023562
2241.253127
1579.70331
1904.987072
1927.598202
1376.605979
479.1130449
-1013.459852
-378.5374645
-1783.823367
-1710.677327
-1395.741722
-2016.408855
-1669.281019
-1343.045269
-1576.041759
-1353.951108
-1190.879704
-1296.724662
-1165.042713
-1077.759607
1269.352404
1357.510433
1332.873139
1391.082192
1512.094462