/*--------------------------------*- C++ -*----------------------------------*\
| =========                 |                                                 |
| \\      /  F ield         | OpenFOAM: The Open Source CFD Toolbox           |
|  \\    /   O peration     | Version:  v1912                                 |
|   \\  /    A nd           | Website:  www.openfoam.com                      |
|    \\/     M anipulation  |                                                 |
\*---------------------------------------------------------------------------*/
FoamFile
{
    version     2.0;
    format      ascii;
    class       surfaceScalarField;
    location    "0.23";
    object      phi;
}
// * * * * * * * * * * * * * * * * * * * * * * * * * * * * * * * * * * * * * //

dimensions      [0 3 -1 0 0 0 0];
oriented        oriented;


internalField   nonuniform List<scalar> 
25162
(
0.0004390704674
0.9162109295
0.0005524890702
0.9165865814
0.0006672183067
0.9165352708
0.0003330931959
0.916537833
0.000446292114
0.4583355229
0.0003475703108
0.4582942676
0.0004431727246
-0.0004374402699
-0.0005634518321
0.4582625159
0.0006509359243
-0.0007380462647
0.4582041557
0.0008688905277
-0.001013208675
0.4581721336
0.001171075044
-0.001350445716
0.4581427005
0.001542745191
-0.00173674356
0.4581449931
0.001926750452
-0.002110148928
0.458185156
0.002256492951
-0.002364915758
0.4582717529
0.002426662829
-0.002437578746
0.4583753069
0.002397271868
-0.00231062854
0.4584636358
0.002176992729
-0.002019823715
0.4585076209
0.001847202796
-0.001658587746
0.4585120702
0.001481517564
-0.001307025302
0.4585105673
0.001111458041
-0.001015956273
0.4584765841
0.0008893722269
-0.0007327777688
0.4584763421
0.0006064356553
-0.001563095959
0.918744476
2.520050207e-05
-0.0005565804812
-0.000984066278
0.9187709703
4.150170943e-05
0.915824432
0.9138415017
0.001205082903
0.9150058466
0.001929350197
0.9158623141
0.002249533225
0.9162150878
0.0007202315246
0.9169408819
0.001126252791
0.4580067985
0.000876956564
-0.4581635235
-0.458124774
-0.001096891529
0.457847696
0.001373969553
-0.4579472323
-0.00171815247
0.4575311838
0.0010027866
0.001131414443
-0.2288955436
-0.001223434749
0.2287864885
0.001332489816
-0.001799120374
-0.2288142318
0.2286685495
0.001944802638
-0.00253458682
-0.228745364
0.2285592961
0.002720654761
-0.003394346848
-0.2287330131
0.228533861
0.003593498959
-0.004212782111
-0.2288179985
0.2287062679
0.004324544081
-0.004077566883
-0.2290150099
0.2287953029
0.004297224296
-0.004965063933
-0.2292407927
0.2292157212
0.00499013545
-0.004695257096
-0.2293908618
0.2294998024
0.004586316517
-0.004068968512
-0.2294772235
0.2296638501
0.003882341931
-0.003283327688
-0.2294853448
0.229697345
0.003071327512
-0.002511405078
-0.229439838
0.229629818
0.002321425011
-0.4589610343
-0.00358218051
0.4604985924
0.002044622386
-0.0006482376204
0.4610744167
-0.001109014582
-0.4593171644
-0.00126687806
0.9185091788
0.0001168528197
0.001385322405
-0.0007942507652
0.9182983431
0.0004413396425
0.9145888416
0.9142828414
0.001516312141
0.9134895345
0.004087210103
0.9132914162
0.006979695987
0.9133226019
0.002961817064
0.9145417225
0.006417038397
-0.4578946882
0.4576571033
0.003199401928
-0.4575716717
-0.003270466256
0.4581060794
0.002736058557
-0.4569654186
-0.002961303487
0.4565576514
0.001631016479
0.001738054133
-0.2282543798
-0.002036484322
0.2280230299
0.002267834254
-0.2279437905
-0.003097978448
0.2276220854
0.003419683528
-0.2277444222
-0.003572335632
0.2322566605
-0.0009404627069
-0.2365370825
0.01631773465
0.2406869515
-0.02047176255
-0.2349945392
0.02943131437
0.2367905968
-0.03123084683
-0.2273591493
0.03315329325
0.2268461513
-0.03264060818
-0.2208480114
0.02772909823
0.2181159292
-0.02499421081
-0.2224627844
0.01353125334
0.2176550909
-0.008720343526
-0.2305487528
-0.006670949235
0.2299427332
0.007276941301
-0.2306102014
-0.006050535117
0.231016186
0.005644550574
-0.004214348932
-0.2304961105
0.231233195
0.00347726452
-0.4632690589
-0.0009651573838
0.4622925986
0.001941617785
-0.4602803676
-0.001915876393
0.4604093461
0.001786897928
0.0007149455387
0.9206290676
-0.001593560359
-0.001241273974
0.001922180617
0.917091108
0.0008878310718
0.9156231912
0.9151706724
0.0004862552973
0.9130032792
0.001103125274
0.9126745462
0.002389756784
0.9120359704
0.003299774689
0.9113940724
0.002237632207
-0.4568263436
0.4563188906
0.003807227754
-0.4595203175
-0.005123073113
0.4563341281
0.008309262577
-0.4578293347
-0.009744745607
0.4591619992
0.00252353443
0.005888546711
-0.2271739838
-0.002643387724
0.2268920662
0.002925305267
-0.2289760747
-0.002309256144
0.2346049319
-0.00332179161
-0.2482808806
0.01896625612
0.2526264342
-0.02332179678
-0.2504608527
0.03287027669
0.2524105724
-0.03483131297
-0.2401245259
0.03759301894
0.240268449
-0.03774438287
-0.2253451333
0.03704887094
0.2248941289
-0.03659894543
-0.2119812624
0.0345745467
0.2109254371
-0.03351325091
-0.2056754651
0.02810090696
0.2029344207
-0.02535026531
-0.2133719694
0.01395563737
0.2086505038
-0.009226191061
-0.2349037057
-0.002005691288
0.2371759578
-0.000265934698
-0.004662503787
-0.2323239615
0.2324315161
0.004554949078
-0.4625290913
-0.006913184186
0.4640166926
0.005425582895
-0.4613066289
-0.003979246707
0.4624904013
0.002795474258
0.003618503601
0.9210778732
-0.002144018885
-0.001923290251
0.002422386137
0.9182872255
0.001108958082
0.9169366192
0.9162796305
3.904467218e-05
0.9129642346
0.0001694411548
0.9125441497
0.0005327455833
0.911672666
0.001294859248
0.9101944276
0.0004375310497
-0.4559725106
0.4550786336
0.002188736235
-0.4547597034
-0.00272837311
0.4539798109
0.003508265631
-0.452831626
-0.004569864413
0.4518038803
0.002949090681
0.00264851937
-0.2272686777
-0.004949221842
0.2258851444
0.006332336167
-0.2497974874
0.002694342199
0.2556735039
-0.008582191766
-0.2611428739
0.02020906102
0.2623731969
-0.02145732429
-0.2530776529
0.02052854743
0.2514153598
-0.01888179822
-0.2369165038
0.01169709351
0.2344065364
-0.009195632078
-0.2237793734
0.004238188538
0.2235106718
-0.003970723692
-0.2117420881
0.007055839575
0.2136894979
-0.008997029816
-0.1998343048
0.01486373043
0.2007965234
-0.01581243626
-0.2098160661
0.02631859151
0.2021008864
-0.01858054644
-0.2162639902
0.005956999064
0.2124548391
-0.002136645417
-0.006549935907
-0.2341642322
0.2348503551
0.005863813027
-0.4659674091
-0.007919152277
0.467862031
0.006024530425
-0.463634552
-0.00461906578
0.4648214181
0.003432199667
0.004314194106
0.9234409358
-0.003692999889
-0.00298425681
0.002346698715
0.9202547208
0.001052075273
0.9182312427
0.9173317058
-0.0003322703193
0.9132965049
-0.0005302384212
0.9127421178
-0.0004119927339
0.9115544203
9.094622787e-05
0.9097050027
-1.351403183e-05
-0.4541412663
0.4537582027
0.0004740097648
-0.4533253927
-0.001528700394
0.4524284321
0.002425661049
-0.4507217518
-0.003157759774
0.4494586738
0.002201978284
0.00221885957
-0.2345188488
-0.0001546506725
0.237099451
-0.002433131154
-0.2585439552
0.008082504843
0.2594237544
-0.00898503012
-0.260989867
0.005729793799
0.2574263141
-0.002192550294
-0.2405756505
-0.01151888418
0.239474932
0.01260409728
-0.2222955694
-0.03064367445
0.2178120072
0.0351233703
-0.2227930187
-0.04686544677
0.222458941
0.047199371
-0.2266857253
-0.03450006295
0.2316680395
0.02952179354
-0.215819509
-0.00757389404
0.2183534585
0.00505645283
-0.1982503652
0.0007951929043
0.1997913586
-0.002311545195
-0.2053625351
0.002919193378
0.2044800733
-0.002016591448
-0.003761766807
-0.2337442513
0.2322176444
0.005290319317
-0.4695748757
-0.007937997389
0.4713040911
0.006208781887
-0.4656061909
-0.004941935255
0.4663269948
0.004221131296
0.003415451659
0.9261113763
-0.002898767143
-0.003187125075
0.001815968175
0.9218542043
0.0007356406593
0.9193115702
0.9180673465
-0.0008677973495
0.9141643022
-0.001575149523
0.91344947
-0.002070555577
0.9120498263
-0.0005185812287
0.9095311418
-0.001378113394
-0.4536057393
0.4532674725
-0.0001803143929
-0.4512720318
-9.865047858e-05
0.4508234351
0.0005472471669
-0.4488628748
-0.001640837869
0.4484392683
0.001089060308
0.0009748457551
-0.2411742448
0.001337387901
0.2420015542
-0.002180264445
-0.2612202219
0.002313187146
0.2569593235
0.001919003832
-0.2485355598
-0.007103443301
0.2455648705
0.01004931286
-0.2189581692
-0.02332658966
0.2118392966
0.03043695903
-0.2029419836
-0.05342618493
0.1026035121
0.09663707372
0.02640709328
0.03072048943
-0.03763207785
-0.1085424411
0.107983071
0.03819144803
-0.03048248311
-0.2536164938
0.05734153642
-0.03080599521
0.1284338576
0.129129578
-0.0371309507
-0.232444255
0.2390805208
0.03050629322
-0.2081707508
-0.01652738553
0.2131618032
0.01156192938
-0.2062818015
-0.002419203014
0.2070937776
0.001639572175
-0.001972339959
-0.2263190182
0.2254706859
0.002833130153
-0.4730103488
-0.006388299998
0.4741328279
0.005265820888
-0.4674561199
-0.003919670511
0.4685297455
0.002846044913
0.001638308638
0.9278966124
-0.001523241847
-0.001900302878
0.0006637814694
0.9228287315
0.0001990784345
0.9197762732
0.9182664249
-0.001444734537
0.9156090368
-0.002816253799
0.9148209893
-0.0039557132
0.9131892857
-0.002125055894
0.910536288
-0.002835803518
-0.4532785192
0.4533147237
-0.002161260364
-0.4506218829
0.002246889185
0.4505367542
-0.002161760488
-0.4474863395
0.001989534445
0.4477428185
-0.0008457763494
-0.001404109241
-0.2417695933
-0.0001555872285
0.2409531007
0.0009532536173
-0.2525110956
-0.004876970663
0.2509228184
0.006432038919
-0.2368362228
-0.01225608584
0.2346748805
0.0143907081
-0.1993965378
-0.02064715133
0.1974865667
0.02255391079
-0.0866368219
-0.01427105447
0.08626585613
0.01464202024
-0.03658239889
-0.1436564104
0.1467650475
0.03347376182
-0.04014332518
-0.2595219768
0.2650392465
0.03463393076
-0.2236737156
-0.02216240841
0.2270342746
0.01883301719
-0.2122135437
-0.01061424864
0.214434734
0.0084281362
-0.001460079672
-0.2256713771
0.2259028419
0.001252171131
-0.4755508602
-0.003209654217
0.4766508315
0.002109682895
-0.4693449651
-0.001364314095
0.4699774291
0.0007318500546
-0.001071172253
0.9284876116
0.0006103010993
-0.0001301280249
-0.0009894644147
0.9227470236
-0.0005619692759
0.9193487781
0.9177044556
-0.002027362038
0.9176363988
-0.003976566257
0.9167701935
-0.005988180132
0.9152008996
-0.003559325814
0.9123815614
-0.004274127749
-0.4536334626
0.4539427384
-0.003868601601
-0.4506841903
0.004224249342
0.4510234463
-0.004563505263
-0.447899377
0.004897271832
0.4483925664
-0.002559555727
-0.002837772013
-0.239219992
0.002233433788
0.2384282559
-0.001474648195
-0.2455412131
-0.002336660279
0.243904251
0.003920642691
-0.2292595369
-0.008505830986
0.2280466408
0.009679570286
-0.1965491967
-0.01100321927
0.197198643
0.01035165005
-0.09023727984
-0.002785849319
0.09103767906
0.001985450095
-0.01611200513
-0.159826108
0.1602137944
0.0157243187
-0.0240025798
-0.2768997053
0.2788281398
0.02208039524
-0.2365017104
-0.01557966958
0.2388296097
0.01329523505
-0.2207668722
-0.00668369516
0.2226662238
0.004838675086
-0.0007645469554
-0.228152107
0.2288950715
5.185344398e-05
-0.4778733098
0.001119515776
0.4787259238
-0.001972129807
-0.4702141492
0.002287846275
0.4702461571
-0.002319854248
-0.004289573185
0.9273495892
0.003055729954
0.002371865614
-0.002970281865
0.9214277323
-0.001525954463
0.9179044507
0.9161785011
-0.002572090133
0.920208489
-0.005262145461
0.9194602488
-0.007906711368
0.9178454655
-0.004994074999
0.915186005
-0.005717079936
-0.4545401918
0.4551351825
-0.00558906568
-0.4515065749
0.006272612935
0.4522774197
-0.007043457707
-0.449058607
0.007828329842
0.4500796021
-0.004201266223
-0.004661153366
-0.2361234812
0.003996295594
0.2354248941
-0.003345085071
-0.239505757
0.0001779899486
0.2381914553
0.001062582794
-0.2254333748
-0.004242204988
0.2247800753
0.004842489228
-0.2001658541
-0.004348527792
0.2012863757
0.003226335986
-0.09541489838
0.000682805691
0.09591050646
-0.0005667664832
-0.0006116472543
0.003021483077
-0.1564494899
0.1552953
-0.001867293174
-0.004682173398
-0.2783856912
0.2768145392
0.006261875352
-0.2427807283
-0.006945344613
0.2435333528
0.006247034175
-0.2277697022
-0.002777493891
0.229151841
0.001461026074
0.001876936148
-0.2317359751
0.2325182132
-0.002623793696
-0.47845939
0.006693969353
0.477602489
-0.005837068367
-0.4698308889
0.005383506725
0.4698651003
-0.005417718144
-0.007746891528
0.9244605659
0.005726941622
0.004908973121
-0.005067569395
0.9187484102
-0.002545415915
0.9153822972
0.9136330852
-0.003187965588
0.9233964546
-0.006383561809
0.9226558451
-0.009757351538
0.9212192552
-0.006365248197
0.9188186192
-0.00702471753
-0.4559939858
0.4568498807
-0.007221143115
-0.4531764884
0.008253392236
0.4541898072
-0.009266711073
-0.4514455257
0.01044176758
0.4530310659
-0.005896127583
-0.006154409393
-0.2334449526
0.005528253379
0.2328096568
-0.004956479761
-0.2345758534
0.002234574827
0.2334585092
-0.00121226856
-0.2233007012
-0.001122739843
0.2229338939
0.001423645828
-0.2048084763
-0.0001913386282
0.2060142364
-0.00101524092
-0.09885364219
0.002470388384
0.09920485469
-0.001396138956
-0.001425461934
0.01292378069
-0.1456464992
0.1441669934
-0.0114442749
0.008600265497
-0.269274783
0.2661097564
-0.005417337502
-0.2438155533
0.0003458326719
0.2444967278
-0.0009617147338
-0.2325313327
0.00264391637
0.233433048
-0.003468214631
0.0057517225
-0.2349525971
0.2354633062
-0.006225118613
-0.4762902269
0.01181389861
0.4745902662
-0.01011393785
-0.4696919773
0.00862155299
0.4683517569
-0.00728133265
-0.01089786341
0.9201123705
0.007919837084
0.007326221747
-0.007057770193
0.914908317
-0.003467993898
0.9117925209
0.9101650913
-0.003738166704
0.9271346213
-0.007521774109
0.9264394525
-0.0114861401
0.9251836212
-0.007574091635
0.9228995593
-0.007992988552
-0.4579427903
0.4590022185
-0.008633519811
-0.4554472131
0.009861345291
0.4567812882
-0.01119542042
-0.4545449689
0.01266593949
0.4560211684
-0.007046419452
-0.007131714295
-0.2309294681
0.00667644036
0.2303055808
-0.006134222463
-0.2302973952
0.003638267069
0.2292926718
-0.002750500251
-0.2221189271
0.0008994877894
0.221924005
-0.000782175315
-0.209757265
0.002548722581
0.2110692903
-0.003860853386
-0.1015166817
0.00392862143
0.1018530526
-0.002113107995
-0.002151884417
0.01603991248
-0.1343125108
0.1329251687
-0.01465257038
0.01480339094
-0.2572490181
0.254530865
-0.01204922862
-0.2434051961
0.008310522018
0.2422661988
-0.007085123304
-0.2352698926
0.007051554372
0.2355760836
-0.007277374415
0.00912402961
-0.236403056
0.2364464902
-0.009134844978
-0.4725792163
0.01584044169
0.4702949764
-0.01355620175
-0.4669040132
0.01156933898
0.4651866895
-0.009852015302
-0.01361954541
0.9162490923
0.009027287988
0.008455535665
-0.008754019825
0.9100427914
-0.004257279688
0.9072957808
0.9059078117
-0.007917849872
0.9350524712
-0.0160354695
0.9345570721
-0.02430115863
0.9334493104
-0.008793866064
0.9316830059
-0.02429073923
-0.4602958487
0.4615853022
-0.01008331952
-0.4581706601
0.01150478051
0.4597614308
-0.01309555114
-0.4574801143
0.01471470292
0.4581486156
-0.007722093243
-0.007735451942
-0.22831092
0.007247014809
0.2276355924
-0.006678808491
-0.2263356236
0.004139101526
0.2253486894
-0.003291136793
-0.2215284722
0.001693647714
0.2214905551
-0.001743583148
-0.2151749568
0.004001501439
0.2165631323
-0.002683026266
-0.002706650671
-0.05236386405
0.002578537205
0.05247273202
-0.002687405169
-0.05819280387
0.005927688954
0.05775412887
-0.01154693207
0.006057918114
0.01406811281
-0.1248858177
0.2461188018
-0.02404506634
0.01360292717
-0.1248589578
-0.2480965553
0.01587428941
0.2459728376
-0.01369091306
-0.2410981802
0.01147987625
0.2409529874
-0.011226846
-0.236715696
0.0117756556
0.2370025857
-0.01196825312
0.01176901152
-0.2360194709
0.235541313
-0.01126936027
-0.4676837458
0.01835236886
0.4650806181
-0.01574924113
-0.4634020822
0.01367913247
0.4615045473
-0.01178159746
-0.01568458979
0.911113192
0.01065278738
0.0101677028
-0.01008556705
0.9044437687
-0.004954597581
0.9021648114
0.9009532141
-0.004408857824
0.939461329
-0.008938187598
0.9390864019
-0.01371555858
0.9382266814
-0.009339540517
0.9368558042
-0.009548816275
-0.4649187927
0.466277817
-0.01069856483
-0.4631455454
0.01220945848
0.4647707485
-0.01383466152
-0.4595172143
0.01559842417
0.4608171536
-0.008360899432
-0.008620127072
-0.2253556983
0.007834088155
0.224653781
-0.007243110981
-0.2224729803
0.004771007569
0.221496572
-0.003938776153
-0.2215096589
0.002367020788
0.2214046631
-0.002347869624
-0.2210334333
0.004267075744
0.2223032219
-0.002784142679
-0.002752721613
-0.05483640772
0.004930063969
0.110041864
-0.05483283471
-0.002662318718
-0.002640366802
-0.1127110203
0.007787289775
0.112509472
-0.01514649734
0.007560755867
0.02320719475
-0.2390146839
0.2371133329
-0.02130273148
-0.2422631847
0.01357574729
0.241966745
-0.01318919563
-0.2414279544
0.01339298742
0.2424465296
-0.01428837889
-0.2375563741
0.01428412523
0.2375154065
-0.01416083448
0.01258220278
-0.233561841
0.2327367379
-0.01175409554
-0.4627366759
0.01921454509
0.4606119452
-0.0170898143
-0.4595971811
0.01505935365
0.4574532642
-0.01291543659
-0.01530826046
0.9051369037
0.01058165743
0.01070289138
-0.01089911859
0.9000346269
-0.005334920271
0.8966006131
0.8956182939
-0.004598658535
0.9440599876
-0.00931407749
0.9438018209
-0.01426527781
0.9431778817
-0.009723198612
0.9421713976
-0.009857672638
-0.4677298629
0.4691663313
-0.01115966699
-0.4664116379
0.01271066658
0.4680568178
-0.01435584648
-0.4630013819
0.01611622093
0.4659482775
-0.009467276173
-0.009621171864
-0.2233788211
0.01043760284
0.2233908679
-0.01054186235
-0.2188152642
0.00963642339
0.2181113835
-0.009065794407
-0.2202530581
0.00720122071
0.2196240795
-0.006667324403
-0.2246861364
0.005617187069
0.2245084603
-0.005458478904
-0.1128827051
0.007795138336
0.2260103468
-0.008018442426
-0.1129043376
-0.2267910375
0.01502680179
0.2272888344
-0.01552459865
-0.2352928578
0.01655892808
0.2357390326
-0.01696464522
-0.2420644291
0.01774620878
0.2423823888
-0.01794515167
-0.2421936381
0.01829895955
0.2423092794
-0.01827531181
-0.2358688509
0.01740124398
0.2357656973
-0.01722907836
0.01384299116
-0.2316157258
0.2291486314
-0.0113758968
-0.458709096
0.02070146009
0.4551701127
-0.01716247675
-0.4553082546
0.01530044277
0.452926251
-0.01291843911
-0.01569920769
0.8993259248
0.01082277356
0.01068741298
-0.01097411936
0.8953095385
-0.005553856859
0.8911803506
0.890064437
-0.004676948552
0.9487369361
-0.009458607383
0.9485834797
-0.01444710808
0.9481663824
-0.009858562424
0.9474828102
-0.009899958188
-0.4706090633
0.4720509576
-0.01130045678
-0.46968447
0.01283121555
0.4712875493
-0.01443429481
-0.4687359043
0.01612856612
0.4705529315
-0.009006615545
-0.008938926072
-0.2253275934
0.01238249406
0.2267146555
-0.01382461344
-0.2172575821
0.01665156027
0.2175915649
-0.01709283537
-0.2177038693
0.01715785762
0.2173062575
-0.01685658599
-0.2229842261
0.01544557821
0.2224359636
-0.01494480684
-0.2246374939
0.01419405879
0.2234385521
-0.01300061523
-0.2307657652
0.01728290587
0.2319342134
-0.01842512765
-0.2383733809
0.02156727063
0.2392776764
-0.02239559304
-0.2435131416
0.02373397727
0.2436597734
-0.02376051285
-0.2416120666
0.02252351422
0.2408750735
-0.02167446142
-0.2326681274
0.01791723439
0.2310842841
-0.01629418573
0.01302951933
-0.2269080461
0.2262187184
-0.01234019163
-0.4540703498
0.02071674506
0.4510471371
-0.01769353234
-0.4497545769
0.01397033219
0.4478757445
-0.01209149981
-0.01479774602
0.8921548819
0.01122832451
0.0107404645
-0.008529727909
0.8890415204
-0.005587306612
0.8882379293
0.8844771304
-0.004656330393
0.9533932665
-0.009401723795
0.9533288732
-0.01431831075
0.9530829694
-0.009779617153
0.9526669623
-0.00972284572
-0.4734564177
0.4748532939
-0.01117649334
-0.4728489512
0.01264237699
0.474365231
-0.01415865681
-0.4722764373
0.01573990811
0.4739241799
-0.008735884499
-0.008651766179
-0.2332803347
0.009642572181
0.2357022749
-0.01207140885
-0.2211134166
0.01994088468
0.2232055441
-0.02209672918
-0.2178640664
0.02686422486
0.2188210213
-0.02789626226
-0.2217244195
0.02966255241
0.2219832042
-0.02996877109
-0.2179468641
0.0295854485
0.2156532061
-0.02729652689
-0.2343953524
0.03193870812
0.2347984887
-0.03230263958
-0.2407490583
0.0326988216
0.2406269256
-0.0324981416
-0.2423751933
0.03034437037
0.2412164542
-0.02909168124
-0.2366437475
0.0238135624
0.2345081088
-0.02161499827
-0.2254423064
0.01435735873
0.2247617114
-0.01367648019
0.01196685205
-0.2243739917
0.2238105423
-0.01140340255
-0.4470548861
0.01941080085
0.4450674362
-0.01742335086
-0.446052151
0.01552586554
0.4442234398
-0.01369715434
-0.01382245891
0.8842072808
0.01174383461
0.01002622539
-0.008044307924
0.8832633695
-0.005179441657
0.8853730631
0.8792976887
-0.004555454906
0.9579487215
-0.009182334525
0.9579557528
-0.01394027055
0.9578409054
-0.009518278785
0.9576297094
-0.009384738835
-0.4761964011
0.4775190564
-0.01084093408
-0.4758242826
0.01221424826
0.4772271861
-0.0136171518
-0.4754890484
0.01505937949
0.4769682624
-0.008325983885
-0.008212609629
-0.237401172
0.009093676366
0.2377902645
-0.009482768818
-0.2320596976
0.01227197818
0.2356855952
-0.01590916215
-0.2243160401
0.0255891725
0.2269607771
-0.02827048743
-0.2246605756
0.0345193821
0.226169785
-0.03605784296
-0.2098174087
0.03583388663
0.2088700828
-0.03488809864
-0.2346700793
0.03930007586
0.2342275586
-0.03882723296
-0.2380295468
0.0357644131
0.2364861799
-0.03417031131
-0.2354098869
0.02770541454
0.2327917806
-0.02504347598
-0.2261528902
0.01593696792
0.2240766333
-0.01385598401
-0.223258092
0.01258784822
0.222821166
-0.01215092223
0.01081513113
-0.222318423
0.2218664115
-0.01036311961
-0.4432310375
0.01787622316
0.4415383087
-0.01618349439
-0.4425352997
0.0145316871
0.4409082267
-0.01290461416
-0.01643662922
0.8782995068
0.01102598566
0.01131841757
-0.01080127089
0.8776280112
-0.002551433079
0.8771232253
0.8767462557
-0.004392157228
0.9623408787
-0.008837406841
0.9624010024
-0.01337359957
0.9623770982
-0.009119375055
0.9623083531
-0.008932868244
-0.4787797094
0.4800131077
-0.01035277339
-0.4785656791
0.01161967109
0.4798439266
-0.01289791865
-0.4783616526
0.01419429559
0.4796718021
-0.007818271846
-0.007686173261
-0.2388707214
0.008486212726
0.2392038797
-0.00881937105
-0.2380735928
0.009812586158
0.2384002931
-0.01013928651
-0.2364216514
0.01109319055
0.2370416145
-0.01171387913
-0.2320126231
0.01899619654
0.2342159979
-0.02120559168
-0.2096209339
0.02312067764
0.2106501426
-0.02414979764
-0.2320839917
0.02604375216
0.2312175477
-0.02516748957
-0.2304248128
0.02030931608
0.2281603988
-0.01803577082
-0.2249726035
0.01327424135
0.2247684106
-0.01307004849
-0.2230741661
0.01232202318
0.2227863027
-0.01203415979
-0.221668047
0.01108415184
0.2213292759
-0.01074538079
0.009687188949
-0.2206669138
0.2202984703
-0.009318745525
-0.439980503
0.01624936636
0.4385477081
-0.0148165714
-0.4394187591
0.01339016621
0.4379883013
-0.01195970839
-0.01536898411
0.8729235404
0.01020346421
0.01054148627
-0.01014853567
0.8724075627
-0.005040074806
0.8720147645
0.8717061809
-0.004184008096
0.9665248868
-0.008403911526
0.9666209059
-0.01267832544
0.9666515121
-0.008629468594
0.9666697605
-0.008410264217
-0.48118039
0.4823173688
-0.009766447408
-0.4810564703
0.01092258578
0.4822093185
-0.012075434
-0.4809011114
0.01322919237
0.482051425
-0.007252799397
-0.007126706581
-0.2401262002
0.007836332189
0.2404104378
-0.008120569748
-0.2392876575
0.008951262496
0.2395554508
-0.009219055846
-0.2378675607
0.009988235675
0.2381135243
-0.01023419929
-0.2360200059
0.01091479299
0.2361275998
-0.01102238695
-0.2131639138
0.01036473304
0.2137636772
-0.01096449645
-0.2301889029
0.01195282755
0.2302229684
-0.01198689313
-0.2270886274
0.01189737501
0.2270099898
-0.01181873744
-0.2242302855
0.01145697244
0.2240714928
-0.01129817979
-0.2220279657
0.0107200939
0.2218048585
-0.01049698675
-0.2204255541
0.009753213537
0.2201569313
-0.009484590751
0.008632019006
-0.2193238605
0.2190195474
-0.00832770589
-0.4372286195
0.01465232006
0.4360134295
-0.01343713
-0.436684588
0.01220781608
0.4354326044
-0.01095583258
-0.01419503866
0.8680793064
0.00934518205
0.009694090656
-0.00941449145
0.8676270155
-0.004687272521
0.8672875455
0.8670189084
-0.003947458388
0.9704723452
-0.007915796274
0.9705892438
-0.0119074514
0.9706431672
-0.008085196357
0.9706997794
-0.00785227398
-0.4833873387
0.4844297157
-0.00912757332
-0.4832990214
0.01017580173
0.4843327957
-0.01120957601
-0.483127063
0.01223194572
0.4841325526
-0.006672896963
-0.006564538263
-0.2411972522
0.007185691439
0.2414400032
-0.007428442444
-0.2402854394
0.008126069351
0.240506737
-0.008347366939
-0.2387759361
0.008975593833
0.2389745355
-0.009174193227
-0.2363300755
0.009680978621
0.2363641505
-0.009715053603
-0.2155608395
0.009207734174
0.2161487204
-0.009795615046
-0.230281823
0.01042866035
0.2302892606
-0.01043609797
-0.2267884472
0.01033405563
0.2267184716
-0.01026408003
-0.2236435426
0.009961881423
0.223514548
-0.009832886859
-0.2212071397
0.009368417147
0.2210283935
-0.009189670988
-0.2194325654
0.008591313426
0.2192149075
-0.008373655478
0.007675875703
-0.2182189669
0.2179670963
-0.00742400516
-0.4348903563
0.01315341375
0.4338519965
-0.0121150539
-0.4342942156
0.01105314009
0.4331991908
-0.009958115326
-0.01299520451
0.8637379824
0.008496600178
0.008839928306
-0.008650614202
0.8632824252
-0.004316202447
0.8629531338
0.8627027059
-0.003695712539
0.9741680578
-0.007399774657
0.9742933059
-0.0111023451
0.9743457376
-0.007518885572
0.9744019249
-0.007285605014
-0.4854036596
0.486354148
-0.008469374002
-0.4853080328
0.009415631718
0.4862321803
-0.01033977926
-0.4850723037
0.01124438906
0.4859508073
-0.006106672551
-0.006016220096
-0.2421127573
0.006557884627
0.242320753
-0.00676588039
-0.2411132197
0.00735562997
0.2412980969
-0.007540507111
-0.2395135557
0.008061492493
0.2396762627
-0.008224199457
-0.2363865291
0.008600161236
0.2363713854
-0.008585017542
-0.2178440715
0.008221080678
0.2183805911
-0.008757600208
-0.2302847124
0.009159414638
0.2302759441
-0.009150646387
-0.2265178767
0.009039258007
0.226453752
-0.008975133345
-0.2231606562
0.008713906151
0.2230522555
-0.008605505399
-0.2205426192
0.008220492621
0.220395394
-0.008073267381
-0.2186219688
0.007580361916
0.2184420549
-0.007400448025
0.006819873274
-0.2173009397
0.2170895186
-0.006608452164
-0.4328904867
0.01177210454
0.4319992394
-0.01088085731
-0.4322041435
0.009960263903
0.4312450394
-0.009001159778
-0.01182063393
0.8598599214
0.007687384372
0.008011310554
-0.00789326401
0.8593550553
-0.003945594432
0.8590054642
0.8587571115
-0.003440621134
0.9776086789
-0.00687952721
0.977732212
-0.01029811829
0.9777643287
-0.006956495893
0.9777905135
-0.006730210958
-0.4872373865
0.4881016453
-0.007820754687
-0.4871035732
0.008673595104
0.4879293899
-0.009499411755
-0.4867720795
0.01030080832
0.4875412014
-0.005574529631
-0.005495400603
-0.2428985263
0.005970803593
0.2430776357
-0.00614991298
-0.2418079179
0.006652672264
0.2419643004
-0.006809054791
-0.2401204278
0.007247561421
0.2402551312
-0.007382264858
-0.2362725784
0.007657328496
0.2362248408
-0.007609590928
-0.2198897292
0.007376453502
0.2203573428
-0.007844067121
-0.2302333413
0.008091847856
0.2302146953
-0.008073201919
-0.2262684276
0.007956371453
0.226208832
-0.007896775775
-0.2227507513
0.007665471368
0.222657257
-0.007571977064
-0.2199904161
0.007244703446
0.2198662914
-0.007120578706
-0.2179473574
0.006706029256
0.2177959242
-0.00655459608
0.006064021953
-0.2165275454
0.2163477903
-0.00588426689
-0.4311711835
0.01052567922
0.4304009995
-0.009755495252
-0.4303731463
0.008953382025
0.4295306282
-0.008110864001
-0.01070835612
0.8563993071
0.006935064521
0.007233905845
-0.007169003396
0.8558157026
-0.003589226032
0.8554256869
0.8551678855
-0.003190431916
0.9807991108
-0.006371331219
0.9809131113
-0.009518264744
0.9809112622
-0.006413744267
0.9808859682
-0.006199975176
-0.4889012453
0.4896860868
-0.007198585863
-0.4887083138
0.007967213928
0.4894470089
-0.008705909039
-0.4882628595
0.009417519798
0.488940375
-0.005085287209
-0.005009748062
-0.2435763182
0.005431507215
0.2437314442
-0.005586633143
-0.2423981875
0.006019147082
0.2425321479
-0.006153107496
-0.2406241412
0.006526866215
0.2407364239
-0.006639148942
-0.2360478929
0.006836000778
0.2359798434
-0.006767951312
-0.2216520238
0.006646029909
0.2220478421
-0.007041848168
-0.2301486478
0.007186123503
0.2301238587
-0.007161334383
-0.2260359179
0.007042122112
0.2259801269
-0.00698633105
-0.2223945761
0.00677808516
0.2223123524
-0.006695861475
-0.2195215406
0.006412132521
0.2194148864
-0.006305478261
-0.2173762598
0.005950694362
0.2172467904
-0.005821225002
0.005400976567
-0.2158677165
0.2157131057
-0.005246365734
-0.4296828624
0.009413400767
0.4290125141
-0.008743052463
-0.4287639844
0.00804039363
0.4280211894
-0.007297598649
-0.009678386019
0.853309695
0.00624871431
0.006519283854
-0.006493060068
0.8526303766
-0.003255146048
0.8521877728
0.8519127394
-0.002951489199
0.9837506
-0.005887577797
0.9838491999
-0.008780275064
0.9838039595
-0.005901852473
0.9837123938
-0.005704848181
-0.4904098688
0.49112258
-0.006614563747
-0.4901443083
0.007308019297
0.4908063788
-0.007970089768
-0.4895771966
0.008603521523
0.490176388
-0.00463568879
-0.004567024083
-0.2441647627
0.004939957319
0.2443001011
-0.005075295651
-0.242905957
0.005450981051
0.2430220741
-0.005567098088
-0.2410446849
0.005888845528
0.2411387062
-0.005982866841
-0.2357563022
0.006118963644
0.2356768487
-0.006039510137
-0.2231318837
0.006009304063
0.2234602948
-0.006337715165
-0.2300430631
0.006411092064
0.230014303
-0.006382332002
-0.2258179052
0.006262714537
0.2257654367
-0.006210246002
-0.222079642
0.006020559288
0.2220062835
-0.00594720072
-0.2191164222
0.005697484663
0.2190233972
-0.005604459605
-0.2168856797
0.005296496501
0.2167735389
-0.005184355698
0.004820141543
-0.2152984318
0.2151641261
-0.004685835799
-0.4283852016
0.008429904216
0.4277975397
-0.007842242335
-0.427344285
0.007223197506
0.4266866192
-0.00656553173
-0.008741914855
0.8505464302
0.005632310865
0.005872868761
-0.0058746722
0.849763134
-0.002948414026
0.8492615147
0.8489643254
-0.002727595368
0.9864781954
-0.005435538906
0.9865571434
-0.008093960659
0.9864623813
-0.005427876967
0.9862949562
-0.005248646151