/*--------------------------------*- C++ -*----------------------------------*\
| =========                 |                                                 |
| \\      /  F ield         | OpenFOAM: The Open Source CFD Toolbox           |
|  \\    /   O peration     | Version:  v1912                                 |
|   \\  /    A nd           | Website:  www.openfoam.com                      |
|    \\/     M anipulation  |                                                 |
\*---------------------------------------------------------------------------*/
FoamFile
{
    version     2.0;
    format      ascii;
    class       volScalarField;
    location    "0.69";
    object      k;
}
// * * * * * * * * * * * * * * * * * * * * * * * * * * * * * * * * * * * * * //

dimensions      [0 2 -2 0 0 0 0];


internalField   nonuniform List<scalar> 
12556
(
36.90869568
36.90874845
36.90881407
36.90889424
36.95439797
36.95486647
36.95575274
36.95790529
36.96233674
36.97045741
36.98274399
36.99832236
37.00645333
37.0079901
37.00469215
36.99220389
36.9792972
36.96851753
36.96170507
36.95754567
36.9109149
36.90949824
36.90880159
36.90842059
36.727438
36.72762591
36.72783823
36.72829162
36.77390408
36.7764314
36.78197831
36.81280643
36.83370257
36.87172062
36.93129218
37.00179521
37.03583845
37.04503362
37.03292254
36.99131663
36.92762449
36.87267042
36.81594248
36.7924629
36.73669818
36.73120062
36.72877701
36.72766011
36.54735645
36.54785051
36.54846088
36.54953201
36.59623573
36.60295216
36.61668787
36.66153103
36.71341708
36.80524724
36.93795434
37.05492816
37.11372844
37.13076733
37.10489636
37.03458584
36.92367641
36.80481856
36.69517751
36.64233725
36.56987457
36.55842056
36.55289583
36.55073711
36.36862921
36.36913313
36.37015901
36.37294132
36.42156942
36.43605598
36.46647523
36.53885282
36.64860586
36.83211507
37.04330077
37.21889812
37.3105605
37.31887394
37.26067965
37.1471831
36.98595499
36.80865734
36.62204044
36.51955689
36.41607952
36.39307331
36.38213158
36.3779518
36.19192318
36.19270044
36.19476555
36.2001146
36.25301011
36.27970875
36.33875717
36.45526526
36.6661783
36.95623499
37.28623157
37.56172053
37.73174154
37.71119447
37.57506114
37.36996324
37.13140098
36.87681813
36.62203429
36.43451709
36.27910693
36.23520491
36.21539562
36.20781352
36.01700927
36.01813909
36.02171217
36.03162894
36.09213684
36.1382382
36.24154665
36.43090533
36.74905114
37.19284894
37.74079737
38.29479352
38.65884767
38.5412395
38.16282959
37.76648127
37.38706021
37.02124501
36.66239034
36.39465282
36.16044697
36.0840219
36.0511158
36.03828282
35.84511181
35.84721489
35.85371515
35.86968772
35.9408805
36.01371161
36.17933057
36.45173714
36.89560091
37.55991507
38.50856753
39.93596519
40.69556674
40.55185568
39.21676815
38.40075563
37.77607661
37.24511058
36.74719446
36.40011188
36.0598129
35.94010411
35.88831604
35.86816418
35.67725832
35.68058985
35.69072402
35.71609317
35.80263839
35.90986121
36.15181625
36.49875497
37.08649471
38.01759844
39.57605493
42.78659524
43.66033766
40.92050738
39.29105454
38.30047967
37.54463917
36.8742596
36.42508553
35.97886233
35.80473345
35.72809307
35.69852898
35.51609272
35.52163542
35.53765744
35.57649534
35.67685843
35.82874058
36.15226661
36.571345
37.30654093
38.49885415
40.59739567
45.5224784
48.92436695
43.00988946
40.35786046
38.91327753
37.89683172
37.02896861
36.46615481
35.91641737
35.68089901
35.57446828
35.53360593
35.36301659
35.3709653
35.39330361
35.44704468
35.56634375
35.76937198
36.1685657
36.66053986
37.5306535
38.93682267
41.36847361
46.82572834
52.43341112
44.91124455
41.43639951
39.55477442
38.26247532
37.1959245
36.51904285
35.87187822
35.57307625
35.43370815
35.37988592
35.22081567
35.23231512
35.26338786
35.33611657
35.47250992
35.72929681
36.20066267
36.7624497
37.75433598
39.33061069
41.9898392
47.41192862
54.10574124
46.34002144
42.39649271
40.15174324
38.61449926
37.35778857
36.57759973
35.84279624
35.48460922
35.31169835
35.24396933
35.08923523
35.10398759
35.14320701
35.23430271
35.39364874
35.70466636
36.23928295
36.87217405
37.9707142
39.6910106
42.55618692
47.17932024
54.80499874
47.31490362
43.15819478
40.64942213
38.9132577
37.50100807
36.63520748
35.83053721
35.4161133
35.21155693
35.12978251
34.96951969
34.98859794
35.03939203
35.15177597
35.32675542
35.69138262
36.28028026
36.98232351
38.17523328
40.02391111
43.14178478
46.62356223
42.35866524
54.61151111
47.93053535
43.6954166
41.02567611
39.14253729
37.61632157
36.68506715
35.8247996
35.36562853
35.13208262
35.03742991
34.85937415
34.88256321
34.94398153
35.07467111
35.28106051
35.69983963
36.35709195
37.11419523
38.40141057
40.39366081
43.77611851
45.01070016
52.9983531
54.55579328
48.24336477
44.04004951
41.26497964
39.29448643
37.70270215
36.72340997
35.81845112
35.32710351
35.06878453
34.96291651
34.75768709
34.78491627
34.85637914
35.00476723
35.23362131
35.6962637
36.40000847
37.20926454
38.55183511
40.63604813
44.15623906
41.20241652
54.4177894
53.88769786
48.22779852
44.15973209
41.37713312
39.37678128
37.75310288
36.74717111
35.80709674
35.29310772
35.01501012
34.90019951
34.66089731
34.69203731
34.77272028
34.93816982
35.18903756
35.68780656
36.43339822
37.29770564
38.6919941
40.84025948
44.22871325
37.79200806
52.28468588
52.77802319
47.87876428
44.09431813
41.36443278
39.39138628
37.76992686
36.75376756
35.78405492
35.2548166
34.96362564
34.84190883
34.56780471
34.60256107
34.69122327
34.87203024
35.14304533
35.67067222
36.4513827
37.36587315
38.82998196
41.02939504
44.00383712
33.16961065
50.38534171
51.5297887
47.25827333
43.82852402
41.2769919
39.36455127
37.75729409
36.73802714
35.74677522
35.21057581
34.90916073
34.78221427
34.4743463
34.5124189
34.60810637
34.80300103
35.09249767
35.64268797
36.44824827
37.40067046
38.92462929
41.15452417
43.52325388
27.00877346
49.13526762
50.24337385
46.52471084
43.44290321
41.09096242
39.27519232
37.69928588
36.68558556
35.68757479
35.15058456
34.84618476
34.71578872
34.38103755
34.42202893
34.52354101
34.730301
35.03534688
35.60253251
36.42785685
37.40442385
38.95628836
41.17593596
42.79966769
23.04669629
48.12206768
49.04286397
45.82840356
43.03863545
40.84947105
39.12673839
37.5984152
36.60303076
35.60984835
35.07717507
34.77253504
34.64074858
34.28375411
34.32734841
34.43405559
34.65163393
34.97060085
35.5503111
36.38839044
37.38243784
38.94685307
41.08781758
41.89906326
21.18540814
46.93152482
48.00587938
45.20524426
42.63872143
40.58400625
38.94333001
37.46810374
36.49591074
35.51431609
34.98910866
34.68637403
34.55421854
34.18552464
34.23133524
34.3422867
34.56839981
34.89800533
35.48684944
36.33342275
37.33951704
38.90657313
40.92957424
40.89004651
19.94301432
45.78201021
47.06907112
44.63095584
42.25500533
40.3112248
38.74102727
37.31705159
36.36967859
35.40459577
34.88939219
34.59008719
34.4583138
34.08134882
34.12915852
34.24420635
34.47856251
34.81806897
35.41351555
36.26568423
37.28020603
38.84115508
40.70877819
39.82449809
19.20469775
44.71235138
46.21610779
44.09811278
41.89093699
40.03998543
38.52977558
37.15207087
36.22912856
35.28181608
34.77716849
34.48190555
34.3509685
33.97735633
34.02685436
34.14525955
34.38562905
34.73156375
35.33189833
36.18776242
37.20824793
38.7546652
40.42841811
38.72456749
18.89537438
43.7145857
45.43377333
43.60098339
41.54567909
39.77478503
38.31551842
36.97839287
36.07824929
35.15072463
34.65765355
34.36692816
34.23711991
33.86608384
33.91720302
34.03924497
34.28638572
34.63959648
35.24359934
36.10203356
37.12666335
38.64898485
40.09169852
37.60535707
18.90564823
42.78421404
44.71148324
43.1347931
41.21712834
39.51740793
38.10179474
36.79981649
35.92030311
35.01067316
34.52806436
34.24165471
34.11307081
33.75782013
33.81031612
33.93527872
34.18670443
34.54306245
35.15009592
36.01056584
37.03767048
38.52391556
39.71819844
36.48232131
19.155667
41.91656547
44.04075683
42.69547755
40.90339309
39.26822377
37.89064126
36.61898068
35.7577426
34.86753848
34.39611781
34.11416901
33.98687296
33.64035978
33.69430881
33.82281191
34.08045236
34.44307187
35.05263826
35.91496343
36.94251503
38.37908424
39.32360212
35.37394885
19.60694382
41.10704238
43.41373495
42.27940857
40.60283803
39.02696193
37.68310028
36.43764014
35.59248183
34.71738474
34.25489955
33.97680504
33.85072514
33.53036786
33.58554193
33.71672942
33.97732421
34.34024711
34.95227479
35.81639698
36.84163924
38.21559149
38.91065506
34.29670223
20.1584986
40.34780665
42.82438067
41.88346054
40.31405617
38.79317457
37.47966551
36.25697426
35.42582175
34.56900322
34.11680899
33.84272742
33.71784204
33.4075037
33.46410313
33.59888886
33.86575556
34.23559292
34.84984098
35.71562291
36.73505222
38.03548037
38.48356055
33.26031523
20.72977305
39.63200635
42.26811741
41.50496858
40.03577641
38.56633522
37.28049018
36.07772636
35.25886721
34.41281052
33.96749207
33.69663334
33.57281838
33.29878221
33.35653691
33.49382984
33.76241253
34.12929971
34.74599391
35.61308338
36.6226821
37.84129913
38.0478286
32.26115498
21.25918389
38.9547512
41.74088651
41.14184601
39.76694076
38.34595567
37.08558426
35.90038871
35.09217552
34.26430913
33.82855847
33.56120862
33.43841504
33.17039804
33.22963316
33.37061491
33.6459156
34.02239737
34.64126547
35.5090143
36.50452448
37.63515277
37.60721098
31.29746654
21.70788895
38.31255207
41.24088758
40.79245934
39.50665627
38.1315784
36.89486518
35.72528029
34.92651024
34.10329228
33.67217611
33.40748927
33.28560739
33.06646203
33.12680103
33.27012914
33.5459494
33.91458185
34.53606218
35.40355012
36.38071026
37.41925739
37.16447378
30.37235863
22.06031756
37.70303798
40.76434976
40.45557418
39.2542175
37.92282531
36.70825347
35.55264128
34.76194192
33.95967806
33.53770534
33.27598976
33.15494092
32.93105688
32.99298859
33.14007231
33.42313052
33.80720878
34.43074221
35.29681707
36.25149598
37.19518416
36.7220506
29.488308
22.31472903
37.12455878
40.3087468
40.13031957
39.00912143
37.71942118
36.52567045
35.38266724
34.59928851
33.79188385
33.37247902
33.11307613
32.99281198
32.83638772
32.89934358
33.04863374
33.33145992
33.6993354
34.32561668
35.18883849
36.11725626
36.96366917
36.28174979
28.64548948
22.48043572
36.57590137
39.8722748
39.81609125
38.77102194
37.52116539
36.34701773
35.21559778
34.43819159
33.6602545
33.24924241
32.99211072
32.87249046
32.69072886
32.75543305
32.90853421
33.19818964
33.59332542
34.22121982
35.07987792
35.97840323
36.72632477
35.84471006
27.84135362
22.57279733
36.05659248
39.45414987
39.51260008
38.53979677
37.3280191
36.17240636
35.05200819
34.28027425
33.47864391
33.0697761
32.8149362
32.69602357
32.61049075
32.67613518
32.83124803
33.12214279
33.4877117
34.11845999
34.97090193
35.8353803
36.4847695
35.41207095
27.07367525
22.60629173
35.56719332
39.0545837
39.21989008
38.31550331
37.14003917
36.00185257
34.89344348
34.12566388
33.37165796
32.96717784
32.71364235
32.59513209
32.42562094
32.49354462
32.65341526
32.95151798
33.38804955
34.01949348
34.86522427
35.68924409
36.24235338
34.98848665
26.34550675
22.59952055
35.11169023
38.67738228
38.94003139
38.09908992
36.95773282
35.8356273
34.74465873
33.98066233
33.13801002
32.73652598
32.48547054
32.36771143
45.30049794
49.59205299
44.08963609
46.69823825
53.4464201
50.06520521
47.39627576
55.13771269
53.75597593
47.23229934
55.78166569
55.24603033
46.66127004
39.60034703
41.58602656
56.04391397
55.81898942
45.5748583
47.01206417
39.7363468
52.44965461
56.4459132
56.05886693
42.32162187
40.66383945
43.57734984
40.42323337
54.59571725
46.17762307
48.35100502
43.4848864
41.56023302
41.19524096
45.5446779
44.42691517
57.3630771
60.62352281
52.1169501
45.82445834
44.12067113
41.84625953
46.41873651
45.67511407
47.15322622
49.77262231
50.84625938
54.98640779
54.69064471
53.97215362
47.51747104
46.31798969
42.43151156
46.73444979
46.49110411
47.38302238
45.63829651
47.90933347
56.71112313
55.5872111
43.01302387
46.67493884
46.74456793
46.94191054
40.25551033
42.98919662
41.62109717
57.99061153
57.61189714
43.66327787
46.14768898
46.64262546
46.29165771
33.1399654
36.5307137
43.79624062
49.43680709
47.40570848
50.4471371
52.78300059
45.16571737
49.92776942
60.61968445
54.97579019
47.25015647
53.68502249
59.13131531
50.97278586
51.66746262
46.23466516
52.56743639
51.10734764
52.99247054
52.71965034
54.8307739
57.06828537
51.96712111
58.43683901
56.76820648
59.30001806
58.60205015
51.70732136
48.12633318
49.58787005
47.23997218
49.19316569
47.09378012
51.01272091
49.32266318
55.37860891
55.07593752
54.68572081
57.20264167
57.44267969
56.68102049
57.16329456
54.49967345
43.14062054
45.49711264
47.35479092
44.3932236
41.53874606
46.95309218
44.55226994
57.53767181
56.83834835
36.70664021
40.0555468
46.91164922
45.84762167
37.82770242
33.99535769
41.37790537
38.07098657
48.4621249
58.17214339
58.03331252
40.8900233
40.5258461
33.07173542
46.23981769
43.77113608
32.06601923
88.22783509
33.88869015
32.10444257
43.16115305
40.36735726
44.21642172
42.06175271
44.07967994
48.63041767
44.65934852
70.35091489
50.59958243
46.09618427
51.72898542
51.23226816
63.7480166
54.76503421
48.60577111
47.84980962
74.40324357
46.45231236
44.75323171
47.63525133
58.42036099
58.2622972
51.03026502
49.03620095
44.43658758
60.27737507
48.24468563
57.88096137
45.67322174
52.54292484
46.5571971
44.28221919
41.43556689
55.58970214
57.82172463
57.99600739
57.487568
57.79005134
55.52485666
39.56702355
66.45967155
40.69886935
42.50773837
42.06549
44.54258054
45.51776952
42.52178148
42.56136467
77.02067181
51.04908566
69.98327048
49.13094848
65.05953937
50.04735138
59.64996316
59.85655623
54.73499425
54.72345033
42.26215564
56.21093848
56.25982698
43.36887184
41.58436785
60.29962767
44.54370873
56.10367351
41.74651992
46.48510029
46.08840758
50.01789121
47.45951067
65.76811651
35.43500089
44.02218429
43.46691348
44.73181352
44.22347841
35.57230372
65.6960613
60.86920261
51.64396972
61.3364552
62.42790887
55.91596378
60.9167476
51.96144775
47.37644753
54.87872635
47.27575477
61.39838986
55.83953778
48.12616313
58.80187871
65.48378097
58.85921076
58.44842029
51.88345755
47.22917625
51.7912304
53.13936861
51.28702631
55.23897193
47.69738987
50.77492106
53.08430585
56.06987537
56.25951159
57.64061995
56.54627758
55.96570341
57.08017595
56.69927218
57.5136062
59.63247506
54.57518647
53.45056426
55.73654756
54.89959449
59.57099527
48.23902902
48.10362348
50.28156994
50.17519718
55.63443873
61.52874204
55.5546474
43.25757276
43.06179957
45.82253078
45.65974452
41.60824222
43.55016475
57.18626234
41.25518616
41.89158346
38.76721056
45.37482657
44.89958553
45.95042734
45.52391961
38.94140535
39.68909179
36.80885632
36.63731408
40.24275265
40.08190893
75.69556466
39.37526685
52.72121346
50.79266985
43.25115975
42.72252164
32.39965497
32.68495593
43.38538306
51.76042938
33.37899608
89.11279811
54.27298751
80.78844219
33.29825236
41.25738735
62.54359733
44.74759475
70.15221115
41.30791611
43.63132588
44.08337621
45.48230274
46.01621378
44.3809911
38.10023375
42.49367466
54.87400796
55.65911938
56.3478801
59.0037728
45.27308113
54.73298634
54.55507863
53.28487539
39.38306563
58.46165253
58.45533781
48.30789026
44.53349159
44.1565758
47.52353882
49.19624938
44.31905277
44.64327144
58.46776419
62.30505878
60.37444635
60.48390511
54.7868742
44.91190045
44.51797805
52.7597991
52.40722774
54.45817315
46.65194084
48.21427035
47.93327595
48.55599234
48.3036741
46.81784216
46.97505129
46.61007706
41.90466378
33.71664598
40.02896702
39.55159183
81.50316299
62.96925085
47.51522934
60.16190901
64.83640389
62.82682217
56.55517057
51.07231147
49.39638332
53.02177895
51.5959703
56.95627076
55.30748259
52.73409727
52.85643534
56.51593246
48.78542023
48.83686702
48.6328559
42.82600654
43.41899416
47.53484064
44.50564209
44.33044266
55.25782621
57.29591837
57.64105159
57.60206946
56.53652361
57.40526222
57.17494978
57.58032177
57.45741707
56.53840583
44.33003216
47.42358354
47.09082448
47.83555869
47.5300291
44.48835303
43.91721734
37.6136792
38.00931941
33.93913585
34.25576846
42.08912793
46.48148537
41.86847029
42.66272691
38.16425854
38.60719598
45.02709254
57.27578684
44.13957379
49.04674159
80.43970094
41.74110908
37.33885162
35.23529214
40.89730976
33.6241311
33.8659419
33.06861169
39.20003368
65.84247863
37.89463345
41.2169645
40.29573173
39.39705178
38.94669547
32.89854454
43.74013658
40.78635323
45.67672146
31.95751136
101.5166899
47.00484126
42.86449992
44.68438857
33.69084599
32.25751799
61.83994965
61.38902374
60.46911743
63.35142017
63.04455894
40.09647998
40.81929663
74.92091903
57.80733216
57.66965358
52.12611854
66.14882218
52.22763234
66.55374197
53.37321995
53.38290307
44.66136126
42.30357984
61.52407978
70.83931629
63.46838391
49.04423084
39.31076585
66.58748555
80.16995052
49.75364736
63.05523532
86.46949701
42.31473089
47.09963394
40.07884677
41.5011668
78.53019786
77.51553103
60.28614437
55.65252139
65.18790332
61.25832493
54.76005197
50.94134774
58.18753919
57.32218258
57.38732606
58.8396342
60.34150053
59.86865784
58.00913806
46.6335921
45.32672354
54.73798845
55.35056467
53.9391492
47.93852204
54.49646137
53.32764709
54.49778721
52.52728154
47.2397208
45.18175928
46.81731647
42.06520394
49.19609117
47.92426111
49.90770033
45.54172588
44.31360797
47.43480551
46.09604618
47.95057463
50.69756395
39.91359792
40.01465987
40.70498034
40.17192553
34.28887664
35.98995526
41.29872303
40.85510284
63.91042619
63.18536059
62.68108013
55.5348042
56.26680492
54.27848882
55.25309384
63.04091504
58.96535607
56.81069408
56.67381398
56.45086111
56.76711772
59.31937086
59.45074385
52.73082229
53.9452792
63.48244307
64.03001843
65.3418491
64.35205055
59.87093634
66.0653137
67.70879492
66.49215446
67.36241262
66.4624996
68.22882559
67.09982972
57.01901858
64.33033411
65.52905738
45.53692589
52.07267496
51.01531069
53.06933155
52.35900002
46.25122839
49.55207242
48.82777984
50.64774677
49.80160306
52.8598412
55.78070596
55.13805534
56.53228145
55.98377471
53.42374233
48.92822285
54.00792748
53.30922424
54.91581475
54.2376744
49.372901
52.86307328
52.69622322
55.49058483
56.5071097
54.14485513
52.97844814
42.21524378
41.63907392
43.21302498
42.41715212
40.71878436
40.15424364
41.45590815
40.88857618
47.67868865
47.004954
48.59468244
47.90974114
45.66826101
43.73960418
46.76100121
46.08833249
43.35523686
43.57955608
44.00051118
43.43148319
61.25955099
45.10762406
46.72675563
43.67330025
44.49805804
37.09221407
37.45662981
43.75730546
34.67038305
34.40881532
35.05975048
34.7776284
34.22897138
42.32605009
34.48229008
36.63712923
39.58509928
41.5706471
46.32245922
39.1294858
36.25704285
40.03971891
39.16476702
35.52280638
35.18251513
36.0519098
35.65075608
45.18461393
38.76455292
39.29581264
70.74738555
41.21604284
69.45879929
60.21214005
68.91917981
41.32035507
83.44775417
40.94539971
79.89637598
70.87519798
37.19575258
35.94674017
33.31553577
33.55373449
40.73720261
39.48379245
33.07199061
33.26441576
76.1567028
32.81610097
38.73418347
37.97393499
89.81260917
93.93028573
31.90632007
97.37601399
82.61244062
46.63922557
33.61740872
89.26766223
62.92132864
96.64262092
66.67728006
32.4039235
43.1869521
40.95561332
39.47500603
73.92997926
73.28128483
55.23023949
49.25728278
48.81908903
74.53253956
39.33680582
46.93761318
42.19993139
58.01069691
58.15033044
55.94055746
47.53953582
46.5267798
51.42014023
59.07792019
47.18729729
47.51826178
41.91618715
42.31936954
45.17525718
52.97365083
57.76214633
61.10913506
50.27454593
49.1488917
49.07883355
49.13600176
49.15574399
50.42656612
40.82642517
40.03565212
46.82653702
49.89907339
52.02490679
57.80540701
41.86397284
41.43823596
36.11944739
62.12973617
64.10235371
56.56884237
49.04106985
48.8958142
48.99404934
48.78636309
45.21059734
45.95726731
46.32323278
47.4485338
49.71012188
37.68412869
42.45190846
42.00421375
61.29246429
57.65001712
44.16503521
32.617713
32.66947306
34.17917456
52.87490525
77.10395046
68.75906882
39.74672692
43.01787055
41.19628163
32.03128002
33.81770965
32.52554912
32.57665657
32.14098321
71.17914251
62.8309623
49.59598794
53.31907504
73.22875066
40.75884671
40.28735894
47.0139914
59.37070202
48.81149852
47.00170686
49.60621653
42.78004086
43.18292817
41.09513185
83.46152824
86.61266462
87.73715823
75.97619894
85.23830254
43.84849816
44.27636183
48.1471775
72.7227919
65.97224207
62.59343934
76.26584368
72.93614705
42.76634661
51.58340035
49.28612254
65.97549711
64.82246457
50.60758195
50.75389554
49.62896689
41.88739887
61.37608875
44.41511869
45.45764324
58.5425985
44.09960271
46.16219363
65.31429301
66.24712587
61.67612325
61.81258835
60.24634527
60.08965614
56.62938019
57.90839126
57.43756642
59.89571821
59.62998076
60.37276064
50.84558233
52.32548961
58.81607602
60.67627747
67.89231244
63.28511373
67.80125471
68.2201246
64.64270813
43.51184043
46.20949058
45.58843604
50.64212904
50.35389903
46.94037575
43.02843775
42.73235487
45.05696429
44.63126352
51.80335246
54.51027527
54.10465042
56.99792172
56.57659882
54.60717045
48.05839591
51.38484327
51.04468353
53.69714235
53.29918928
50.29512499
44.40077081
45.00273978
48.65465504
47.67394082
43.6095688
44.20451714
48.56020211
49.1591162
50.61004195
41.05138993
40.86970362
42.47861082
42.24587833
38.16155842
40.60955388
40.46057442
49.82623972
47.72649274
48.35303065
59.87219287
59.08553798
46.43775209
47.40324806
60.92269658
58.69975982
59.04421634
55.33189957
44.34062586
45.03131753
43.01128868
42.5952858
38.06515566
39.40395163
43.51189467
43.13580318
34.39740072
34.46186098
36.92744175
36.50429372
34.1980902
34.27675119
75.5418345
32.37952697
34.13648754
33.09314795
108.8460319
32.17483732
45.26573794
78.44172509
72.71848611
32.17950698
32.21973232
33.46262846
87.72152338
92.83859818
90.63995793
75.22024439
33.16170596
32.08513523
32.13267222
52.45840127
39.65880144
39.91426681
73.51843404
72.41220054
55.93406977
53.01037746
42.63219939
60.32537938
63.17797358
66.3394215
48.06206203
71.78913405
62.56859868
71.94043174
70.20980379
51.13047445
45.95636578
46.9595725
53.45947861
55.10576435
55.53122851
54.42714618
54.71841739
61.72155502
61.44039653
61.88094344
60.46028486
60.90018126
61.02418144
52.97170156
46.79096194
47.16165195
46.2391075
46.48928425
53.40585346
63.92188669
63.13972308
63.25777645
62.38313944
62.77944766
63.34716521
52.51773368
48.28546867
48.71815594
47.51836184
47.90585546
52.73994944
53.98545898
53.89153978
53.23256036
53.26759913
37.72352164
40.42302048
40.27353131
34.02864333
36.69726372
36.55752191
37.11783195
36.86209885
34.12200899
76.87653438
78.46803952
69.90715052
78.32931937
33.05860295
32.99675111
33.22158897
33.14738229
32.5272277
34.55046046
32.74081502
32.89260372
33.71161345
36.2079591
36.08469439
36.43945891
36.31999515
33.7853207
33.39485742
33.289835
34.68282189
33.60895391
33.03821716
79.39396673
75.92085796
58.44682253
78.92561981
35.80937049
34.53898961
38.60296999
32.9669749
35.16318329
35.02372141
31.98905815
101.1341329
102.1607863
65.27664318
96.04974803
88.43636126
32.40780769
32.47801926
33.76119707
32.19197589
66.82124099
74.90534651
67.59970192
70.62324204
65.24762257
54.74395335
72.52536794
66.20746662
64.25838144
63.55742535
74.64528554
57.26395219
64.51134756
58.89709744
55.42819195
62.67511984
55.39181551
59.17218337
67.66039221
69.28718027
60.30297209
66.27497404
71.16507443
70.19147127
71.96098446
68.90136854
73.62557668
83.58240109
83.09666562
81.35338774
53.52491836
74.24173164
67.70439083
81.54769032
83.50525668
58.60454989
64.89115828
70.20289538
85.02609768
72.78992521
56.59324771
60.26229668
71.44270954
66.5551218
72.22153162
63.66745279
67.62470532
71.25928925
73.46153646
72.6097869
56.83265424
57.4028792
57.77322876
56.36053759
56.34787735
56.19949853
59.141386
59.47105852
59.89366048
58.46595438
58.8502146
58.65090288
46.19873653
46.52642629
46.54613482
54.79100208
54.44174177
50.74238188
56.14524379
56.14814897
54.88558933
53.31052499
54.20953288
49.84408888
46.23980942
46.14489182
46.54170146
46.41186209
47.98403002
65.38253996
57.44227499
43.64733893
67.98161033
67.59384631
67.05304056
48.4647363
65.38036702
64.1947992
43.01169472
43.50534683
54.64374458
64.67061265
62.36821878
58.86569691
58.40508955
57.31502865
59.97464696
59.40577018
59.09388412
69.25467314
68.97192415
62.34906559
69.97910327
72.36179106
64.52333722
68.93208382
69.20219252
65.05867849
63.29526777
63.28627262
63.24265734
63.2682198
64.71613557
66.50876613
67.03286711
67.27416315
71.41451699
71.08447514
71.68736878
71.61880487
67.08961982
68.68473919
70.51876225
72.05010175
68.93546091
48.97956472
48.78538492
45.51503353
46.43669962
49.89786746
49.69620375
43.62586633
43.31386526
44.27435432
43.93789311
55.32930648
54.91593854
52.30915091
54.0091885
56.16117714
55.74461519
52.13917832
51.77707584
48.5278836
49.80811816
52.90139176
52.52244762
52.87142235
50.02108214
50.49548018
49.11937639
49.57388865
52.6081498
53.40163784
51.90569476
52.46341325
50.97303432
51.45094807
53.37978306
42.01695005
38.51237919
38.69906513
38.17580867
38.34630474
41.82873583
42.88191977
39.32006537
39.59671885
38.88548617
39.09333483
42.63501359
40.5175868
37.19980413
37.37338207
36.90744648
37.07905996
40.36856492
41.2654819
37.84521922
38.01551535
37.51287542
37.69100854
41.08555965
41.51194218
41.30470229
47.45555824
44.98784786
45.21423989
44.52432427
44.73080335
47.22112945
41.98854517
41.76310887
39.63403686
39.57556879
45.34766811
42.93518489
43.01597225
40.00416508
40.55269112
44.50545461
46.55860817
44.07818691
44.24876324
43.62649645
43.7470953
46.28067808
40.173251
40.06713834
59.21924203
58.60135408
60.67791018
49.09947537
53.31055607
45.48696732
57.64712128
58.49540663
56.61529132
57.19413939
46.14961042
43.83824176
52.24984291
48.51270058
57.18116999
57.65012515
44.25298759
37.16007085
39.75190132
39.6074933
40.09806011
39.96078316
37.36905875
34.60357098
34.47070906
34.96898275
34.84894459
34.11296667
33.5507674
34.87877095
38.25055175
37.56303143
39.26647363
38.95040031
36.58868621
37.07439119
35.1384407
36.13676243
36.58178613
39.77636752
36.61819705
36.81332849
36.25856764
36.53978226
39.69127572
35.41165185
35.28581288
35.90681552
35.77012251
67.70730336
48.13653927
50.05715037
43.95961041
46.04055209
68.92852965
67.4484139
66.20161171
52.56083677
58.87040038
70.03223284
78.45965798
59.045068
62.66457566
49.84294736
54.59173545
80.4840599
32.8055153
32.7508512
32.92582539
32.88021239
33.67083241
33.97845444
36.21957941
32.53236455
32.50384221
32.66976355
32.61488505
33.40337536
35.74310869
35.6010355
35.97422781
35.84441484
33.465187
33.14638779
35.2664996
34.96683788
35.51656524
35.34029836
33.18452015
74.18645024
34.88382368
34.62866611
32.63216963
87.64258165
106.5195656
108.4507805
106.9604945
106.5752727
90.81717127
31.98676328
90.65299653
74.9517276
77.99302027
33.53466218
32.26980277
32.33766707
88.7912498
94.32488522
93.39490049
81.91117465
87.01839703
97.65570888
94.92227609
70.73058009
91.65707099
83.9999807
32.19067635
32.06045378
32.86739984
36.69722348
36.7265807
36.82684382
36.73930331
36.79293566
36.85972929
36.81440182
36.89939816
36.91360298
36.92758753
37.01035704
36.98194842
37.03256498
37.07705826
37.02923434
37.08534274
37.10297609
37.04450034
37.10259521
37.08958605
37.03875633
37.0811394
37.03801366
37.00853159
37.01865568
36.94494809
36.94482055
36.91924887
36.83663217
36.88530793
36.56625269
36.62913591
36.6975428
36.65764182
36.77291969
36.77844898
36.81711756
36.95892044
36.90505726
37.00649816
37.13146294
37.03053045
37.16254236
37.23302635
37.10252353
37.24781308
37.26100126
37.13181093
37.2563329
37.22695582
37.11497542
37.2101666
37.13989661
37.05630171
37.11049302
37.00387658
36.95313361
36.96368562
36.84076123
36.8308969
36.47219836
36.60147307
36.61408927
36.65612214
36.84466967
36.78238479
36.91492697
37.13655086
36.99064214
37.2086243
37.39980421
37.18297181
37.45649907
37.58217688
37.29407973
37.6014983
37.60359294
37.32221473
37.58073165
37.50874392
37.28110533
37.47480156
37.34994536
37.18000056
37.30171859
37.14216872
37.03052702
37.0855928
36.91174858
36.85112066
36.43066475
36.63916413
36.60463615
36.72135377
37.01111819
36.8775128
37.12110275
37.48113377
37.20463517
37.60236863
37.96215047
37.50075331
38.0719683
38.31967438
37.71045482
38.3614103
38.34328319
37.71504643
38.25526658
38.05513121
37.61861855
37.97936026
37.73317626
37.42655277
37.64777038
37.39437301
37.19343882
37.30997925
37.06287284
36.94111602
36.44355057
36.73468578
36.65846287
36.85483686
37.28814819
37.07035197
37.45685027
38.05373786
37.59778524
38.28226329
39.08868651
38.16256686
39.40081128
40.29513355
38.5952938
40.36266297
40.11338757
38.56103878
39.72497691
39.09981964
38.26330697
38.89722055
38.3715398
37.86419534
38.21527569
37.79608603
37.47969608
37.66476722
37.2988032
37.11233623
36.48592505
36.87723778
36.76641184
37.03988701
37.64964806
37.36941051
37.90223782
38.87146246
38.23726255
39.29614782
41.67988251
39.49878845
40.76291965
41.311521
40.21680874
42.01870881
42.02353478
40.70046948
41.41216284
40.68853883
40.17193652
40.43699849
39.33082146
38.57904683
39.05049534
38.35108671
37.92134388
38.15130843
37.62400475
37.37061548
36.55128964
37.04358494
36.91317168
37.25066358
38.04391216
37.7424509
38.38228575
39.74153571
39.09585906
39.85411864
40.50080011
40.16446906
43.24346175
43.97303649
43.39455002
45.7263287
44.19930587
42.73848608
42.48459202
40.54762103
39.61065044
40.10218621
39.04694959
38.51902591
38.75918607
38.01957773
37.71578618
36.63690512
37.22679032
37.08894139
37.47429906
38.42517687
38.14141605
38.83169731
40.45886759
39.93691676
40.81130201
41.65513696
41.40391283
45.73403618
47.0178198
46.77401314
50.50510578
47.56936352
46.34048323
44.47453942
41.81035663
40.85241433
41.20360877
39.78083373
39.22063957
39.40165933
38.44456278
38.12348529
36.73607149
37.41517106
37.2737313
37.6983198
38.77806108
38.51629135
39.2354431
41.03963479
40.61350046
41.53511861
42.48314224
42.29482649
46.94475964
48.5553898
48.45423361
53.23092869
49.95662523
49.19750006
46.02157546
42.91695012
42.0885465
42.18791282
40.4756782
39.95227715
40.01278009
38.85518153
38.54626848
36.84315922
37.60239469
37.46297266
37.91653252
39.10425577
38.86250323
39.60311584
41.55402847
41.17047804
42.14139295
43.17410947
42.99754352
47.41069413
48.15935355
48.31880112