/*--------------------------------*- C++ -*----------------------------------*\
| =========                 |                                                 |
| \\      /  F ield         | OpenFOAM: The Open Source CFD Toolbox           |
|  \\    /   O peration     | Version:  v1912                                 |
|   \\  /    A nd           | Website:  www.openfoam.com                      |
|    \\/     M anipulation  |                                                 |
\*---------------------------------------------------------------------------*/
FoamFile
{
    version     2.0;
    format      ascii;
    class       surfaceScalarField;
    location    "0.69";
    object      meshPhi;
}
// * * * * * * * * * * * * * * * * * * * * * * * * * * * * * * * * * * * * * //

dimensions      [0 3 -1 0 0 0 0];
oriented        oriented;


internalField   nonuniform List<scalar> 
25162
(
0
0
0
0
0
0
0
0
0
0
0
0
0
0
0
0
0
0
0
0
0
0
0
0
0
0
0
0
0
0
0
0
0
0
0
0
0
0
0
0
0
0
0
0
0
0
0
0
0
0
0
0
0
0
0
0
0
0
0
0
0
0
0
0
0
0
0
0
0
0
0
0
0
0
0
0
0
0
0
0
0
0
0
0
0
0
0
0
0
0
0
0
0
0
0
0
0
0
0
0
0
0
0
0
7.509870941e-09
1.71228171e-09
-1.914325789e-08
0
-1.500123727e-08
1.631451155e-08
0
0
0
0
0
0
0
0
0
0
0
0
0
0
0
0
0
0
0
0
0
0
0
0
0
0
0
0
0
0
0
0
0
0
0
0
0
0
0
0
0
0
0
0
0
0
0
0
0
0
0
0
0
0
0
0
0
0
0
0
0
0
0
0
0
0
-3.521824036e-08
-1.598320612e-07
3.240011186e-06
9.426079492e-07
-1.26223942e-05
-6.523666168e-06
2.936139743e-05
8.9761817e-06
-1.599036008e-05
-1.758908348e-05
2.728377578e-05
2.068587606e-05
2.813551879e-06
-2.840056084e-05
-5.721187081e-06
2.965587672e-05
1.617217477e-05
-2.697098136e-05
-2.928384391e-05
2.384587723e-05
7.617199615e-06
-1.083882843e-05
-2.041053905e-05
6.657260573e-06
0
-1.767439742e-07
-4.882572498e-07
0
0
0
0
0
0
0
0
0
0
0
0
0
0
0
0
0
0
0
0
0
0
0
0
0
0
0
0
0
0
0
0
0
0
0
0
0
0
0
0
0
0
0
0
0
0
0
0
0
0
0
-1.714964694e-06
-6.101155659e-07
8.860592479e-06
3.984491659e-06
-6.387508743e-05
-2.851886191e-05
0.0001001419236
3.928578118e-05
-0.0001138003274
-7.751081311e-05
0.0001492150647
9.232731425e-05
-6.782414522e-05
-0.000140544701
8.044825664e-05
0.0001563293215
2.562979936e-05
-0.0001943159774
-3.653446543e-05
0.0002017745809
8.865363087e-05
-0.0002013663484
-0.0001139515024
0.0001925774916
8.650413361e-05
-0.0001415330076
-0.0001148531522
0.0001184731396
3.493774283e-05
-4.814990735e-05
-5.66231702e-05
2.918184596e-05
0
-6.723135755e-07
-1.325650481e-06
0
0
0
0
0
0
0
0
0
0
0
0
0
0
0
0
0
0
0
0
0
0
0
0
0
0
0
0
0
0
0
0
0
0
0
0
0
0
0
0
0
0
0
0
0
5.651661796e-07
3.446931254e-07
-7.467465581e-05
-3.645110968e-05
0.0001090625793
5.894234489e-05
-0.0002395115447
-0.0001417459456
0.000290397424
0.0001742739345
-0.0002556828719
-0.0002812764384
0.0002864446115
0.0003179968097
-0.0001066317631
-0.0004183753162
0.0001108117384
0.000445574056
7.76838002e-05
-0.0005018847827
-9.160229911e-05
0.0005119493477
0.0001987288501
-0.0005133929212
-0.0002276220037
0.0005024511978
0.0002088770674
-0.0004260436617
-0.0002415576821
0.0003851390899
0.0001478787225
-0.0002504819639
-0.000175717546
0.0001926045492
3.571447048e-05
-5.435775173e-05
-5.428096958e-05
2.624971023e-05
0
0
0
0
0
0
0
0
0
0
0
0
0
0
0
0
0
0
0
0
0
0
0
0
0
0
0
0
0
0
0
0
0
0
0
0
0
0
0
0
0
0
-1.79548726e-05
-5.968058915e-06
2.956379263e-05
2.489537689e-05
-0.0002393150659
-0.0001399792153
0.0002829194768
0.0001915557903
-0.0004415957512
-0.000376537035
0.0004788830687
0.0004448133796
-0.0003518837834
-0.0006235421125
0.0003767889633
0.0006602900547
-0.0001124171756
-0.000759908049
0.0001122294447
0.0007749312894
0.0001205366531
-0.0007926312479
-0.0001234099303
0.0007946368839
0.0003106351505
-0.0008053242314
-0.0003303572691
0.000801868246
0.0003709015095
-0.0007719853995
-0.0004012443253
0.0007262832154
0.0002524820301
-0.0005172632958
-0.0002783348064
0.0004371742336
0.0001144130885
-0.0001962836978
-0.0001333512404
0.0001292136901
-8.302167743e-06
3.924347786e-06
-6.789370377e-06
1.267411842e-07
0
0
0
0
0
0
0
0
0
0
0
0
0
0
0
0
0
0
0
0
0
0
0
0
0
0
0
0
0
0
0
0
0
0
0
4.964014196e-07
5.589322666e-09
2.209755523e-07
-6.912700071e-05
-3.605979564e-05
8.407887058e-05
7.995228878e-05
-0.0003996701597
-0.0002858933456
0.0004211778925
0.0003838889199
-0.0005647383473
-0.0006563699149
0.0005838849479
0.0007410154802
-0.0003840701949
-0.0009458810595
0.0003703101301
0.0009950511385
-0.0001266754626
-0.001039880427
8.293022355e-05
7.115907763e-05
0.0004929368698
0.0005195297182
-0.0004892735479
5.510956547e-05
-5.539529681e-05
0.0004895592793
-0.0005086814598
0.0003865218422
0.001034339472
-0.0005308817339
-0.0001914465143
-0.0001898516065
-0.0009965519969
0.0004604804398
-0.0004823447163
0.0009674268971
0.000347737146
-0.0007736770284
-0.0003708279188
0.0006852422786
0.0001828679128
-0.0003718357562
-0.0001975609642
0.0002717738142
-5.2810608e-05
2.877922355e-05
-3.671056821e-05
1.655513549e-05
0
0
0
0
0
0
0
0
0
0
0
0
0
0
0
0
0
0
0
0
0
0
0
0
0
0
0
0
0
0
0
0
0
-2.08425106e-06
0
4.476293849e-06
2.233824143e-06
3.534949736e-06
-0.0001154637309
-7.242671135e-05
0.0001193046312
0.0001413541423
-0.0004864301999
-0.000445460371
0.0004946661892
0.0005650075344
-0.0006145881786
-0.000913989498
0.0006179294397
0.001012511043
-0.0003506074457
-0.001200048784
0.0003459913925
0.001216786382
-6.45380592e-05
-0.0006104183012
6.564964257e-05
0.0006093067178
-0.0006046037675
0.0001744228279
-0.0001734833185
0.0006036642581
-0.001209147216
0.0005297053585
-0.0005384594237
0.001189400633
0.0004149366499
-0.0009888573559
-0.0004229098636
0.000883945953
0.0002282676164
-0.0005156825216
-0.000233660527
0.0003937232082
-0.0001080459284
5.439441171e-05
-6.203629668e-05
4.706528178e-05
0
0
0
0
0
0
0
0
0
0
0
0
0
0
0
0
0
0
0
0
0
0
0
0
0
0
0
0
0
0
0
0
0
-5.822641426e-06
0
7.360579691e-06
6.973402527e-06
8.097268692e-06
-0.0001388220303
-0.0001034344615
0.000142977045
0.0001902746485
-0.0005223103929
-0.0005592041909
0.0005279376753
0.0007015102704
-0.0006259015873
-0.001106175016
0.0006275991201
0.001214923622
-0.000339447014
-0.001399579385
0.0003384896814
0.001406489903
-6.216578092e-05
-0.0006976248608
6.215460112e-05
0.0006976360406
-0.0007016719149
0.000171571801
-0.0001711989132
0.0007012990271
-0.001412068408
0.0005528813249
-0.0005551851344
0.00139670021
0.00045042018
-0.001188824561
-0.0004561554249
0.001073803872
0.0002527427679
-0.0006555570296
-0.0002569733841
0.0005114494305
-0.0001518220554
7.122354735e-05
-7.422618892e-05
7.366120627e-05
0
0
0
0
0
0
0
0
0
0
0
0
0
0
0
0
0
0
0
0
0
0
0
0
0
0
0
0
0
0
0
0
0
-8.857755636e-06
0
1.091791492e-05
1.184881452e-05
1.35337438e-05
-0.0001533302928
-0.0001316525013
0.0001575145192
0.0002348256076
-0.0005418890181
-0.000663102431
0.0005473505893
0.000825815502
-0.0006319979528
-0.001281764869
0.0006335563353
0.001401852519
-0.0003364052521
-0.001596699148
0.0003357621799
0.001601123598
-6.195327114e-05
-0.0007940739987
6.219115495e-05
0.0003952051416
0.0003986309733
-0.0007990403754
0.0001698779145
-0.0001695474059
0.0007987098668
-0.001605116418
0.0005521364698
-0.0005495061919
0.001581902851
0.0004536358155
-0.001330759808
-0.0004516787056
0.001197763594
0.0002545036598
-0.0007250757497
-0.0002532378618
0.0005650951426
-0.0001676172742
7.214613857e-05
-7.121792349e-05
8.113916438e-05
0
0
0
0
0
0
0
0
0
0
0
0
0
0
0
0
0
0
0
0
0
0
0
0
0
0
0
0
0
0
0
0
0
-1.316882197e-05
0
1.575865335e-05
1.951980691e-05
2.188722361e-05
-0.0001706026297
-0.0001666874444
0.0001752107109
0.0002878925615
-0.0005639335757
-0.0007786389636
0.0005696156128
0.0009620792735
-0.0006380092333
-0.001467988066
0.0006394346211
0.001598265367
-0.0003338901857
-0.001798383798
0.0003333919052
0.001800475476
-6.190402677e-05
-0.0008940216445
6.195469922e-05
0.0004453948166
0.0004485761555
-0.0008974434199
0.0001682574299
-0.000167869384
0.000897055374
-0.001793931446
0.0005336708209
-0.0005254149475
0.0017474336
0.0004283704269
-0.001408766291
-0.0004268967217
0.001264121553
0.0002343990709
-0.0007347430931
-0.0002293044152
0.0005618158532
-0.0001477159354
5.764133626e-05
-5.448806535e-05
6.361641759e-05
0
0
0
0
0
0
0
0
0
0
0
0
0
0
0
0
0
0
0
0
0
0
0
0
0
0
0
0
0
0
0
0
0
-1.889701574e-05
0
2.006540254e-05
3.080113628e-05
3.256571627e-05
-0.0001902567792
-0.0002088749726
0.0001961351728
0.0003493440427
-0.0005875683358
-0.0009036754603
0.0005943383562
0.001107365288
-0.0006435609542
-0.00165987987
0.0006449103703
0.001798732826
-0.0003322865235
-0.001998251804
0.0003322501135
0.00199846094
-6.193171422e-05
-0.0009930994182
6.189374914e-05
0.0004948349477
0.0004983024356
-0.000993423023
0.0001662255907
-0.0001660214141
0.0009932188464
-0.001952563517
0.0005002409206
-0.0004894085231
0.001872596556
0.0003937062413
-0.001457847395
-0.0003710711723
0.001266963499
0.0002028456737
-0.0006779764303
-0.0001889273992
0.0004981957662
-0.0001055347932
3.757754067e-05
-3.243288869e-05
3.453535242e-05
0
0
0
0
0
0
0
0
0
0
0
0
0
0
0
0
0
0
0
0
0
0
0
0
0
0
0
0
0
0
0
0
0
-2.820629869e-05
0
3.703553993e-05
5.128018421e-05
5.967057128e-05
-0.0002134902454
-0.0002651119724
0.0002288473543
0.0004237366255
-0.0006168285167
-0.001047126638
0.0006238936624
0.001271150438
-0.0006485686021
-0.001868479883
0.0006557340156
0.002009213587
-0.0003320947585
-0.002197049088
0.0003328105956
0.001092000454
0.001104332797
-3.261100647e-05
-0.0005438877435
3.275885323e-05
0.0005437398968
2.086048663e-05
-0.0002710068022
-2.031282341e-05
0.0005423679918
-0.0002719088527
-0.001086821856
0.0001650105233
-0.0003439841023
0.002186053868
-0.001098762049
0.0001785036167
0.0004599405389
-0.002059258865
-0.0004379506179
0.001930237096
0.0003287246511
-0.001415196337
-0.0003161141535
0.001207330163
0.000157299887
-0.0005860746615
-0.0001489181345
0.0004063583634
-4.660041409e-05
1.370440555e-05
-1.083718898e-05
4.605361941e-06
0
0
0
0
0
0
0
0
0
0
0
0
0
0
0
0
0
0
0
0
0
0
0
0
0
0
0
0
0
0
0
0
0
-4.2092507e-05
0
3.452848785e-05
7.434057846e-05
6.930902832e-05
-0.0002521158883
-0.0003357086488
0.0002442049899
0.0005251583242
-0.0006489634906
-0.001229310318
0.0006389916563
0.001475436747
-0.0006453293794
-0.002102064001
0.0006442514463
0.002243991977
-0.000326142129
-0.002396739531
0.000326142129
0.001192445097
0.001204294434
-3.055821275e-05
-0.001192445097
5.760109948e-05
-2.704288671e-05
0.0005943941428
0.0005980509539
5.489436208e-05
-0.0005943941828
-5.489430206e-05
0.001192445097
-0.000598050974
-0.002396739531
0.0003481477208
-0.0003455065871
0.002388939061
0.0003989642208
-0.002093840819
-0.0003866628904
0.00193150371
0.0002769956196
-0.00129830645
-0.0002542116228
0.001066372728
0.0001130450176
-0.0004324422847
-0.0001034736925
0.0002784829186
-6.818657174e-06
2.180568468e-06
-9.938599379e-07
0
0
0
0
0
0
0
0
0
0
0
0
0
0
0
0
0
0
0
0
0
0
0
0
0
0
0
0
0
0
0
0
0
0
-2.136862532e-05
0
7.778284988e-06
3.643533859e-05
2.312771298e-05
-0.0001888764643
-0.0002581561055
0.0001627110508
0.0004363762341
-0.0005619138875
-0.001147530881
0.0005213635789
0.001408881445
-0.0006231753469
-0.002111660563
0.0006057152932
0.002288135115
-0.0003433398063
-0.002577584117
0.0003556777212
0.00259766542
-5.760109948e-05
-0.002595868349
0.0001011424879
0.002595868349
-4.354138846e-05
0.0001238504185
-0.002595868349
-0.0001238504186
0.002595868349
0.0003260109849
-0.002545150752
-0.0003136800402
0.002469202413
0.0003332531789
-0.002022020357
-0.00031373552
0.001812424328
0.0002028533039
-0.00109850139
-0.0001889568479
0.0008602902837
6.621678396e-05
-0.000264846256
-5.347769354e-05
0.0001382651475
0
0
0
0
0
0
0
0
0
0
0
0
0
0
0
0
0
0
0
0
0
0
0
0
0
0
0
0
0
0
0
0
0
0
0
0
0
-1.889516163e-07
0
0
2.102238759e-07
0
-7.840267575e-05
-9.250560401e-05
5.319913767e-05
0.0002091763723
-0.0003662787567
-0.0007815438435
0.0003082719312
0.001019200805
-0.0005083356655
-0.001737239194
0.0004609902582
0.001948573692
-0.000357836065
-0.002419421019
0.0003441226305
0.002517411249
-0.0001083809795
-0.002665631591
0.0001096899431
0.00267870685
0.0001163062943
-0.002634811237
-0.0001068480739
0.002588200941
0.0002565659578
-0.002313723741
-0.000231588404
0.002171804906
0.0002407520137
-0.001612750243
-0.0002133723877
0.001395871267
0.0001363448733
-0.0007375455143
-0.0001162859072
0.000538474583
2.341721129e-05
-9.960537387e-05
-1.425743405e-05
2.740282568e-05
0
0
0
0
0
0
0
0
0
0
0
0
0
0
0
0
0
0
0
0
0
0
0
0
0
0
0
0
0
0
0
0
0
0
0
0
0
0
0
0
0
0
-5.302707852e-06
-2.17344337e-07
8.588383084e-07
1.646837189e-05
-0.0001424992375
-0.000289857775
9.678520346e-05
0.000443191896
-0.0002916444008
-0.0009933880377
0.0002331102523
0.001181446062
-0.0002630602932
-0.00166937533
0.0002265997777
0.001792451363
-0.0001013124391
-0.002016211427
9.375907983e-05
0.0020414463
6.540594823e-05
-0.001973764561
-5.079656411e-05
0.001905029575
0.0001488604828
-0.001572992116
-0.0001218181716
0.001426572636
0.0001299460098
-0.0009247093108
-0.0001035250725
0.0007512248637
5.514022342e-05
-0.0002852055157
-3.676974515e-05
0.0001669580386
2.16090125e-07
-7.211017246e-07
0
0
0
0
0
0
0
0
0
0
0
0
0
0
0
0
0
0
0
0
0
0
0
0
0
0
0
0
0
0
0
0
0
0
0
0
0
0
0
0
0
0
0
0
0
0
0
0
-1.058020579e-05
-7.678247231e-06
1.614667611e-06
3.584878513e-05
-8.291308886e-05
-0.000251623569
4.756277027e-05
0.000350695442
-0.000112242234
-0.0006551096805
7.840744699e-05
0.000743365844
-5.896972174e-05
-0.0009214611286
4.527945384e-05
0.0009457104917
1.692835218e-05
-0.0009060769147
-1.016985511e-05
0.0008576834308
5.307610338e-05
-0.0006309148372
-3.57781562e-05
0.000536965743
3.614769083e-05
-0.0002485727683
-1.984055393e-05
0.0001640619799
1.971746949e-06
-9.466225888e-06
-5.59474622e-09
1.021801549e-07
0
0
0
0
0
0
0
0
0
0
0
0
0
0
0
0
0
0
0
0
0
0
0
0
0
0
0
0
0
0
0
0
0
0
0
0
0
0
0
0
0
0
0
0
0
0
0
0
0
0
0
0
0
0
-2.470185127e-07
0
0
1.323160208e-06
-1.023041473e-05
-3.635433419e-05
1.598956204e-06
5.637274883e-05
-1.017415705e-05
-0.0001097947248
3.425709772e-06
0.0001191240188
1.043664374e-06
-0.0001103282937
-2.646051407e-07
9.611959415e-05
3.748692569e-06
-3.809905211e-05
-3.164262848e-07
2.098666963e-05
0
0
0
0
0
0
0
0
0
0
0
0
0
0
0
0
0
0
0
0
0
0
0
0
0
0
0
0
0
0
0
0
0
0
0
0
0
0
0
0
0
0
0
0
0
0
0
0
0
0
0
0
0
0
0
0
0
0
0
0
0
0
0
0
0
0
0
0
0
0
0
0
0
0
0
0
0
0
0
0
0
0
0
0
0
0
0
0
0
0
0
0
0
0
0
0
0
0
0
0
0
0
0
0
0
0
0
0
0
0
0
0
0
0
0
0
0
0
0
0
0
0
0
0
0
0
0
0
0
0
0
0
0
0
0
0
0
0
0
0
0
0
0
0
0
0
0
0
0
0
0
0
0
0
0
0
0
0
0
0
0
0
0
0
0
0
0
0
0
0
0
0
0
0
0
0
0
0
0
0
0
0
0
0
0
0
0
0
0
0
0
0
0
0
0
0
0
0
0
0
0
0
0
0
0
0
0
0
0
0
0
0
0
0
0
0
0
0
0
0
0
0
0
0
0
0
0
0
0
0
0
0
0
0
0
0
0
0
0
0
0
0
0
0
0
0
0
0
0
0
0
0
0
0
0
0
0
0
0
0
0
0
0
0
0
0
0
0
0
0
0
0
0
0
0
0
0
0
0
0
0
0
0
0
0
0
0
0
0
0
0
0
0
0
0
0
0
0
0
0
0
0
0
0
0
0
0
0
0
0
0
0
0
0
0
0
0
0
0
0
0
0
0
0
0
0
0
0
0
0
0
0
0
0
0
0
0
0
0
0
0
0
0
0
0
0
0
0
0
0
0
0
0
0
0
0
0
0
0
0
0
0
0
0
0
0
0
0
0
0
0
0
0
0
0
0
0
0
0
0
0
0
0
0
0
0
0
0
0
0
0
0
0
0
0
0
0
0
0
0
0
0
0
0
0
0
0
0
0
0
0
0
0
0
0
0
0
0
0
0
0
0
0
0
0
0
0
0
0
0
0
0
0
0
0
0
0
0
0
0
0
0
0
0
0
0
0
0
0
0
0
0
0
0
0
0
0
0
0
0
0
0
0
0
0
0
0
0
0
0
0
0
0
0
0
0
0
0
0
0
0
0
0
0
0
0
0
0
0
0
0
0
0
0
0
0
0
0
0
0
0
0
0
0
0
0
0
0
0
0
0
0
0
0
0
0
0
0
0
0
0
0
0
0
0
0
0
0
0
0
0
0
0
0
0
0
0
0
0
0
0
0
0
0
0
0
0
0
0
0
0
0
0
0
0
0
0
0
0
0
0
0
0
0
0
0
0
0
0
0
0
0
0
0
0
0
0
0
0
0
0
0
0
0
0
0
0
0
0
0
0
0
0
0
0
0
0
0
0
0
0
0
0
0
0
0
0
0
0
0
0
0
0
0
0
0
0
0
0
0
0
0
0
0
0
0
0
0
0
0
0
0
0
0
0
0
0
0
0
0
0
0
0
0
0
0
0
0
0
0
0
0
0
0
0
0
0
0
0
0
0
0
0
0
0
0
0
0
0
0
0
0
0
0
0
0
0
0
0
0
0
0
0
0
0
0
0
0
0
0
0
0
0
0
0
0
0
0
0
0
0
0
0
0
0
0
0
0
0
0
0
0
0
0
0
0
0
0
0
0
0
0
0
0
0
0
0
0
0
0
0
0
0
0
0
0
0
0
0
0
0
0
0
0
0
0
0
0
0
0
0
0
0
0
0
0
0
0
0
0
0
0
0
0
0
0
0
0
0
0
0
0
0
0
0
0
0
0
0
0
0
0
0
0
0
0
0
0
0
0
0
0
0
0
0
0
0
0
0
0
0
0
0
0
0
0
0
0
0
0
0
0
0
0
0
0
0
0
0
0
0
0
0
0
0
0
0
0
0
0
0
0
0
0
0
0
0
0
0
0
0
0
0
0
0
0
0
0
0
0
0
0
0
0
0
0
0
0
0
0
0
0
0
0
0
0
0
0
0
0
0
0
0
0
0
0
0
0
0
0
0
0
0
0
0
0
0
0
0
0
0
0
0
0
0
0
0
0
0
0
0
0
0
0
0
0
0
0
0
0
0
0
0
0
0
0
0
0
0
0
0
0
0
0
0
0
0
0
0
0
0
0
0
0
0
0
0
0
0
0
0
0
0
0
0
0
0
0
0
0
0
0
0
0
0
0
0
0
0
0
0
0
0
0
0
0
0
0
0
0
0
0
0
0
0
0
0
0
0
0
0
0
0
0
0
0
0
0
0
0
0
0
0
0
0
0
0
0
0
0
0
0
0
0
0
0
0
0
0
0
0
0
0
0
0
0
0
0
0
0
0
0
0
0
0
0
0
0
0
0
0
0
0
0
0
0
0
0
0
0
0
0
0
0
0
0
0
0
0
0
0
0
0
0
0
0
0
0
0
0
0
0
0
0
0
0
0
0
0
0
0
0
0
0
0
0
0
0
0
0
0
0
0
0
0
0
0
0
0
0
0
0
0
0
0
0
0
0
0
0
0
0
0
0
0
0
0
0
0
0
0
0
0
0
0
0
0
0
0
0
0
0
0
0
0
0
0
0
0
0
0
0
0
0
0
0
0
0
0
0
0
0
0
0
0
0
0
0
0
0
0
0
0
0
0
0
0
0
0
0
0
0
0
0
0
0
0
0
0
0
0
0
0
0
0
0
0
0
0
0
0
0
0
0
0
0
0
0
0
0
0
0
0
0
0
0
0
0
0
0
0
0
0
0
0
0
0
0
0
0
0
0
0
0
0
0
0
0
0
0
0
0
0
0
0
0
0
0
0
0
0
0
0
0
0
0
0
0
0
0
0
0
0
0
0
0
0
0
0
0
0
0
0
0
0
0
0
0
0
0
0
0
0
0
0
0
0
0
0
0
0
0
0
0
0
0
0
0
0
0
0
0
0
0
0
0
0
0
0
0
0
0
0
0
0
0
0
0
0
0
0
0
0
0
0
0
0
0
0
0
0
0
0
0
0
0
0
0
0
0
0
0
0
0
0
0
0
0
0
0
0
0
0
0
0
0
0
0
0
0
0
0
0
0
0
0
0
0
0
0
0
0
0
0
0
0
0
0
0
0
0
0
0
0
0
0
0
0
0
0
0
0
0
0
0
0
0
0
0
0
0
0
0
0
0
0
0
0
0
0
0
0
0
0
0
0
0
0
0
0
0
0
0
0
0
0
0
0
0
0
0
0
0
0
0
0
0
0
0
-0.0006861990327
0.0006862386106
-6.220535886e-05
-0.0001585747819
0.0006880057451
0.0001589493619
-0.0003463719898
-0.0003420083352
0.00016430071
-0.0006072567547
-0.0001616477228
-0.0007817281679
-6.179558669e-05
0.0003894562103
0.0003921142732
-0.0001555912479
0.0007874764765
0.0001560282216
-0.000395463855
-0.0003924495952
-0.0001573750464
-0.0003530611874
-0.000349810463
-0.0008815413546
-6.181137329e-05
0.0004392768652
0.0004421718359
-0.0001543535754
0.0008843122001
0.0001538457624
-0.0004432787157
-0.0004405256715
-0.0001552652028
-0.000400736487
-0.0003986299334
-0.0009804309917
-6.178733672e-05
0.0004886411853
0.0004916454289
-0.0001515047023
0.0009805999473
0.0001522156485
-0.0009813108934
-0.0008979384241
-0.0001538585711
-0.0005412939911
0.0005412987261
-3.261574145e-05
0.0002707596894
-9.325668075e-06
9.422147183e-06
-0.0002708561685
-0.0002699781391
0.0005400592724
2.153904263e-05
-0.000150064299
0.00107596917
0.0001501340249
-0.001076038895
-0.0009938402135
-0.0001510875118
-0.0005918421534
0.0005918421534
-3.055821276e-05
0.0005918422647
-2.217403412e-05
2.217427921e-05
-0.0005918425097
-0.000271337923
-8.994547306e-06
0.001180033261
-0.0005385543832
-3.421034028e-06
8.678783468e-06
-0.0002693201857
0.002315495835
-0.001175933331
-0.001156481548
0.0001370391083
0.000149200122
-0.001086908158
-0.0001499779974
-0.0005975271716
0.0005971440641
-6.415495173e-05
4.014635757e-05
-0.000489398244
-4.002166153e-05
0.0005950604992
0.0001631321252
-0.0005938919143
0.0001674729771
-0.0005037782714
-0.0001723761655
-2.69621007e-05
0.0001625734055
2.699497927e-05
-0.0001626062841
0.0003052283918
5.700029432e-05
-0.0003060338045
-5.619488165e-05
0.0006877111122
0.0001718664339
-0.0005236755711
0.001359765195
0.0005252807196
-0.001361770663
0.0005214169193
-0.001213915616
-0.0005216826545
-0.001546792699
0.001551702636
-0.0003370064492
7.586247699e-05
-7.584973387e-05
-0.0007817409111
-7.604950832e-05
-0.0006975484434
7.597309084e-05
-2.994809429e-05
0.00018570244
2.982485186e-05
-0.0001855791976
2.715347235e-05
0.0001747261033
-0.0001748215922
-2.705798347e-05
0.0007872364767
0.0001701179143
-0.0005209164109
0.00155879623
0.000521818952
-0.001559773345
-0.001412889657
-0.0005230023225
-0.001748360423
0.001750988449
-0.0003344379435
7.571921031e-05
-7.570734293e-05
-0.0008815532219
-0.0007940842699
7.587274816e-05
6.204961624e-05
-0.0008322812191
-6.203762778e-05
0.0004145046107
0.0004177646199
8.685032292e-06
0.0002092868046
-8.667288491e-06
-0.000417766152
0.0002084616036
-8.596902554e-06
0.0001969322284
-0.0003950767824
8.740429714e-06
0.0001980010269
-2.619752041e-05
0.0002106730434
2.634312695e-05
-0.0002108186499
2.76857371e-05
0.0001985692525
-0.0001979981168
-2.825687276e-05
0.0008842893307
0.0001682802994
-0.000512998976
0.001746645223
0.0005164136147
-0.001753303939
-0.001606460303
-0.0005198329144
-0.001947880458
0.001948568325
-0.0003324822385
7.561240404e-05
-7.560509838e-05
-0.0009804382974
-0.0008939880058
7.568557156e-05
6.159544566e-05
-0.0009312648039
-6.18044756e-05
0.0004642516829
0.0004672221509
3.852661748e-06
0.0002340126644
-3.817368031e-06
-0.0002340479581
-8.801524289e-06
0.0002222882295
-0.000445420284
8.756032454e-06
0.0002231775463
-4.993311479e-05
0.000468000095
5.015086201e-05
-0.0004682178422
5.100950625e-05
0.0004474968491
-5.002911562e-05
-0.0002248686416
-0.0002236085981
-0.002147512225
-0.0003323029254
0.001067669857
0.001080050535
7.568080286e-05
0.0005386387071
-7.551892026e-05
-0.001080094581
-0.0009931102823
7.562326818e-05
3.261981348e-05
-0.0005169774033
0.0005170356837
-3.267809387e-05
2.996423772e-06
0.0002592610438
-3.220406513e-06
-0.000259037061
-3.463375676e-06
0.0002467031023
-0.0002467760689
3.53634231e-06
-0.0002610657947
-1.201553461e-05
0.0002602706942
1.281063509e-05
-4.8483247e-05
0.0005167832211
4.838614413e-05
-0.0005166861182
4.936819846e-05
0.0004955421022
-0.0004955612653
-4.934903535e-05
-0.002291170615
-0.0003266889755
0.001111684201
0.001180033261
7.166583763e-05
0.0005881911071
-7.166583763e-05
-0.001180033261
0.0005480643498
-0.001091940341
7.566905079e-05
3.259342936e-05
-0.0005661959102
0.0005661450873
-3.254260648e-05
3.675470034e-06
0.0002818954793
-3.024345113e-06
-0.0002825466042
-2.566685886e-06
0.0002703644594
-0.000270632331
2.834557498e-06
-0.00127931642
0.00127931642
-5.760109946e-05
0.00127931642
-4.083213021e-05
4.08321302e-05
-0.00127931642
-0.0005943943209
-2.217389595e-05
-5.156263715e-06
-0.0003237297183
5.423943625e-06
0.000161143092
0.0001623189464
4.960816082e-06
-0.0003443943133
-4.988175278e-06
0.0001720550743
0.0001723665982
-0.0003053048484
-1.07441717e-05
1.14677324e-05
0.0003045812877
-0.0003214923929
0.0003217320151
-5.395885853e-06
0.0001739522402
2.717956782e-05
-0.0001739783357
0.0001628738339
-0.0001630290265
-2.680690814e-05
0.0001600771325
0.0006532406044
-0.0001593754842
-0.000329166916
-0.0003247753368
5.770978224e-05
-0.0001632718556
-5.711654365e-05
0.0003255524509
-2.791391895e-05
0.0001739407338
2.792542535e-05
0.000196091763
-8.418141785e-06
-0.0003919882187
0.0001957176949
0.0003709455985
-8.555256946e-06
-0.0003709786921
8.588350523e-06
-6.200105292e-05
-0.0007454598623
6.201818658e-05
0.0007454427286
-5.042500704e-06
5.281843373e-06
0.0001850202529
0.000185686003
2.963383103e-06
0.0001960922097
-2.963829852e-06
-0.0003470721069
5.121292341e-06
0.0001730133348
0.0001738982959
-0.0003682241647
-5.112683694e-06
0.0001838797693
0.0001844145784
0.0001974359737
2.707430658e-05
-0.0001968245432
0.0001871887852
-0.0001869452363
-3.01916432e-05
8.014661963e-05
0.0003743536045
-0.0003744409489
-8.00592752e-05
3.036518184e-05
-3.040316081e-05
0.0001872267642
-2.809778512e-05
0.0001978035268
2.773023204e-05
-2.783920704e-05
0.0001746513914
0.0001858432564
3.022436541e-05
0.0003707081758
8.015688043e-05
-0.0003707184366
0.0002213884015
-8.645707876e-06
-0.0004420797709
0.000220535553
0.0002102516365
-0.0004212314129
8.534672354e-06
0.0002111301364
-0.0008450074116
6.182983499e-05
0.0004211385674
0.0004240886254
-2.866751842e-06
2.826726427e-06
0.0002102916619
3.132613139e-06
0.0002213525925
-3.096804057e-06
2.996728856e-06
0.0001968988826
0.0002093492136
-2.929160792e-06
0.0004438196179
5.094496865e-05
-0.0002222651471
-0.0002214899333
0.0002112978645
-0.0002112660644
-2.622932051e-05
0.0001540858035
0.0008473122073
-0.0001541259554
-0.0004248553436
-0.0004224167118
5.495791451e-05
-0.0002114440852
-5.460320849e-05
0.0004223872436
-5.434437314e-05
0.0004437410621
5.442292894e-05
-2.845756291e-05
0.0001989290303
-0.0002095614715
0.0004196972205
2.722769569e-05
2.826751321e-05
0.0008353073325
0.0001548335261
-0.0004194915836
-0.0004165634715
0.0002459242516
-3.433668884e-06
-0.0002459539584
0.0002347442288
-0.0002347346748
3.843107658e-06
-0.0009429557496
6.186548005e-05
0.0004700170401
0.000472668675
-2.878877098e-06
2.999034942e-06
0.000234624071
2.239188362e-06
0.000245803545
-2.118481712e-06
3.131276166e-06
0.0002222895664
0.0002339800194
-2.846232155e-06
0.0004927569364
4.945006344e-05
-0.0004928388014
0.0004714587024
-0.0004714712175
-4.992059967e-05
0.0002706405162
-2.395324474e-06
-0.0002708118777
0.0002596766552
-0.0002597617154
3.081483961e-06
-0.0005199361758
3.26121064e-05
0.0005199438829
9.54573762e-06
0.0002599347776
-0.0002590390552
-1.044146002e-05
-1.702878806e-06
1.827534479e-06
0.0002595519995
1.845230309e-06
0.0002702720645
-1.47677856e-06
2.40547466e-06
0.000246536816
0.0002594072833
-1.849118372e-06
1.104157052e-05
-0.0002625616276
-9.323414898e-05
0.001075845126
9.313765781e-05
-0.000539066804
-0.0005366818312
0.0005193894255
-0.0005192567393
-4.861593313e-05
-1.200457801e-05
0.000259923821
0.0005967496389
7.593360702e-06
-0.0005940412577
-6.142852318e-06
-4.158889656e-06
0.0002826753196
-0.0002830305175
4.030667949e-06
-0.0005690945081
3.270178595e-05
0.0005689861515
1.283528239e-05
0.0005621241031
-0.0005625943331
-1.236505237e-05
-3.427360055e-06
3.67288403e-06
0.0002824297957
2.439311242e-06
0.0005967516961
-3.28972577e-06
8.483573841e-07
2.235252301e-06
0.0002699744374
-2.941491559e-06
0.0002814096108
0.000559492994
1.364952445e-05
-0.0005603072361
-0.001350055621
0.001358459785
-0.0003410166121
-7.612419396e-05
-0.0006861243471
-7.824947444e-05
-0.0006096411252
7.747229844e-05
6.297541659e-05
-0.0006403919139
0.0006403149993
-6.289850195e-05
8.740133222e-06
-8.775359036e-06
-0.0003214571671
-1.024740316e-05
-0.0003062545775
1.11971323e-05
-3.457627618e-05
0.000155011696
1.067926322e-05
-0.0001311146831
0.0001562157562
2.389443748e-05
-0.0001583111256
-2.179906815e-05
-0.0007334550136
0.0007335421229
-6.208816218e-05
-8.558848522e-06
-0.0003682205731
-8.606719184e-06
-0.0003470732466
8.607858831e-06
-8.038808825e-05
0.0002309447686
3.781992268e-05
-0.000188376603
0.0009802479561
0.0001665775819
-0.0004929442804
0.001917801771
0.0004999214551
-0.001948099352
-0.001802975579
-0.0005100728725
-7.819233154e-05
0.000253879891
3.198034625e-05
-0.0002076679057
-3.482875654e-05
0.0005048130199
3.520093148e-05
-0.0002529559259
-0.0002522292689
1.817088352e-05
0.0002474931048
-0.000247456333
-1.820765535e-05
-1.828870348e-05
0.0005590656456
1.87160519e-05
-9.815657733e-05
0.001120721659
9.582398719e-05
-0.001118389069
0.001086992889
-9.340985343e-05
-0.0005447065155
-0.0005421106689
-8.601465232e-06
-0.0003443995673
-0.0003237499164
8.760331318e-06
-0.0006489221636
6.255057058e-05
0.0006493470096
2.958529671e-06
-0.00016724535
-3.239367672e-06
0.000167526188
-0.0001570610353
-1.998296841e-06
-8.162843279e-08
0.0001591409606
-0.0001572046407
-1.962928646e-06
0.0001574078903
1.759679108e-06
6.241455275e-05
-5.983057194e-05
0.000302644411
-0.0001611912757
0.0003231103278
5.83641357e-05
0.0006403079304
0.0001587935323
-0.0003212471703
-0.0003177771599
0.0002471644999
1.837831875e-05
-0.0002473719351
2.115068214e-05
0.0002419965859
-0.0002427636245
-2.038364356e-05
0.0001531941914
0.0009441757825
-0.0009445898275
-0.0001527801464
5.373826316e-05
-5.35317953e-05
0.0004712522345
-5.30125828e-05
0.0004925988648
5.317065442e-05
-5.403252524e-05
0.0004471850012
0.0004679965424
5.374181571e-05
0.0009331703451
0.0001533832128
-0.0009333593665
1.226444063e-05
0.0002663652126
-0.0002673232733
-1.130637997e-05
-0.0002747608866
-7.668369963e-06
0.0002747300314
7.699225161e-06
-1.493139084e-05
0.0005501402152
1.520147643e-05
-0.0002752832501
-0.0002751270507
0.000267772135
2.124364888e-05
-0.0002678023907
-2.121339317e-05
-0.0005814218971
-1.849280701e-05
1.691070137e-05
1.258025027e-05
0.0002812712403
0.0002891525122
-0.0002993811666
0.0003055125904
-1.687559553e-05
0.0003013433696
5.740137695e-05
-0.0003017444523
0.0005703169785
0.0001217737393
-0.0002875143713
-0.0002720222364
-6.244666405e-05
-7.010744608e-05
3.112512107e-05
-3.16128928e-05
0.0002682599067
0.0001946081291
-0.0002291844053
5.467368676e-05
0.0003157334029
-5.411993061e-05
-0.0001584201355
-0.0001578670236
2.386835376e-05
1.171327293e-05
0.0001590265024
2.292570171e-05
-2.193022857e-05
0.0001552202831
0.0001583110598
2.056899005e-05
0.0003114658725
5.366164332e-05
-0.0001558498202
-0.0001546040088
2.592540164e-05
0.0001803857823
-0.0001804049603
-2.590622364e-05
0.0001800438816
2.604990552e-05
-0.0001801683854
2.588160017e-05
0.0002055612003
-0.000205426767
-2.601603346e-05
0.0002054961681
2.622124497e-05
-0.0002058358129
0.0002340519827
-2.118375583e-05
1.935172637e-05
-0.0002322199532
0.0002356053155
-0.0003010055178
-1.498788601e-05
5.048717686e-05
0.0004586354069
-0.0004586352104
-5.04873734e-05
2.424293574e-05
-2.070192106e-05
0.0002320643008
-2.192290452e-05
0.0002345696514
2.14052358e-05
2.167816634e-05
-3.781274433e-05
0.0002206652282
-0.0002045306503
0.0002295271834
2.566052087e-05
0.0004559026137
5.055395144e-05
-0.0002283034147
-0.0002276659736
0.0002533092918
-4.196833254e-06
-0.0002533877628
4.275304338e-06
-1.901112913e-05
-0.0005071997375
1.904780093e-05
0.0005071630657
1.902808512e-05
-0.000516967182
0.0005170230194
-1.908392246e-05
-3.378331414e-05
0.0005166644181
3.398768758e-05
-0.0005168687916
0.0005077084186
-3.443034385e-05
-0.0002545192069
-0.0002535876244
-0.0003287113174
-8.530633374e-06
0.0002590496192
-5.25125637e-06
0.0002774069048
-0.0002777211294
5.565480959e-06
-1.919789525e-05
-0.0005566181556
1.92542689e-05
0.0005565617819
1.925741447e-05
-0.0005660970556
-1.900048761e-05
0.0002824980357
0.000283342093
-1.911437153e-05
-0.0005436650654
1.924892075e-05
0.0005435305162
-0.0005534725308
0.0005534341644
-1.91595288e-05
0.0002759177382
-4.828475784e-06
-0.0002763405188
-0.0001658059296
1.626164977e-06
-4.491046884e-05
0.0002090902335
-0.0001657603973
3.145471257e-06
0.0001655734557
5.318336723e-06
-0.0003328082957
-5.192299417e-06
0.0001657025585
0.0001669796999
-2.764723628e-06
3.124254228e-06
-0.0001661199279
2.921121725e-06
-0.0001640964516
-4.630599697e-06
-5.214207521e-06
1.549345612e-05
-0.0001728225975
0.0001625433489
-0.0001675064586
-2.503615004e-06
-0.0003362280724
4.947788688e-06
0.0001681075948
0.0001684910256
6.097940145e-06
-0.0003148790373
0.0003150575702
-6.27647308e-06
-2.285030296e-06
2.462825309e-06
-0.0001573824358
-6.184724888e-06
-0.0001523086829
1.432372493e-06
0.0001631936338
2.276535192e-06
-0.0001625490473
0.0001577748927
-0.0001577924631
-2.267459888e-06
-0.0003155248276
5.912817154e-06
0.0003157099506
-2.982690359e-06
0.0001587946544