/*--------------------------------*- C++ -*----------------------------------*\
| =========                 |                                                 |
| \\      /  F ield         | OpenFOAM: The Open Source CFD Toolbox           |
|  \\    /   O peration     | Version:  v1912                                 |
|   \\  /    A nd           | Website:  www.openfoam.com                      |
|    \\/     M anipulation  |                                                 |
\*---------------------------------------------------------------------------*/
FoamFile
{
    version     2.0;
    format      ascii;
    class       volScalarField;
    location    "2.84";
    object      k;
}
// * * * * * * * * * * * * * * * * * * * * * * * * * * * * * * * * * * * * * //

dimensions      [0 2 -2 0 0 0 0];


internalField   nonuniform List<scalar> 
12556
(
36.90871402
36.9087997
36.90894779
36.90918593
36.95455614
36.95582544
36.95803983
36.962532
36.97079342
36.98313845
36.99994229
37.00765976
37.0097181
37.00641546
36.9954309
36.98111829
36.96980804
36.96217124
36.95816859
36.95591154
36.90971389
36.90901837
36.90866633
36.90842002
36.72750422
36.7277665
36.72828451
36.72969228
36.77592885
36.78234823
36.79503781
36.8345983
36.87326293
36.93371381
37.00493791
37.04091108
37.05196211
37.04020044
37.00212215
36.93685777
36.87866905
36.83990691
36.79576939
36.78265372
36.73158758
36.72905416
36.72785622
36.72719907
36.54768802
36.54844758
36.54994228
36.55290477
36.60210994
36.61804009
36.64902058
36.71514678
36.80767824
36.93536861
37.0489256
37.11860874
37.14226252
37.12064153
37.05247157
36.94153396
36.81700506
36.72674272
36.64810575
36.61787543
36.5580507
36.55231481
36.54959302
36.54847714
36.36922617
36.37029887
36.37312788
36.38030296
36.4351559
36.467886
36.53474184
36.65116916
36.82010693
37.00300656
37.16881287
37.28635345
37.33539988
37.30226074
37.19253459
37.0166696
36.82868133
36.66290406
36.52780891
36.46831821
36.39118023
36.37981218
36.3744156
36.372319
36.19266431
36.19469794
36.20026873
36.21371368
36.27947471
36.33890131
36.46475529
36.65270644
36.89296337
37.14941831
37.40659032
37.62695491
37.74722405
37.69520657
37.50492292
37.20755502
36.9107618
36.66861586
36.44859114
36.3388186
36.23270358
36.21139001
36.2017293
36.19797582
36.01723789
36.02048675
36.02991336
36.05403063
36.13901639
36.23925287
36.45300844
36.70268519
37.02279177
37.39171848
37.83703465
38.34031845
38.68275102
38.56928199
38.11172379
37.58302702
37.09386508
36.72488362
36.4170065
36.23434093
36.08551494
36.04727577
36.03098035
36.02463284
35.84452602
35.85020711
35.86652716
35.90723693
36.01241703
36.17132821
36.47296498
36.7993021
37.22497471
37.76051879
38.57854247
40.00009444
40.77076691
40.62650529
39.215115
38.19446914
37.39384247
36.84036194
36.42746658
36.15918075
35.94860122
35.88806597
35.86220389
35.85220038
35.67581821
35.68437643
35.70905842
35.77046785
35.90415299
36.1350825
36.52320457
36.93756298
37.48984187
38.25010872
39.64652988
42.90122609
43.75697432
40.96764297
39.0598023
37.80139488
37.00879472
36.46374681
36.11059025
35.82497982
35.73553545
35.6966799
35.68186782
35.5153079
35.52852325
35.56552936
35.6537803
35.81798182
36.12701654
36.59861883
37.10636495
37.7893432
38.76635088
40.68078948
45.69416576
49.09228955
43.08101838
40.08049293
38.28672828
37.21458715
36.51870012
36.08432519
35.71549294
35.5917984
35.5372676
35.51653352
35.36536883
35.38343087
35.43321969
35.55023263
35.75466483
36.13793534
36.69190819
37.2922141
38.09128214
39.23489164
41.45977527
46.99724839
52.61744422
44.98057813
41.07136605
38.76167066
37.42708207
36.58649586
36.07542539
35.62207666
35.46059485
35.38785861
35.36012105
35.23032011
35.25525862
35.32188535
35.47415641
35.7128057
36.16685582
36.79696019
37.48104317
38.37246181
39.63875055
42.08322156
47.6106271
54.28256021
46.36248091
41.8497187
39.16130585
37.62224139
36.65722249
36.07830244
35.54400632
35.34388817
35.2521768
35.21661127
35.10992645
35.14094553
35.22236938
35.40742143
35.6882553
36.20371065
36.90752345
37.66385454
38.63264298
39.99813087
42.6484751
47.41539505
54.97603255
47.21051887
42.37258401
39.4543179
37.78539788
36.72274768
36.08457934
35.48220521
35.24293508
35.13197109
35.0882755
35.00559476
35.04450093
35.14642064
35.36875244
35.6762618
36.24370396
37.01299216
37.83910928
38.86227759
40.32304965
43.23235484
46.89416863
42.01529924
54.78102809
47.61011656
42.65286402
39.61678859
37.90498213
36.77682893
36.0894157
35.42887685
35.15662236
35.02691344
34.97540506
34.91351436
34.9595335
35.07929387
35.33178386
35.68445367
36.31769374
37.16426248
38.03221828
39.10736157
40.66826675
43.8652392
45.35938947
52.93920369
54.72197081
47.67575365
42.66522181
39.68049965
37.99193062
36.81726563
36.0891076
35.37995536
35.08093515
34.93428237
34.87567126
34.83134057
34.88413376
35.02017178
35.30039691
35.68384358
36.36652988
37.28039153
38.25614761
39.45695246
41.12151531
44.27821814
41.71778342
54.50003689
53.91556025
47.22926279
42.49350362
39.65600473
38.04588078
36.83840599
36.07758113
35.33230951
35.0114828
34.85022206
34.78549931
34.75378132
34.81286578
34.96326665
35.26862514
35.68059134
36.40385217
37.38053717
38.51989206
39.98391866
41.91172921
44.89136282
36.19657535
53.18654904
52.12862312
46.259634
42.11469866
39.57835193
38.05660884
36.83580629
36.04949742
35.27845654
34.94162593
34.76972459
34.69996936
34.67841702
34.74310464
34.90550173
35.23220964
35.66842655
36.42298384
37.45337019
38.7375024
40.62395975
42.97925353
44.30460274
28.2950545
52.68025747
49.79047477
44.97324591
41.63424077
39.50204375
38.03592579
36.80636454
36.00381588
35.21735111
34.8700074
34.68915614
34.61519338
34.60006541
34.66967146
34.84212238
35.18692221
35.64294382
36.41855812
37.48815584
38.81925505
41.02514787
43.48323834
36.7301953
40.00897241
51.25919907
47.60295933
43.86266722
41.25601711
39.39335798
37.96730566
36.73854504
35.93454405
35.14249319
34.7891834
34.60402217
34.52693461
34.51896312
34.59273163
34.77316574
35.13198132
35.60311339
36.39357844
37.48365525
38.84138629
41.03548719
42.82662097
27.9354805
47.02573849
49.66509877
46.19348295
43.25310676
40.9927133
39.22717836
37.85200597
36.64219999
35.84566133
35.05564713
34.70027045
34.51270874
34.4338405
34.43062928
34.50791345
34.69502467
35.06531141
35.54838529
36.34734662
37.45317489
38.82256999
40.94966458
41.99901641
25.63777708
46.11271537
48.46787535
45.52245631
42.83364304
40.70946957
39.02930329
37.7053757
36.5235551
35.7395129
34.95633644
34.60136926
34.41290029
34.33291903
34.33856473
34.41871132
34.61097948
34.98913798
35.47966487
36.28338677
37.39726911
38.77065036
40.79528114
41.1231587
23.881826
44.85966562
47.44402426
44.91824179
42.43208513
40.42165693
38.81528189
37.53851006
36.38804373
35.61898139
34.84684761
34.49464055
34.30644687
34.22591525
34.23776958
34.32033584
34.51716764
34.90202083
35.39865089
36.20481208
37.32308488
38.69301529
40.58540055
40.25921719
22.47208161
43.66227219
46.50752557
44.35371665
42.05100078
40.13789888
38.59442096
37.35946386
36.24011401
35.4870716
34.7271516
34.37839483
34.19095124
34.1102287
34.13519298
34.21972796
34.42002707
34.80855414
35.30723282
36.11451712
37.2349305
38.59464865
40.3317591
39.43300914
21.30183167
42.51685878
45.6398091
43.82210702
41.6888905
39.86227609
38.37237327
37.17388175
36.08344164
35.34652738
34.60104363
34.25709644
34.07091754
33.99028134
34.02330542
34.10960622
34.31336613
34.70592907
35.20751672
36.01506855
37.1361726
38.47904928
40.04155781
38.65717706
20.3344994
41.42012142
44.82733446
43.31865272
41.34342779
39.59605022
38.15247432
36.98557481
35.9210997
35.19972912
34.46721216
34.12739626
33.94233319
33.86187887
33.91332754
34.0010881
34.20738124
34.60107475
35.10121357
35.90872831
37.02937729
38.34822509
39.72427964
37.93598182
19.53599425
40.36350679
44.06032208
42.83950944
41.01267689
39.33916223
37.93655793
36.79700996
35.7554669
35.04855498
34.33100432
33.99653186
33.81287382
33.73270628
33.79269937
33.88188966
34.09111845
34.48779242
34.99007963
35.79733562
36.91625501
38.20329987
39.39345653
37.26861246
18.87676866
39.34814855
43.33335299
42.38137962
40.69496102
39.0910509
37.72547349
36.60972996
35.58827178
34.89458385
34.18821821
33.85731265
33.6745629
33.59462133
33.67913786
33.76950671
33.98069069
34.37686441
34.87516901
35.68229921
36.79783156
38.04550727
39.0589354
36.65199471
18.3339435
38.37325156
42.6417607
41.94150062
40.38880905
38.85106103
37.51954827
36.42469982
35.42077401
34.73894122
34.04734388
33.72182133
33.54031151
33.46062974
33.55154391
33.64317716
33.85701327
34.25608309
34.75782514
35.56463662
36.6746797
37.87654358
38.72550795
36.08211429
17.88856864
37.43772339
41.98391948
41.51748084
40.09285961
38.61849449
37.31878984
36.24247746
35.25384251
34.58265179
33.89882136
33.57568292
33.39469317
33.31513104
33.43824155
33.53087957
33.74624766
34.14355715
34.63842659
35.44507426
36.54718915
37.69847609
38.39503058
35.55472705
17.52601685
36.54037009
41.35319683
41.1073778
39.80594417
38.39270325
37.12307212
36.06339468
35.08809945
34.42625481
33.757826
33.44015103
33.26016832
33.18074827
33.30413193
33.39795555
33.61577095
34.01644573
34.51819575
35.32414687
36.41569356
37.51332463
38.06945211
35.06523601
17.23542418
35.68003887
40.74470021
40.70958344
39.52702646
38.17305914
36.93217056
35.88761479
34.92397592
34.27051163
33.60452128
33.28771189
33.10787207
33.02841773
33.19511998
33.28981207
33.50885241
33.90674354
34.39686758
35.20224412
36.28058052
37.32287408
37.7500591
34.60874566
17.00780068
34.85606887
40.15536353
40.3227787
39.25522241
37.95898666
36.7458203
35.71519371
34.76178566
34.11551622
33.46810574
33.15701345
32.97792213
32.898476
33.05323956
33.14909488
33.37037852
33.77218965
34.27593029
35.07970968
36.14238781
37.12872528
37.43786375
34.18140397
16.83562395
34.06788635
39.58406429
39.94596993
38.98981705
37.74998995
36.56375422
35.54610508
34.60176877
33.96206904
33.30811384
32.99637823
32.81718088
32.73754263
32.95333572
33.04991748
33.272254
33.67092019
34.15436275
34.95684825
36.00174653
36.9321349
37.13318176
33.7797259
16.71370392
33.31491591
39.02976123
39.57832787
38.73020227
37.54561778
36.38569912
35.38028506
34.44419405
33.80984196
33.18299821
32.87689356
32.69809769
32.61836122
32.80039383
32.89816516
33.12252979
33.5245416
34.03469404
34.83425304
35.85937612
36.73420439
36.83607085
33.40067531
16.63729661
32.59705887
38.49221813
39.21931268
38.47592653
37.3455137
36.21143773
35.21771398
34.28957681
33.66036435
33.00965489
32.70276451
32.52381966
32.44374402
32.71532093
32.81368835
33.03901037
33.44011375
33.91537591
34.71299911
35.71694263
36.5357241
36.54644763
33.04196547
16.60188772
31.91519848
37.97239222
38.86878489
38.22666183
37.1493714
36.0407553
35.05826731
34.13931035
33.51374049
32.90766356
32.60339658
32.4244104
32.34414027
32.51984917
32.61965687
32.84733366
33.2513596
33.80252036
34.59580443
35.57935596
36.33816747
36.26611519
32.70426221
16.6013059
31.27227659
37.47455585
38.52944412
37.98345579
36.95750191
35.87377582
34.90202281
33.99773668
33.37586402
32.68425277
32.37984666
32.20049115
32.11966028
45.46931898
49.778884
44.18773468
46.8704448
53.64205741
50.25214383
47.58813461
55.31669629
53.95021751
47.46461921
55.94934036
55.42276393
46.93059556
39.21208296
41.22549551
56.21114138
55.98579904
45.91315497
46.81083222
39.34947588
52.36861415
56.61984017
56.2274822
42.42368119
40.73399762
43.67602022
40.48598757
54.98780502
46.37474403
48.51427341
43.59965426
41.64043484
41.28549273
45.70356876
44.57993146
57.46919101
60.95476178
52.30149088
45.95869751
44.22970027
41.93970478
46.57961235
45.83328856
47.32574821
49.99972384
51.09834921
54.94773717
54.67681066
54.15018265
47.65389102
46.43815317
42.52470372
46.93934544
46.65545296
47.59707265
45.80947826
48.10470741
56.71024044
55.53395494
43.1058179
46.92617108
46.95504922
47.18973688
40.4355113
43.15638613
41.34710889
58.06966055
57.66130881
43.7544264
46.46573353
46.90027745
46.59127099
33.35926201
36.73705558
44.21393045
49.3276481
47.21233476
50.74123245
53.08851287
45.33175004
50.21412819
60.95720034
55.37218935
47.4095407
54.0494592
59.47379196
51.22812143
51.9438331
46.40967609
52.85811695
51.35808044
53.29716378
53.01544237
54.8235661
57.15960001
52.16218897
58.59459794
56.82548855
59.6337785
58.76967291
51.9018411
48.32448686
49.81106227
47.41472569
49.40225715
47.2717731
51.26085022
49.53417869
55.31692553
55.03397614
54.87143967
57.23044182
57.47811529
56.73308828
57.19402091
54.68793582
43.30732629
45.66744693
47.57422378
44.5507965
41.69486138
47.12950637
44.71047717
57.58188381
56.84631785
36.91124743
40.23697234
47.16118574
45.71507442
38.00172113
34.17770369
41.5348324
38.24305475
48.41441674
58.26116648
58.11563354
40.58368324
40.75796646
33.29453528
46.54375026
43.47293111
32.24107871
89.55843655
34.07328096
32.27989039
42.84985461
40.44798987
44.36664763
42.17618899
44.2253388
48.87474416
44.81390117
71.44248727
50.98394944
46.27159187
52.00415966
51.49969081
64.57849772
54.93728869
48.71189484
47.95858563
74.90718473
46.14371003
44.40268804
47.41782547
58.53108462
58.35828034
51.29836802
49.28671966
44.58974678
60.73067163
48.55519148
58.40650081
45.81917112
52.89330123
46.70842782
43.92482892
41.09800495
55.75972536
57.89113682
58.07712495
57.52644362
57.85569687
55.69655995
39.19638253
66.60427608
40.33115862
42.57637342
42.14172149
44.67748788
45.69221153
42.58513887
42.65034966
78.44737909
51.38729577
71.06419698
49.46250531
65.89916237
50.36970455
59.88253973
60.10236338
54.71155957
54.70120796
42.07812025
56.72402795
56.23362556
43.27976553
41.31379939
61.10218758
44.54486905
56.06813067
41.91953321
46.71035353
46.31831547
49.80517579
47.17573192
66.17728301
35.66071866
44.29851163
43.76281507
44.98852897
44.49459461
35.7927583
66.32797939
61.34108527
51.9520071
61.83996624
62.98796651
56.25752
61.4054836
52.27026315
47.61015736
55.32404988
47.53542288
61.9347892
56.30252149
48.37886536
59.34321138
66.1264577
59.2691819
58.85357326
52.15549707
47.3912994
52.06056702
53.44662619
51.52443941
55.56347231
47.86678383
51.0019719
53.39108688
56.11752559
56.31508954
57.74954476
56.796866
56.22710151
57.31214752
56.94516541
57.61537028
59.88855598
54.84411045
53.71376683
56.00100442
55.16843396
59.81231169
48.43220589
48.29471531
50.51293188
50.40401682
55.57833672
62.41138224
55.49755273
43.41332475
43.21699652
45.98862089
45.8245164
41.33011337
43.18702807
57.21247689
40.93928477
41.68650091
38.96368185
45.61718166
45.15224568
46.18261685
45.76327211
39.13589853
39.32429535
36.99629715
36.82607987
40.40647587
40.24685815
76.20126165
38.99499666
52.59366274
50.60329504
43.55496563
43.04739012
32.61540643
32.84410829
43.03271989
51.59732837
33.5791508
89.54183328
54.16551449
81.13735444
33.50034888
40.9002403
62.63546592
44.44735562
71.13646927
41.04839852
43.49288988
44.17613276
45.81888209
46.33907741
44.75396786
38.2491084
42.77743178
54.91989503
55.83983627
56.52269613
59.63756904
45.2064691
55.04263961
54.48912058
53.17792218
39.00047734
58.58670945
58.5699487
48.10981098
44.68710784
44.28938866
47.69741412
49.54425008
44.45283737
44.77984047
58.63339699
62.50121301
60.5223569
60.78101734
54.75415526
44.83598616
44.36600521
53.35007366
53.01231626
54.43238028
46.83098345
48.43819724
48.15499844
48.78297771
48.52834924
46.9987167
47.19659804
46.83417405
42.07675136
33.93734195
40.29314912
39.82590102
82.58078295
62.88363049
47.35725182
60.54905174
65.20955897
63.0457603
56.93843798
51.30597562
49.60243611
53.28106219
51.8375667
57.34087524
55.3214728
53.1895475
53.40405446
56.5832493
48.99380151
49.06707028
48.86068308
42.95074099
43.54666172
47.71818108
44.34606921
44.1127259
55.20607564
57.32214392
57.82363581
57.7952023
56.56668579
57.61881116
57.40215566
57.77716151
57.66659196
56.56599672
44.49688362
47.64368875
47.31181685
48.05657381
47.75016098
44.65555782
44.07350064
37.7238264
38.11757619
34.02264175
34.33605058
42.24336054
46.65308535
41.988695
42.78642942
38.27154351
38.71300707
45.1876928
57.30675923
43.77878054
48.78940318
80.90666206
41.46196696
37.51849179
35.42675784
41.05713475
33.71669558
33.95126996
33.17448029
39.36980654
66.19362019
38.01835209
41.54697461
40.6434438
39.67519204
39.23734274
33.12545695
43.41435463
40.39407096
45.42980417
32.13636809
102.1894083
46.70538572
42.50189731
44.74680091
33.88315479
32.43296957
62.56123966
62.26074258
61.15950212
64.20203553
63.90669781
39.75921513
40.53177651
75.46499351
58.19733387
58.05280772
52.53953464
67.12927246
52.73180845
67.49233215
53.81720475
53.71305684
44.59312757
41.93843042
61.97498731
71.44317552
63.6769663
48.94676232
38.92590657
66.82341354
80.58858592
49.66571486
63.24739435
86.86755583
42.00228113
46.93126508
39.69662509
41.16296015
78.84487675
78.85522901
60.87082919
56.11987944
65.92358608
61.86384197
55.20617839
51.29109112
58.77502246
57.45861703
57.6896077
59.02206089
60.62415769
60.00223399
58.11442288
46.6264746
45.28786552
54.70703304
56.20015108
54.66856455
48.15432379
55.25782
54.00876846
54.47241927
53.16120621
47.28323381
45.19204087
46.91546648
41.86565303
48.93064781
47.61841901
50.20026266
45.20867379
44.01076419
47.12202975
45.76490815
48.13914263
50.75600039
39.54739742
39.67385838
40.95605843
40.43224469
34.51767064
36.2053092
41.53928849
41.10353816
64.47423946
63.72455403
63.22732848
55.92776977
56.66051202
54.66611896
55.64521466
63.59938063
59.39474959
57.2071453
57.06365828
56.84382771
57.16257279
59.75886971
59.96665291
53.10359875
54.33179665
64.10822662
64.66007605
65.89431918
64.81324695
60.2551501
66.43377348
68.21016193
66.77501185
68.10074468
67.24108726
68.7630893
67.81948335
57.4308925
64.95889945
66.1107443
45.67197902
52.32862013
51.24641736
53.35074249
52.62203688
46.39737398
49.75337663
49.01567572
50.87100696
50.00772728
53.12988169
56.14113225
55.4787678
56.91695572
56.35067861
53.70625973
49.1202312
54.31537754
53.5969818
55.24972982
54.55166556
49.57254396
53.19722482
53.13219482
55.51240806
56.57395796
54.40396547
53.24369901
42.32287771
41.74384579
43.32788775
42.5261131
40.81956915
40.25406747
41.55963361
40.99030242
47.84811084
47.16467524
48.77851211
48.08255527
45.81148113
43.85974062
46.9176333
46.23638912
43.15951714
43.43923531
43.71011511
43.21107071
62.19702137
45.15337862
46.86070013
43.55678666
44.49402287
37.20793005
37.56847769
43.91324872
34.75111976
34.4918914
35.13657909
34.85680447
34.30928975
42.4802439
34.57059596
36.75301087
39.68992807
41.68894663
46.49256212
39.22621508
36.32939562
40.13910261
39.26115799
35.59666446
35.25779769
36.12410171
35.72315808
45.34614694
38.86963981
39.40004022
71.37583229
40.9424012
70.22643243
60.71574624
69.67928826
41.05240002
83.93460861
40.63499621
80.34362319
71.21723235
37.37719933
36.13834377
33.41410392
33.64682478
40.89793908
39.65132757
33.17565507
33.36339044
76.65685906
33.05162443
39.0305663
38.28321692
90.31348323
94.50320547
32.09353735
97.95217702
82.99212563
46.35756024
33.81182911
89.71903754
62.99494899
97.21775837
66.81802509
32.57489841
43.2851016
41.03311752
39.5106184
74.49545007
73.83297594
55.4014479
49.26262147
48.87684084
75.12538853
38.95013046
46.77860368
41.89625697
58.0944507
58.25050341
56.10767252
47.82717395
46.74380603
51.87155049
59.81097634
47.4278176
47.80539171
41.98684623
42.3910636
45.3227863
53.34374831
58.2626929
61.67476538
50.51263129
49.37523619
49.31072999
49.35552931
49.38042748
50.6680894
40.44980004
39.6662004
46.74981865
49.6704363
51.85635966
57.86497405
42.09508177
41.67630675
36.33217699
62.7378125
64.72865596
56.97532183
49.27256725
49.12629744
49.2060096
48.98830047
45.35215137
46.10683877
46.4772692
47.61796853
49.92917869
37.88678214
42.67518776
42.23315439
61.53522371
57.84142618
43.97374472
32.76293084
32.81439761
34.36091017
52.96324328
77.57358478
69.14628859
39.38890297
42.66850486
40.82000404
32.20720458
34.00479179
32.67114223
32.72174425
32.31623937
72.31537706
63.62237573
49.65421799
53.51208986
73.71435095
40.4663493
39.95808
46.71887597
59.80164472
49.00753268
47.16860621
49.89254538
42.4104298
43.03396491
40.82563477
83.8462099
87.03617042
88.15425791
76.26165576
85.63223629
43.95221311
44.4178344
48.43142292
73.92977903
66.82628836
63.3035355
77.32507126
74.07826679
42.62700357
51.85021594
49.45573414
66.85806167
65.63906945
50.87757411
50.53892567
49.37141867
41.67782116
62.225185
44.41402824
45.53547958
58.7862418
43.94347084
46.08790201
65.92593599
66.87711242
62.16927182
62.33144377
60.72971322
60.56643164
56.98991333
58.31324222
57.82629265
60.36642173
60.09173678
60.84476201
51.1841686
52.69132389
59.32464097
61.25224096
68.65723453
63.93735908
68.48924393
68.92027336
65.26678733
43.61350449
46.35450239
45.72429424
50.86436714
50.56981298
47.09695958
43.12827216
42.82833204
45.1845473
44.75229391
52.05132326
54.8201891
54.40444874
57.37403652
56.94104204
54.91657977
48.234881
51.62243167
51.27474138
53.98710363
53.57955034
50.51237698
44.53530548
45.14223432
48.85429214
47.85909417
43.73857013
44.33745771
48.74631555
49.35539337
50.84741834
41.13023018
40.94617016
42.57179368
42.33618449
38.20493656
40.68439706
40.53375017
50.04767878
47.89990011
48.5358379
60.75717904
59.938986
46.5662849
47.58485248
61.78174954
59.55124664
59.93350639
55.27834394
44.11952644
44.74240669
43.22768382
42.81678426
38.26644829
39.59250111
43.7220087
43.35052277
34.5711085
34.63302705
37.11269805
36.69524508
34.37573358
34.4485158
76.03490002
32.59144601
34.42048289
33.35127158
109.3477776
32.35554276
44.95409112
78.7432104
72.88549853
32.33187967
32.37064688
33.66103969
88.14659226
93.29547197
91.0948705
75.48588895
33.36400928
32.24171631
32.28743788
52.3485481
39.26176164
39.52566849
74.07021352
72.96343999
56.24295915
53.21552424
42.44708192
60.7980323
63.90176228
67.48110098
48.11661454
72.38894091
63.00497062
72.51351937
70.78196777
51.31092508
46.13749854
47.15628297
54.0496932
55.22881517
55.64742945
54.55986693
54.85193321
61.90966423
61.72024549
62.18890047
60.68583926
61.15122744
61.17783436
53.61078427
46.63339685
47.01961137
46.05979463
46.32383982
54.09859256
64.20703793
63.54890191
63.70046131
62.72250681
63.14961268
63.59727279
52.98495162
48.17865667
48.63059819
47.38580771
47.78839825
53.24960641
54.15888598
54.0456378
53.40683461
53.43731746
37.83331492
40.55097894
40.4019425
34.10944063
36.83393318
36.69460736
37.25435498
36.9991248
34.20181791
77.3014124
78.93567187
70.27140779
78.77750772
33.16284338
33.10291177
33.32462511
33.24829914
32.64862018
34.73438671
32.88559821
33.03465337
33.80110505
36.34580794
36.22392301
36.57629364
36.45793223
33.87368313
33.50963531
33.39663659
34.82753376
33.7319737
33.14030505
79.89745751
76.36643459
58.69993694
79.40294545
36.12273185
34.83381576
38.72750313
33.19674788
35.42673869
35.29054277
32.16657556
101.8159076
102.8573444
66.40203821
96.62089764
88.91285783
32.55642628
32.62500962
33.95098378
32.36719582
67.66246158
76.28645865
68.5673635
71.60857603
66.17051079
55.30977386
73.61468707
67.07437556
65.13388094
64.46690902
75.17290311
57.51752921
64.94991791
59.31256685
55.75636366
63.62691556
55.94779041
59.79328247
68.49339761
70.13845594
60.93493363
67.08977933
72.21010047
70.81967974
72.58514965
69.50057567
73.96678491
84.01935446
83.51960276
81.76461839
53.55304885
74.5262965
67.93736908
81.94142379
83.92440975
58.70407246
65.06667804
70.44290121
85.41609422
73.02349913
56.62087556
60.35872671
72.52988921
67.43241545
73.43586419
64.35246244
68.50343439
72.27167491
74.58496856
73.75998889
56.97333748
57.49081588
57.86971633
56.47132865
56.41011172
56.27200823
59.27089305
59.64232758
60.08674276
58.58937691
58.99305973
58.77051288
46.19012263
46.2924029
46.325783
55.58961284
55.21042761
51.20108653
56.96115122
56.95655036
55.68032328
53.97200506
54.90332664
50.17580054
46.04215956
45.95883308
46.32511834
46.20756449
48.08995048
66.18237467
57.93280762
43.55800317
68.84056087
68.39311984
67.84265953
48.64500622
66.21135475
64.95044736
42.87219058
43.4257081
55.1711309
65.25906307
62.88316807
59.30091937
58.8247588
57.69542069
60.43370041
59.85961977
59.53708465
70.01708031
69.75057669
62.95696535
70.84446021
73.2506455
65.15782124
69.66831577
69.95676202
65.56944927
63.78361601
63.79370688
63.70613214
63.74017577
65.20729517
66.88807384
67.48942521
68.05161298
72.22965671
71.83372172
72.61821194
72.49734275
67.86211588
69.27680877
71.25918863
72.662413
69.57811443
49.17041183
48.97231794
45.65037566
46.58567901
50.10537567
49.89969626
43.73296283
43.4170521
44.39032703
44.04897498
55.6604594
55.23625212
52.56754215
54.30479024
56.51436584
56.0866661
52.39295379
52.02275021
48.71208259
50.0162368
53.17255032
52.78471151
53.22522157
49.98386842
50.48067841
49.04403331
49.51860907
52.97315367
53.64253473
51.97576286
52.59047068
50.98086409
51.48802201
53.66302644
42.12352257
38.57558497
38.76280921
38.23796604
38.40849468
41.9342147
42.99399726
39.38834884
39.66743213
38.95062212
39.15972855
42.74536307
40.61814224
37.26138025
37.43410927
36.96949456
37.1402279
40.46832832
41.3687059
37.90693504
38.07676962
37.57444217
37.75183542
41.18773766
41.59510783
41.38519471
47.62155252
45.11828607
45.34762669
44.64950701
44.85864208
47.38395305
42.07648178
41.84828678
39.69820507
39.64459467
45.48698418
43.04439732
43.12598644
40.07911418
40.63189426
44.63408404
46.71239885
44.19871264
44.37143387
43.74288856
43.86460403
46.431324
40.24414944
40.13781627
60.08085473
59.41058741
61.54745231
49.37259212
53.8412103
45.55363056
58.51975528
59.41069809
57.44232855
58.04696645
46.24741138
43.74829254
52.76954725
48.78575018
58.01823246
58.52665127
44.19943826
37.27408003
39.88137605
39.73948854
40.22685084
40.09069068
37.48174917
34.68505132
34.55312987
35.04607871
34.92735388
34.18864994
33.58535147
34.98431727
38.37417622
37.69739437
39.39482643
39.08519636
36.71133046
37.15000652
35.18669639
36.20295418
36.656094
39.87536731
36.68086441
36.8757155
36.31881652
36.60351558
39.79049773
35.48535955
35.36109079
35.97862331
35.84277612
68.39726366
48.22836055
50.21254181
43.85299072
46.03696074
69.61758157
68.21970385
66.9271552
52.81376268
59.34582837
70.86074264
78.87227683
59.22728336
62.89228166
49.78248314
54.65856194
80.93024748
32.92015289
32.86860585
33.03524088
32.99168459
33.84751118
34.14672879
36.41123086
32.65383259
32.63307236
32.78926389
32.73711609
33.49968169
35.88444183
35.74361736
36.11355661
35.98526123
33.56100247
33.24880053
35.41269708
35.10946015
35.66058224
35.48443228
33.28494818
74.6421707
35.15576828
34.90590147
32.85684662
88.11182077
107.3058912
109.2597835
107.7529483
107.3553802
91.35291724
32.15263604
91.14942413
75.19924164
78.28468303
33.73103984
32.42030596
32.48718157
89.22889785
94.82845497
93.89284312
82.25816434
87.43269374
98.24214199
95.41456923
70.93900236
92.11559253
84.38217741
32.3428184
32.21975233
33.06719843
36.74085233
36.79490893
36.8611651
36.81673537
36.90148233
36.9156739
36.92892697
37.00967972
36.98507158
37.03162577
37.08241691
37.03366509
37.09281608
37.11175187
37.05118178
37.1130097
37.10236743
37.04587836
37.09437579
37.05271993
37.01740248
37.03418084
36.96148602
36.95535214
36.93531458
36.84948271
36.89198368
36.82605459
36.76553532
36.84829022
36.66068438
36.77118547
36.78077849
36.81152491
36.93798254
36.90463356
36.97949896
37.09612223
37.02443014
37.1299244
37.21287938
37.1063134
37.23317543
37.26924983
37.14076404
37.27293327
37.26161183
37.13012304
37.2475436
37.17449893
37.07369121
37.14372812
37.03078257
36.97138329
36.98891066
36.86159523
36.84659061
36.82087172
36.70468986
36.74428191
36.64846537
36.81183495
36.77556782
36.86881228
37.04492917
36.95767847
37.10388712
37.27757362
37.1310275
37.3323298
37.48068176
37.26329527
37.52423409
37.60413807
37.3318368
37.61943188
37.61229466
37.31883728
37.58759544
37.45178313
37.22875052
37.40169006
37.21488729
37.06366227
37.14569846
36.94393177
36.87454101
36.88149331
36.71421157
36.7012144
36.68584599
36.90563486
36.82999452
36.98360087
37.23101087
37.08416168
37.32003103
37.60515562
37.34364854
37.70567976
38.02050708
37.58067363
38.12607866
38.34924878
37.73778809
38.39088038
38.37094434
37.72169337
38.29090475
38.02128466
37.57152161
37.92208838
37.5835251
37.2855044
37.46753368
37.13759023
36.98077886
37.03821595
36.78026135
36.72483372
36.77133666
37.06301364
36.93880114
37.16692315
37.51946677
37.29386974
37.65583894
38.15055022
37.71700056
38.35420114
39.14260144
38.21719791
39.46134702
40.35608708
38.64138669
40.42667595
40.17665283
38.59852467
39.79951366
39.12458045
38.24233104
38.88802664
38.21978834
37.71743628
38.01473282
37.4650376
37.20671919
37.30767429
36.91263863
36.80636115
36.89734779
37.27424567
37.11162862
37.41344783
37.90909104
37.61062148
38.11462813
38.95557147
38.3315044
39.36200283
41.78655718
39.56000636
40.83791432
41.38481308
40.28075094
42.10251255
42.08773995
40.75941358
41.48985954
40.7713606
40.24881941
40.47922125
39.16875555
38.43168797
38.81296825
37.93528686
37.57083968
37.69492139
37.11223573
36.95720611
37.06100179
37.53540616
37.34034868
37.7130833
38.36248818
38.02580322
38.6405948
39.83825707
39.18587007
39.92754327
40.57927804
40.23726309
43.36958561
44.10704041
43.51373747
45.85928305
44.32322626
42.84368188
42.5623856
40.34980466
39.45987865
39.7950175
38.49927682
38.06754895
38.1598223
37.36234213
37.17232001
37.24537832
37.80693447
37.6030892
38.01766688
38.79135191
38.47205574
39.12473906
40.56406738
40.03597921
40.89755986
41.75204709
41.49694035
45.90802083
47.20724205
46.96093693
50.68446416
47.72495774
46.48513695
44.56270599
41.54161026
40.67771676
40.79310418
39.08237141
38.65557833
38.64358896
37.62820677
37.43012028
37.43576721
38.06972569
37.87348815
38.30622237
39.17166597
38.89053607
39.54384369
41.1444799
40.71919658
41.62743413
42.58968268
42.39924844
47.11615399
48.75987032
48.65277004
53.41290154
50.12550059
49.36295152
46.09013276
42.54060806
41.84568771
41.64796258
39.5869313
39.2302712
39.06769923
37.87160476
37.69186527
37.62582674
38.31575654
38.13063933
38.57210586
39.50960545
39.25778213
39.91350762
41.65474558
41.27449649
42.23504132
43.28214423
43.10490817
47.61495052
48.38506879
48.54445731
54.63670484
51.47976395
51.10326875