/*--------------------------------*- C++ -*----------------------------------*\
| =========                 |                                                 |
| \\      /  F ield         | OpenFOAM: The Open Source CFD Toolbox           |
|  \\    /   O peration     | Version:  v1912                                 |
|   \\  /    A nd           | Website:  www.openfoam.com                      |
|    \\/     M anipulation  |                                                 |
\*---------------------------------------------------------------------------*/
FoamFile
{
    version     2.0;
    format      ascii;
    class       volVectorField;
    location    "2.84";
    object      U;
}
// * * * * * * * * * * * * * * * * * * * * * * * * * * * * * * * * * * * * * //

dimensions      [0 1 -1 0 0 0 0];


internalField   nonuniform List<vector> 
12556
(
(99.99786745 0.005113754529 -4.612858012e-21)
(99.99733752 0.01680573851 5.708174872e-25)
(99.99578456 0.0342291165 -4.598681818e-21)
(99.99321041 0.06106269172 -4.560585567e-21)
(99.99984743 0.04687413274 4.386688187e-21)
(99.99675773 0.07492003594 0)
(99.99516684 0.1174210066 0)
(99.9948324 0.174176852 -7.501283917e-21)
(99.99369512 0.2460602158 8.633949897e-22)
(99.99327035 0.3281420733 -5.444674558e-21)
(99.99362848 0.4077651658 7.89669484e-22)
(99.99573769 0.4654919395 0)
(100.0008685 0.4829260015 0)
(100.0055662 0.4548142003 1.492328145e-21)
(100.0061908 0.3924744888 -1.97621949e-21)
(100.0065352 0.315020735 1.026594185e-21)
(100.0058834 0.238881557 0)
(100.0050209 0.1734019081 1.555810515e-21)
(100.0044889 0.1199387701 6.36338848e-21)
(100.0023923 0.08227585455 -1.750227206e-21)
(100.0089536 0.09140562638 -1.5093732e-20)
(100.0059619 0.05536822288 0)
(100.0042462 0.02900548196 -1.881047142e-21)
(100.0039818 0.009050996535 -1.322975483e-20)
(99.98088293 0.01385805374 1.849856253e-20)
(99.97449588 0.04606719847 4.61476148e-21)
(99.95995051 0.09451009062 3.21928603e-20)
(99.93514611 0.1695249941 -1.378663878e-20)
(99.9410085 0.2231495732 4.422473695e-21)
(99.90390346 0.3603014983 -6.41454112e-23)
(99.85776034 0.5651515714 0)
(99.83574508 0.7417511149 -7.633928056e-21)
(99.79242215 1.060484218 -6.962613034e-21)
(99.76941616 1.437069867 -1.17860702e-20)
(99.78626248 1.810763107 -4.69927057e-21)
(99.85326598 2.095123169 -2.643565087e-21)
(99.95935303 2.19842332 -1.155163399e-21)
(100.0682986 2.087396512 6.579978238e-22)
(100.141982 1.810549738 -6.467369243e-22)
(100.1689202 1.456724994 5.296832937e-21)
(100.1597891 1.102545429 -9.920481416e-21)
(100.1304257 0.8016431767 0)
(100.1296335 0.5840385486 -2.675875903e-20)
(100.0894402 0.3887428394 5.127242996e-20)
(100.0840655 0.2586240573 1.461211228e-20)
(100.0569343 0.1561239072 2.99227413e-20)
(100.0412652 0.0820519709 -3.001142209e-20)
(100.0352388 0.02564163539 1.511094063e-20)
(99.94830962 0.01846958961 -1.845734404e-20)
(99.93013686 0.06248088889 -3.709233359e-20)
(99.89047266 0.1308082766 -8.298634946e-20)
(99.82425118 0.2397066084 1.10364976e-19)
(99.79509034 0.3555075452 -9.118833415e-21)
(99.68374322 0.5902529285 -8.806401973e-21)
(99.53984788 0.9455747473 -1.525386248e-20)
(99.46994507 1.319733167 0)
(99.32995813 1.938224118 2.892399552e-20)
(99.26147113 2.68006404 0)
(99.33078982 3.446427409 0)
(99.58384115 4.070695195 -9.345246124e-20)
(99.99251332 4.334382477 1.616699556e-20)
(100.3991003 4.109317765 4.285220482e-20)
(100.6373206 3.495062148 0)
(100.6920376 2.749951079 6.46502409e-21)
(100.6334999 2.048196167 -1.062391968e-20)
(100.5142502 1.452903595 -2.424763392e-20)
(100.426123 0.9853096432 -1.607688067e-19)
(100.3018556 0.6468777227 -3.530885881e-20)
(100.2305674 0.3857905461 -1.491256294e-20)
(100.1589254 0.2306457178 3.385287796e-20)
(100.1158176 0.1211035673 -3.794821682e-21)
(100.0969922 0.03766350136 0)
(99.90904675 0.01635394328 -9.318971267e-21)
(99.87400611 0.05804204872 6.520007392e-20)
(99.79893375 0.1301462954 -1.865953205e-20)
(99.67623701 0.2490430997 0)
(99.58251258 0.4135197474 0)
(99.36388869 0.7185813166 -7.159287441e-20)
(99.06627606 1.198417432 -1.430090053e-19)
(98.84931659 1.763954693 3.343313064e-20)
(98.52680976 2.668394161 3.252938762e-20)
(98.32993709 3.804224379 -7.377714227e-19)
(98.40473476 5.093838926 7.656343867e-19)
(98.92900905 6.297655147 -9.920286712e-19)
(99.93472665 6.915979774 1.146387879e-19)
(100.9937246 6.541548354 -2.285297645e-19)
(101.5732543 5.377216983 5.397913016e-20)
(101.6159744 4.017707215 -1.604031074e-19)
(101.4043318 2.861203355 0)
(101.1285186 1.979222761 0)
(100.8736255 1.275319812 5.787674566e-20)
(100.6174839 0.8173410091 -4.436660563e-20)
(100.4327675 0.4482907061 -3.807599034e-20)
(100.2996753 0.2646612074 1.922508762e-20)
(100.2172846 0.1366079218 -3.852322941e-21)
(100.1796779 0.04203240289 0)
(99.87947081 0.005824909405 0)
(99.82466937 0.02702347474 0)
(99.70821807 0.08271781275 9.456986888e-21)
(99.51694823 0.1850379901 1.425357772e-20)
(99.34327795 0.3759772822 2.357447694e-20)
(98.98012951 0.7072134421 0)
(98.47923089 1.236771499 0)
(98.03535335 1.944676116 0)
(97.42194256 3.078157534 -6.029339953e-19)
(96.92438035 4.618140737 1.82908752e-18)
(96.7742775 6.628461455 -1.001915722e-18)
(97.50227083 8.931345395 0)
(99.61448382 10.43912321 -1.252260553e-19)
(102.0777899 9.793705895 0)
(103.264 7.573506996 -1.18918945e-18)
(103.1558666 5.218940613 -1.855236339e-19)
(102.5446944 3.462450982 8.498844049e-19)
(101.9477834 2.284597113 -3.616542972e-22)
(101.4394705 1.39737946 -9.432438926e-20)
(101.004545 0.8681994683 7.81826537e-21)
(100.6626192 0.427587385 0)
(100.4539555 0.2459643584 3.912624305e-21)
(100.324329 0.1218726888 -2.938820017e-21)
(100.2641059 0.03669857934 -9.740408377e-22)
(99.87788469 -0.01371900087 0)
(99.80270302 -0.03270342238 0)
(99.64484701 -0.01815842932 -1.892499623e-20)
(99.3808571 0.04214661216 3.867742536e-20)
(99.1154568 0.2252398107 0)
(98.5914305 0.5208946695 0)
(97.85713605 1.012364758 3.034464605e-20)
(97.13541854 1.760133666 -3.279386775e-19)
(96.11811674 2.947784551 -1.498386513e-18)
(95.03176086 4.740878569 -1.861840283e-18)
(94.05495109 7.602503383 1.389549054e-18)
(94.3169102 12.05691725 -1.0780253e-18)
(98.62909655 16.08987295 0)
(104.4383599 14.49452147 0)
(106.3377899 9.891059331 -8.474079749e-19)
(105.5479225 6.126491329 -1.459353526e-18)
(104.0816806 3.701378796 -4.846344765e-19)
(102.9094624 2.278886984 6.315472974e-20)
(102.0665594 1.297643619 2.418824288e-20)
(101.4145823 0.764489435 -1.609257774e-20)
(100.8867291 0.3124462505 0)
(100.5930887 0.1668440486 0)
(100.4133694 0.07314882305 -9.842715588e-22)
(100.3290704 0.02064458499 -2.947001549e-21)
(99.92202104 -0.04185644705 4.634380595e-21)
(99.82840833 -0.1190824372 -4.671398911e-21)
(99.63473881 -0.1689257795 9.54491609e-21)
(99.30660844 -0.1803405447 -3.489234568e-20)
(98.93920101 -0.04179084355 7.255656254e-23)
(98.27004862 0.1541471316 3.004404455e-20)
(97.33432836 0.5098964842 -6.255812871e-20)
(96.30969187 1.150160566 -3.747708322e-19)
(94.83287623 2.180661534 8.626878389e-19)
(92.93572952 3.830594147 0)
(90.17361094 6.857104029 0)
(86.71165465 14.28600474 0)
(94.94276556 27.11695065 0)
(111.3840711 20.79567016 4.059273571e-19)
(111.6789511 11.33976408 0)
(108.7453862 6.040115055 -9.309383578e-19)
(105.9052255 3.290826163 -5.49287429e-19)
(103.9307951 1.859701804 0)
(102.6484369 0.9275863877 0)
(101.7882238 0.4835516339 8.662308514e-21)
(101.0626739 0.1037598965 2.570989567e-21)
(100.6862688 0.02433379878 -3.04405275e-21)
(100.460564 -0.009196190693 -3.462288773e-21)
(100.3533409 -0.005974698469 8.355902398e-21)
(100.0271972 -0.07683886075 -4.63486621e-21)
(99.91962371 -0.2264858267 4.673070026e-21)
(99.69998815 -0.358624267 -5.940262876e-21)
(99.32543595 -0.4647131872 -4.008379994e-21)
(98.8718231 -0.4063521018 1.712545237e-20)
(98.09653108 -0.3645251852 1.024635658e-20)
(97.02410722 -0.2386869046 -1.743658191e-19)
(95.75016486 0.1643684891 -3.382258751e-18)
(93.93137852 0.7841154004 -1.883819234e-18)
(91.38325471 1.731613778 0)
(86.9528154 3.181626562 0)
(77.86984245 6.113910945 -2.589904618e-18)
(127.9151408 22.66093002 -3.599922447e-18)
(118.8177722 8.946357062 7.329443812e-18)
(112.1772647 4.168291517 1.668196186e-18)
(107.6118631 2.006447657 1.279050804e-18)
(104.8180427 0.975827645 -2.933567682e-19)
(103.0752443 0.2936686511 -4.568553136e-21)
(102.0508958 0.04274102536 1.951193393e-20)
(101.1454638 -0.1904943971 -3.120846269e-21)
(100.7042668 -0.1719260365 2.556278773e-21)
(100.4431451 -0.1199793368 -4.753565103e-22)
(100.3171139 -0.04180641763 -7.829665077e-21)
(100.2045895 -0.1159776584 -2.235735962e-21)
(100.0891908 -0.3466065343 -1.680529967e-21)
(99.85639809 -0.5714410935 -5.767598751e-22)
(99.45860528 -0.7854003666 1.750124969e-21)
(98.94348773 -0.8323542754 -3.485071828e-23)
(98.12553135 -0.9766817891 0)
(97.00015595 -1.120295421 9.093980161e-20)
(95.59832905 -1.035905784 1.656122544e-18)
(93.67465499 -0.9241677701 0)
(91.07040172 -0.841085609 0)
(86.94963501 -1.288830527 -2.141705399e-18)
(81.10281278 -3.493275372 -5.47415714e-20)
(140.1723269 4.841880545 -9.78205549e-18)
(123.3567227 1.620754296 5.8588191e-18)
(114.3532506 0.4136238223 0)
(108.6666449 -0.08363352383 0)
(105.3233261 -0.2919861358 -1.20329776e-18)
(103.2513588 -0.5308223491 -4.635533082e-21)
(102.1287254 -0.520196576 1.091216505e-20)
(101.1023327 -0.5432536996 1.066273611e-21)
(100.6241834 -0.4042698972 0)
(100.3425909 -0.2501482399 3.941489121e-21)
(100.2047135 -0.08404248945 3.898541719e-21)
(100.4595692 -0.1560762056 4.403836111e-21)
(100.3431259 -0.4695698837 6.890033609e-23)
(100.111131 -0.7887381789 0)
(99.71523001 -1.11311351 2.257802433e-22)
(99.16986779 -1.276918917 -2.350314316e-21)
(98.372018 -1.608685554 2.518059425e-21)
(97.28045457 -2.011989611 0)
(95.89138393 -2.230161634 0)
(94.08915571 -2.543880557 -1.003656788e-18)
(91.78640501 -3.046565354 0)
(88.55439392 -4.249405677 0)
(84.96060448 -6.44257798 -5.19874504e-19)
(136.033475 -11.89950237 -1.99248124e-19)
(122.5741469 -6.560717254 -2.786485412e-18)
(114.2327546 -3.947518011 -8.617766158e-19)
(108.632081 -2.480846179 3.430471312e-19)
(105.2719053 -1.721247903 -1.087394187e-18)
(103.1133902 -1.436228153 3.91095713e-20)
(101.9852961 -1.138894105 0)
(100.9154331 -0.9175548368 -1.040644708e-21)
(100.4328078 -0.6499919683 -4.337994591e-21)
(100.1481556 -0.3878672228 4.84762151e-22)
(100.0069157 -0.1288294319 0)
(100.7911433 -0.1940512707 -2.167907238e-21)
(100.6799467 -0.5856699614 2.187969791e-21)
(100.4612865 -0.9924389608 2.132564533e-21)
(100.0921493 -1.420049741 -2.002583373e-21)
(99.54470781 -1.698340894 -2.3159666e-21)
(98.81624391 -2.193641752 0)
(97.82592609 -2.816167056 -3.332975688e-19)
(96.5384908 -3.280314224 3.236227197e-18)
(94.9534037 -3.881433625 -9.840431405e-19)
(93.01020073 -4.700106363 1.959322243e-18)
(90.39727891 -6.142422 8.376188573e-19)
(87.6026443 -8.035778173 -1.29930063e-18)
(126.2664843 -20.59547573 0)
(118.222806 -12.28026847 -1.209904608e-18)
(112.147384 -7.435005062 4.027016305e-19)
(107.58325 -4.585158884 1.320672341e-18)
(104.661666 -3.059144993 -1.766303586e-20)
(102.6603985 -2.29395389 0)
(101.6218495 -1.734666817 -2.567637737e-20)
(100.5833545 -1.274584544 -1.306825871e-20)
(100.1294481 -0.8852045219 9.918507957e-22)
(99.85869749 -0.5205170693 -3.138806877e-21)
(99.72244241 -0.1721120187 4.596539972e-22)
(101.1923578 -0.2272583718 7.925855694e-21)
(101.0917829 -0.6864863887 0)
(100.8957671 -1.165285058 -2.128367311e-21)
(100.569987 -1.690380558 0)
(100.039874 -2.064333109 0)
(99.42133198 -2.684631273 -6.879295504e-21)
(98.57680022 -3.470859782 4.914059763e-23)
(97.44136292 -4.111318378 0)
(96.10032633 -4.890844508 5.2261412e-21)
(94.48283266 -5.891188446 0)
(92.27550655 -7.492727739 1.502807417e-18)
(89.73892256 -9.390858157 -2.692283843e-20)
(116.3719186 -23.33584726 0)
(112.702117 -14.90317939 -8.44891229e-19)
(109.0847228 -9.448443583 0)
(105.8793933 -6.025816734 5.897997598e-19)
(103.6343796 -4.101761875 0)
(101.9485969 -3.000750357 2.054855342e-21)
(101.0719959 -2.243374488 -3.13852371e-20)
(100.1269418 -1.588612254 7.736895234e-21)
(99.72598833 -1.087920859 0)
(99.48215216 -0.6371425508 3.613735693e-21)
(99.35781269 -0.2103405549 0)
(101.6519582 -0.2547415061 7.915663339e-21)
(101.5650114 -0.7704642143 1.24798947e-19)
(101.3955685 -1.306879384 -2.514229036e-19)
(101.1174519 -1.903509419 -4.185451783e-22)
(100.6549574 -2.34700199 -1.993549957e-21)
(100.1461662 -3.052903277 0)
(99.47018329 -3.946993735 -3.149979871e-19)
(98.50538607 -4.686521155 7.503617335e-19)
(97.41966306 -5.560453289 -8.414365834e-19)
(96.11842194 -6.670634363 -1.593361339e-18)
(94.32452494 -8.465449139 2.29287549e-18)
(92.15317175 -10.66498881 1.625945481e-18)
(103.118571 -31.82495856 -1.643784604e-19)
(107.6630509 -21.25403376 0)
(107.598706 -14.94964429 0)
(105.9425341 -10.05530315 4.868678268e-19)
(103.9511255 -6.747229464 -7.012759688e-19)
(102.3857752 -4.769828014 4.978660629e-19)
(101.0715769 -3.496292463 -6.28981871e-20)
(100.3844998 -2.621860946 0)
(99.58005528 -1.829129325 0)
(99.24247592 -1.246335697 1.133575865e-20)
(99.03344807 -0.730529371 2.088139881e-21)
(98.92580135 -0.2409992431 -6.782282132e-21)
(102.155371 -0.2739692187 0)
(102.0838004 -0.8298935693 0)
(101.9449906 -1.405554155 0)
(101.7171114 -2.040707071 0)
(101.3193385 -2.549886775 0)
(100.9225186 -3.313610702 0)
(100.3977256 -4.256833687 -1.583559067e-20)
(99.62700161 -5.034849269 8.147351452e-20)
(98.78373546 -5.931189352 9.326055212e-20)
(97.79978489 -7.065567021 -1.641316246e-19)
(96.50770829 -8.903307496 0)
(95.221063 -11.48476525 -2.49537981e-19)
(96.65070583 -20.96684035 0)
(102.5488035 -17.4344095 0)
(103.8013193 -13.43466434 0)
(103.249893 -9.664605427 0)
(102.1096548 -6.873597089 -7.829754367e-19)
(101.0833094 -5.085175778 2.831608228e-20)
(100.1254738 -3.777362701 -8.831582796e-20)
(99.62502193 -2.865153553 -3.320792903e-20)
(98.97442826 -1.984823204 -1.846983996e-20)
(98.70217968 -1.356667664 1.822463843e-20)
(98.53171628 -0.7966986669 0)
(98.44304079 -0.2626965026 1.820612976e-20)
(102.6878761 -0.2850122881 0)
(102.6323996 -0.8641777591 0)
(102.5263555 -1.461745868 0)
(102.350138 -2.108738613 0)
(102.0148803 -2.651075408 0)
(101.7334296 -3.42857958 0)
(101.3541574 -4.352369329 -1.151667114e-19)
(100.7501778 -5.179295328 0)
(100.1024416 -6.073328015 -3.454288056e-23)
(99.39954215 -7.117339363 -1.087264248e-18)
(98.63972027 -8.640159546 4.112303643e-19)
(98.27275991 -11.09852702 0)
(98.22210253 -13.91452803 3.422063463e-19)
(100.5591797 -13.48944364 -4.439088553e-20)
(101.4124695 -11.36388856 4.071824503e-19)
(101.1864768 -8.768145533 -5.315829527e-19)
(100.5128607 -6.614594132 -6.263044226e-19)
(99.85619353 -5.129505543 -2.395645397e-20)
(99.17905615 -3.873413557 0)
(98.84981027 -2.981537914 0)
(98.33956472 -2.061717472 -3.450154353e-20)
(98.12952651 -1.418099442 1.702492518e-20)
(97.99732392 -0.8345606635 7.122102362e-22)
(97.92754454 -0.2751768601 -1.254792334e-20)
(103.2343542 -0.2884248366 0)
(103.1937109 -0.8744436444 0)
(103.117772 -1.477332331 0)
(102.9891248 -2.117504088 0)
(102.7111874 -2.670437037 0)
(102.5228403 -3.42943235 0)
(102.2638952 -4.289255449 -1.509115291e-21)
(101.7953659 -5.142690623 1.247239887e-18)
(101.2839862 -6.027520377 4.74086896e-19)
(100.7618857 -6.951161443 1.628584529e-18)
(100.2789154 -8.062545322 -1.353501259e-18)
(96.61204907 -8.876081362 0)
(99.31586982 -10.69361499 2.886947532e-20)
(99.90700961 -10.62078115 -1.388009414e-19)
(99.99336569 -9.424066865 5.917540092e-19)
(99.66481727 -7.709641757 -3.766236919e-19)
(99.19803438 -6.151262178 0)
(98.76259778 -4.962279316 0)
(98.29434147 -3.822815048 -2.956286354e-20)
(98.09522094 -2.989864243 4.463282515e-20)
(97.7030426 -2.071341396 1.076086175e-20)
(97.54782979 -1.435810471 1.833784266e-20)
(97.44947965 -0.846702886 -2.083540339e-20)
(97.39661502 -0.2791891033 0)
(103.7809471 -0.2853600287 0)
(103.7528222 -0.8643354146 0)
(103.7015814 -1.458400425 0)
(103.612432 -2.076507545 0)
(103.3853593 -2.622506273 0)
(103.2672393 -3.338701543 0)
(103.0916051 -4.117758185 0)
(102.7200875 -4.925967427 -4.945227771e-21)
(102.2785538 -5.780562837 -1.345050039e-18)
(101.7984081 -6.581595255 1.059593602e-20)
(101.5998587 -7.473135084 0)
(92.532797 -7.072232602 -1.301043979e-18)
(99.82506455 -8.730185337 -6.39491557e-19)
(99.48839801 -8.634377471 5.233628263e-20)
(98.9993841 -7.825440887 -5.539720704e-19)
(98.53785333 -6.700768865 1.869401531e-19)
(98.14410996 -5.623385598 3.91644627e-21)
(97.82666141 -4.669028809 0)
(97.50118246 -3.67345208 0)
(97.38475118 -2.912677763 0)
(97.08650405 -2.027518417 3.737261742e-20)
(96.97573038 -1.416976121 -3.49676477e-20)
(96.90465137 -0.8368179769 -2.35625136e-21)
(96.86556409 -0.2762786717 2.364255669e-21)
(104.3159567 -0.2771339479 0)
(104.2977845 -0.8381056179 0)
(104.2653992 -1.41223538 0)
(104.2065719 -1.997044746 0)
(104.0202541 -2.521797119 0)
(103.9500407 -3.18105108 0)
(103.8228811 -3.873219513 0)
(103.5036459 -4.579290704 0)
(103.0617478 -5.339371877 5.028699135e-19)
(102.588722 -6.04619866 8.979867472e-19)
(99.9235746 -6.484590768 5.223291028e-21)
(97.82218373 -7.185349618 2.597336875e-20)
(99.78515663 -7.377281856 3.123459127e-19)
(98.96260123 -7.165022267 1.396705099e-19)
(98.23478613 -6.584016078 -4.222788523e-19)
(97.70219105 -5.855314147 2.248900775e-20)
(97.31506815 -5.082885236 0)
(97.04471161 -4.313264645 0)
(96.79790164 -3.45383685 0)
(96.73126237 -2.772641396 0)
(96.50294771 -1.94190216 0)
(96.42555877 -1.367572836 0)
(96.37565099 -0.8100867862 0)
(96.34707997 -0.2684594959 0)
(104.830502 -0.2650235162 0)
(104.81974 -0.7998659317 0)
(104.8006061 -1.345991004 0)
(104.7631198 -1.890930916 0)
(104.6065282 -2.384692326 0)
(104.5633792 -2.981403455 0)
(104.4563556 -3.59094058 0)
(104.1532316 -4.194475194 0)
(103.6973011 -4.812856699 0)
(103.1728507 -5.400844502 9.931438452e-21)
(97.12857781 -5.468723654 7.974438736e-21)
(100.3951892 -6.250184628 -4.676271184e-21)
(99.54056641 -6.253583359 -9.661129848e-20)
(98.52069351 -6.057157889 7.53920949e-20)
(97.69915025 -5.667854292 0)
(97.09045204 -5.149249197 0)
(96.6634963 -4.553792796 0)
(96.39709868 -3.931671682 0)
(96.18519159 -3.19647949 0)
(96.14292089 -2.595335098 0)
(95.96091841 -1.829490366 0)
(95.90608419 -1.297455214 0)
(95.87065398 -0.7704081943 0)
(95.85045853 -0.2558540702 0)
(105.3183319 -0.2502487657 0)
(105.3125677 -0.7535158102 0)
(105.3015064 -1.266345759 0)
(105.2771402 -1.768707452 0)
(105.1406016 -2.226089134 0)
(105.107548 -2.760524482 0)
(104.9991858 -3.296335851 0)
(104.6916037 -3.807036839 0)
(104.2070083 -4.311543572 0)
(103.5796121 -4.764627398 0)
(97.00705366 -4.78128999 0)
(100.637932 -5.367960493 0)
(99.44859091 -5.365388221 0)
(98.27043864 -5.215905667 0)
(97.32229581 -4.925836764 0)
(96.62305627 -4.529221498 0)
(96.14544922 -4.060397605 0)
(95.85996663 -3.552266165 0)
(95.65566414 -2.92512536 0)
(95.61910619 -2.399239172 0)
(95.46441896 -1.702117366 0)
(95.42294504 -1.214660106 0)
(95.39619788 -0.7227567117 0)
(95.38141335 -0.2404406534 0)
(105.7755076 -0.2339057169 0)
(105.7726197 -0.7025511085 0)
(105.7651961 -1.179232385 0)
(105.7469127 -1.638732188 0)
(105.6229478 -2.057791705 0)
(105.5873037 -2.53381555 0)
(105.4627097 -3.003647019 0)
(105.1398201 -3.435712462 0)
(104.6183518 -3.851493486 0)
(103.8557733 -4.203813543 0)
(97.10377822 -4.200107539 0)
(100.7209691 -4.659005186 0)
(99.39024059 -4.647043606 -2.475427969e-35)
(98.08368225 -4.525840708 0)
(97.03342624 -4.299728402 0)
(96.25692113 -3.988282324 0)
(95.72768432 -3.612295227 0)
(95.41185183 -3.192535257 0)
(95.19910512 -2.656265032 0)
(95.15549434 -2.197867718 0)
(95.01381924 -1.568789477 0)
(94.97834659 -1.125525494 0)
(94.95555022 -0.6709508499 0)
(94.94389293 -0.2236033023 0)
(106.2000284 -0.2168955343 0)
(106.1982913 -0.6498170558 0)
(106.1910504 -1.089470565 0)
(106.1733031 -1.507375555 0)
(106.0560435 -1.888432335 0)
(106.0092562 -2.311471292 0)
(105.859597 -2.721288157 0)
(105.5154681 -3.090515046 0)
(104.9547441 -3.437028749 0)
(104.0481412 -3.714968597 0)
(97.26133013 -3.707483876 0)
(100.7588227 -4.075444411 0)
(99.33548536 -4.054511771 0)
(97.93374438 -3.951564468 0)
(96.80485429 -3.769062287 0)
(95.96382249 -3.518413288 0)
(95.38590701 -3.211628227 0)
(95.03532432 -2.861341447 0)
(94.80462987 -2.400529293 0)
(94.74612949 -2.000728839 0)
(94.60735048 -1.435954666 0)
(94.57228667 -1.034937549 0)
(94.54983848 -0.6179451536 0)
(94.5394809 -0.2063195103 0)
(106.5914737 -0.1999087489 0)
(106.589555 -0.5974487599 0)
(106.5799873 -1.000653492 0)
(106.5587135 -1.379279115 0)
(106.4437204 -1.724011083 0)
(106.3803465 -2.099571589 0)
(106.2019433 -2.457024682 0)
(105.8329528 -2.775037284 0)
(105.2334451 -3.067272021 0)
(104.1821397 -3.288973802 0)
(97.45488386 -3.288609562 0)
(100.7731265 -3.585785507 0)
(99.28281916 -3.558553249 -3.764486461e-35)
(97.80909677 -3.468675111 0)
(96.61901416 -3.317262545 0)
(95.72451968 -3.111130047 0)
(95.10249807 -2.85681314 0)
(94.71708733 -2.561792664 0)
(94.46227204 -2.163756122 0)
(94.384678 -1.813736117 0)
(94.24192251 -1.308083999 0)
(94.20329092 -0.9464301712 0)
(94.17863599 -0.5658848314 0)
(94.16819591 -0.189287567 0)
(106.950608 -0.1834525462 0)
(106.9475135 -0.5469743708 0)
(106.9338765 -0.9153081096 0)
(106.9062612 -1.257629096 0)
(106.7903024 -1.568471208 0)
(106.7071167 -1.901979112 0)
(106.4984887 -2.214677181 0)
(106.1039596 -2.490338974 0)
(105.4670886 -2.739535242 0)
(104.2758898 -2.91821036 0)
(97.66823759 -2.930168267 0)
(100.7729802 -3.170789954 0)
(99.23215462 -3.139298669 0)
(97.70283072 -3.059439032 0)
(96.46444293 -2.931100446 0)
(95.52565297 -2.758411503 0)
(94.86442258 -2.544523114 0)
(94.44559223 -2.293417903 0)
(94.1640444 -1.947921551 0)
(94.06504234 -1.640274271 0)
(93.91384632 -1.188070345 0)
(93.86900818 -0.8623767624 0)
(93.84043679 -0.5162366956 0)
(93.82890818 -0.1729905258 0)
(107.2789894 -0.1678845509 0)
(107.2740049 -0.499445325 0)
(107.2551515 -0.8351332347 0)
(107.2193536 -1.144455267 0)
(107.1001696 -1.424235006 0)
(106.9955578 -1.720821233 0)
(106.7567722 -1.995481812 0)
(106.3375032 -2.235873447 0)
(105.6648652 -2.450504782 0)
(104.3423299 -2.596066964 0)
(97.8895999 -2.621938574 0)
(100.7632243 -2.816941116 0)
(99.18356057 -2.782696683 1.41713976e-35)
(97.6105514 -2.710845348 0)
(96.33347475 -2.600199122 0)
(95.35781619 -2.45323087 0)
(94.66202471 -2.270997625 0)
(94.21188451 -2.055121172 0)
(93.90307112 -1.753631587 0)
(93.78172067 -1.482077782 0)
(93.61930841 -1.077628325 0)
(93.56663271 -0.7842696292 0)
(93.5330684 -0.4699511672 0)
(93.51974521 -0.1577483002 0)
(107.5786844 -0.1534417924 0)
(107.5713236 -0.4555395242 0)
(107.5465638 -0.761193508 0)
(107.5014757 -1.040922545 0)
(107.3775546 -1.29258394 0)
(107.2509892 -1.556960825 0)
(106.9830693 -1.799356018 0)
(106.5406257 -2.010225626 0)
(105.833695 -2.196737742 0)
(104.390634 -2.316737793 0)
(98.11093478 -2.356196929 0)
(100.746785 -2.514252079 0)
(99.13704476 -2.478336172 0)
(97.52926035 -2.413056526 0)
(96.22077434 -2.316326982 0)
(95.21421889 -2.189542412 0)
(94.48804783 -2.032462072 0)
(94.00896944 -1.845130657 0)
(93.67342464 -1.580582571 0)
(93.52976558 -1.339756385 0)
(93.35457556 -0.9776163071 0)
(93.29315477 -0.7129619284 0)
(93.25398432 -0.4275958934 0)
(93.23839538 -0.1437573677 0)
(107.8520857 -0.1402662382 0)
(107.8420386 -0.4156463926 0)
(107.8110192 -0.6940803786 0)
(107.7560634 -0.9475911796 0)
(107.6263819 -1.174070681 0)
(107.4780498 -1.410495086 0)
(107.1825696 -1.625555889 0)
(106.7188292 -1.811616282 0)
(105.9789462 -1.975028192 0)
(104.4272678 -2.075281319 0)
(98.32720261 -2.127111181 0)
(100.7255809 -2.255171202 0)
(99.09254933 -2.218330241 0)
(97.45681535 -2.158532974 0)
(96.12251787 -2.072962951 0)
(95.08987353 -1.962273083 0)
(94.33698441 -1.825420396 0)
(93.83136603 -1.661406478 0)
(93.47018464 -1.427948387 0)
(93.30483644 -1.21324219 0)
(93.11607466 -0.8883147476 0)
(93.04550308 -0.6488509363 0)
(93.00044306 -0.3894560284 0)
(92.98229479 -0.131121295 0)
(108.1017818 -0.1284299697 0)
(108.0888659 -0.3799459715 0)
(108.0514657 -0.6340458681 0)
(107.9864292 -0.864601399 0)
(107.8503197 -1.06872287 0)
(107.6808462 -1.281014697 0)
(107.3596486 -1.472958955 0)
(106.8764992 -1.638114895 0)
(106.1049259 -1.782430288 0)
(104.4567776 -1.867438399 0)
(98.53558811 -1.930047693 0)
(100.7009424 -2.033764228 0)
(99.04996187 -1.996513291 0)
(97.39160264 -1.941338493 0)
(96.03585211 -1.864842278 0)
(94.98099702 -1.767140007 0)
(94.20453796 -1.646697613 0)
(93.6746586 -1.501835543 0)
(93.28917331 -1.294584028 0)
(93.10306393 -1.102028726 0)
(92.90043549 -0.8096229578 0)
(92.82063938 -0.5920181198 0)
(92.7696278 -0.3556170809 0)
(92.74875353 -0.11987724 0)
(108.3304004 -0.1179587794 0)
(108.314522 -0.3484808868 0)
(108.2707707 -0.5811226955 0)
(108.1956785 -0.7918464451 0)
(108.0527117 -0.9762761885 0)
(107.8629674 -1.167861156 0)
(107.5179648 -1.340299029 0)
(107.0171576 -1.487840613 0)
(106.2151216 -1.616339842 0)
(104.4823266 -1.689630516 0)
(98.73478824 -1.76130998 0)
(100.6738454 -1.845343864 0)
(99.00914947 -1.808038303 0)
(97.33237335 -1.756782684 0)
(95.95859774 -1.687728658 0)
(94.88466693 -1.600584828 0)
(94.08731138 -1.493522171 0)
(93.53524968 -1.364410493 0)
(93.12686874 -1.179247493 0)
(92.92104518 -1.005399406 0)
(92.7045515 -0.7412301997 0)
(92.61566203 -0.5423500247 0)
(92.55877543 -0.3260386787 0)
(92.53509596 -0.1100201962 0)
(108.5406355 -0.108846523 0)
(108.5217526 -0.3212031047 0)
(108.4717636 -0.535203284 0)
(108.3867897 -0.7290542116 0)
(108.2366219 -0.8963057861 0)
(108.0275932 -1.070280774 0)
(107.6604957 -1.226123958 0)
(107.1437366 -1.359072354 0)
(106.3124161 -1.474467693 0)
(104.5061218 -1.538827157 0)
(98.92458946 -1.617921673 0)
(100.6450108 -1.686149928 0)
(98.9699575 -1.649022852 0)
(97.27811653 -1.601089209 0)
(95.88902587 -1.538161001 0)
(94.79855189 -1.459627175 0)
(93.98254495 -1.363495718 0)
(93.41008414 -1.247368691 0)
(92.98024873 -1.080757563 0)
(92.75575403 -0.9225565049 0)
(92.52550069 -0.6826961839 0)
(92.42776759 -0.4996168827 0)
(92.36515623 -0.3006017685 0)
(92.33864261 -0.1015176279 0)
(108.7348747 -0.1010761407 0)
(108.7129945 -0.2980269814 0)
(108.6569307 -0.4961033071 0)
(108.5623348 -0.6759536472 0)
(108.4048437 -0.8283063432 0)
(108.1775872 -0.9874865368 0)
(107.7899491 -1.128844998 0)
(107.2585771 -1.25034163 0)
(106.3991978 -1.354849134 0)
(104.5297067 -1.412516261 0)
(99.10543393 -1.497553549 0)
(100.6149632 -1.553166135 0)
(98.93221695 -1.516352345 -2.632239139e-36)
(97.22799146 -1.471218828 0)
(95.82573056 -1.413321339 0)
(94.72075546 -1.341790017 0)
(93.88799274 -1.254569484 0)
(93.29679813 -1.149343189 0)
(92.84654105 -0.9981530238 0)
(92.60447196 -0.8526685709 0)
(92.36076383 -0.6335952615 0)
(92.2544942 -0.4635333748 0)
(92.18634842 -0.2791586341 0)
(92.15701826 -0.09432924004 0)
(108.9163809 -0.09460272801 0)
(108.891463 -0.2788153153 0)
(108.8294415 -0.46359796 0)
(108.7254844 -0.6320359877 0)
(108.5599868 -0.7717775567 0)
(108.3155187 -0.9186046448 0)
(107.9092326 -1.047913154 0)
(107.3636032 -1.160154255 0)
(106.4774947 -1.255778415 0)
(104.5541513 -1.308599578 0)
(99.27809832 -1.398330604 0)
(100.5840902 -1.443971297 0)
(98.8957558 -1.407539306 0)
(97.1812822 -1.364738541 0)
(95.76753723 -1.310931863 0)
(94.64968979 -1.2450301 0)
(93.80175836 -1.164964652 0)
(93.1934138 -1.06861783 0)
(92.72333829 -0.9302488922 0)
(92.46475876 -0.7949679777 0)
(92.20735057 -0.5933329263 0)
(92.09286033 -0.4337915096 0)
(92.01932974 -0.2615216866 0)
(91.9871572 -0.08839211138 0)
(109.084801 -0.08945435618 0)
(109.056995 -0.2635668514 0)
(108.9892258 -0.4375277136 0)
(108.8762643 -0.597628218 0)
(108.704399 -0.7261132698 0)
(108.4436596 -0.8628376323 0)
(108.0205138 -0.9836746959 0)
(107.4607975 -1.087054788 0)
(106.5491322 -1.175799383 0)
(104.5802113 -1.225350484 0)
(99.44358483 -1.318715037 0)
(100.5526969 -1.356613768 0)
(98.86039447 -1.320595612 0)
(97.137353 -1.279699736 0)
(95.71342291 -1.229154408 0)
(94.58396361 -1.167678619 0)
(93.72210391 -1.093202912 0)
(93.09762102 -1.003405706 0)
(92.60882424 -0.8756664054 0)
(92.33430846 -0.7485204571 0)
(92.06506401 -0.5620365386 0)
(91.94270181 -0.4101302814 0)
(91.86400381 -0.2476273427 0)
(91.82914281 -0.08371208336 0)
(109.2529834 -0.08542034314 0)
(109.2218047 -0.2518783399 0)
(109.1480148 -0.4175340568 0)
(109.0250896 -0.5696900348 0)
(108.8411974 -0.6911130518 0)
(108.5639894 -0.8201188091 0)
(108.1248309 -0.9347640635 0)
(107.551955 -1.030377315 0)
(106.615727 -1.11377813 0)
(104.6084442 -1.161394405 0)
(99.6028774 -1.257501143 0)
(100.5210554 -1.289576199 0)
(98.82595514 -1.253985668 0)
(97.09563356 -1.214592944 0)
(95.66248604 -1.166556533 0)
(94.52235789 -1.10843434 0)
(93.64752077 -1.038187409 0)
(93.00770761 -0.9534167045 0)
(92.5010924 -0.8339765262 0)
(92.21125193 -0.7136725902 0)
(91.9245302 -0.5369134025 0)
(91.7935738 -0.3921814409 0)
(91.70951674 -0.2370676788 0)
(91.67150751 -0.0800769999 0)
(109.3826934 -0.08313432937 0)
(109.3494266 -0.2448712898 0)
(109.2710471 -0.4050246167 0)
(109.1419184 -0.5556026291 0)
(108.9690784 -0.6659390853 0)
(108.6781092 -0.7895850005 0)
(108.2238455 -0.9002155251 0)
(107.6384398 -0.9892885012 0)
(106.6786904 -1.068773491 0)
(104.639314 -1.115652034 0)
(99.7569017 -1.213806493 0)
(100.4894109 -1.241733575 0)
(98.79225046 -1.206562983 0)
(97.05558387 -1.168276041 0)
(95.61389954 -1.122040871 0)
(94.46377516 -1.066290641 0)
(93.57668028 -0.9990350821 0)
(92.92222277 -0.9178015304 0)
(92.39853466 -0.8046118657 0)
(92.09414721 -0.6893945404 0)
(91.81307825 -0.5242261876 0)
(91.6766944 -0.3810051367 0)
(91.5885475 -0.2308036946 0)
(91.54866379 -0.07807012568 0)
(109.6284514 -0.08046272687 0)
(109.5905366 -0.2381882274 0)
(109.5031481 -0.3937473787 0)
(109.3565965 -0.5361143341 0)
(109.0877425 -0.6516336552 0)
(108.7823401 -0.7716046699 0)
(108.3148388 -0.8802071361 0)
(107.7214232 -0.9631137858 0)
(106.7392884 -1.039965793 0)
(104.6732025 -1.08735197 0)
(99.90614421 -1.187183218 0)
(100.4580385 -1.212369353 0)
(98.75912731 -1.177557398 0)
(97.01671592 -1.139944077 0)
(95.56692821 -1.09481279 0)
(94.40724367 -1.040512367 0)
(93.50839715 -0.975092363 0)