/*--------------------------------*- C++ -*----------------------------------*\
| =========                 |                                                 |
| \\      /  F ield         | OpenFOAM: The Open Source CFD Toolbox           |
|  \\    /   O peration     | Version:  v1912                                 |
|   \\  /    A nd           | Website:  www.openfoam.com                      |
|    \\/     M anipulation  |                                                 |
\*---------------------------------------------------------------------------*/
FoamFile
{
    version     2.0;
    format      ascii;
    class       pointVectorField;
    location    "1.52";
    object      pointDisplacement;
}
// * * * * * * * * * * * * * * * * * * * * * * * * * * * * * * * * * * * * * //

dimensions      [0 1 0 0 0 0 0];


internalField   nonuniform List<vector> 
26316
(
(0 0 0)
(0 0 0)
(0 0 0)
(0 0 0)
(0 0 0)
(0 0 0)
(0 0 0)
(0 0 0)
(0 0 0)
(0 0 0)
(0 0 0)
(0 0 0)
(0 0 0)
(0 0 0)
(0 0 0)
(0 0 0)
(0 0 0)
(0 0 0)
(0 0 0)
(0 0 0)
(0 0 0)
(0 0 0)
(0 0 0)
(0 0 0)
(0 0 0)
(0 0 0)
(0 0 0)
(0 0 0)
(0 0 0)
(0 0 0)
(0 0 0)
(0 0 0)
(0 0 0)
(0 0 0)
(0 0 0)
(0 0 0)
(0 0 0)
(0 0 0)
(0 0 0)
(0 0 0)
(0 0 0)
(0 0 0)
(0 0 0)
(0 0 0)
(0 0 0)
(0 0 0)
(0 0 0)
(0 0 0)
(0 0 0)
(0 0 0)
(0 0 0)
(0 0 0)
(0 0 0)
(0 0 0)
(0 0 0)
(0 0 0)
(0 0 0)
(0 0 0)
(0 0 0)
(0 0 0)
(0 0 0)
(0 0 0)
(0 0 0)
(0 0 0)
(0 0 0)
(0 0 0)
(0 0 0)
(0 0 0)
(0 0 0)
(0 0 0)
(0 0 0)
(0 0 0)
(0 0 0)
(0 0 0)
(0 0 0)
(0 0 0)
(0 0 0)
(0 0 0)
(0 0 0)
(0 0 0)
(0 0 0)
(0 0 0)
(0 0 0)
(0 0 0)
(0 0 0)
(0 0 0)
(0 0 0)
(0 0 0)
(0 0 0)
(0 0 0)
(0 0 0)
(0 0 0)
(0 0 0)
(0 0 0)
(0 0 0)
(0 0 0)
(0 0 0)
(0 0 0)
(0 0 0)
(0 0 0)
(0 0 0)
(0 0 0)
(0 0 0)
(0 0 0)
(0 0 0)
(0 0 0)
(0 0 0)
(0 0 0)
(0 0 0)
(0 0 0)
(0 0 0)
(0 0 0)
(0 0 0)
(0 0 0)
(0 0 0)
(0 0 0)
(0 0 0)
(0 0 0)
(0 0 0)
(-9.395151426e-07 5.583780538e-06 2.775557562e-17)
(0 0 0)
(0 0 0)
(-5.172819393e-07 6.254607906e-05 3.469446952e-16)
(2.39426341e-06 5.31693473e-05 2.91433544e-16)
(0 0 0)
(0 0 0)
(0 0 0)
(0 0 0)
(0 0 0)
(0 0 0)
(0 0 0)
(0 0 0)
(0 0 0)
(0 0 0)
(0 0 0)
(0 0 0)
(0 0 0)
(0 0 0)
(0 0 0)
(0 0 0)
(0 0 0)
(0 0 0)
(0 0 0)
(0 0 0)
(0 0 0)
(0 0 0)
(0 0 0)
(0 0 0)
(0 0 0)
(0 0 0)
(0 0 0)
(0 0 0)
(0 0 0)
(0 0 0)
(0 0 0)
(0 0 0)
(0 0 0)
(0 0 0)
(0 0 0)
(0 0 0)
(0 0 0)
(0 0 0)
(0 0 0)
(0 0 0)
(0 0 0)
(0 0 0)
(0 0 0)
(0 0 0)
(0 0 0)
(0 0 0)
(0 0 0)
(0 0 0)
(0 0 0)
(0 0 0)
(0 0 0)
(0 0 0)
(0 0 0)
(0 0 0)
(0 0 0)
(0 0 0)
(0 0 0)
(0 0 0)
(0 0 0)
(0 0 0)
(0 0 0)
(-5.852911123e-05 7.231383714e-05 4.996003611e-16)
(-0.000336729321 0.0004537126712 3.080868893e-15)
(-4.404767197e-06 6.298406933e-06 2.775557562e-17)
(-0.0006387074458 0.001253003681 8.021361353e-15)
(-0.001582947149 0.00293607338 1.994238108e-14)
(-0.001875026584 0.003977950508 2.702005286e-14)
(-0.0008768276181 0.001964816581 1.257327575e-14)
(-0.00106042387 0.004141022967 2.649269693e-14)
(-0.001846740091 0.00687309972 4.66710004e-14)
(-0.001529766575 0.007593310754 5.156985949e-14)
(-0.0009089385914 0.004712311362 3.015643291e-14)
(-2.316171063e-05 0.005508350152 3.526345882e-14)
(-8.054866766e-06 0.008575130906 5.830058658e-14)
(0.0005542644764 0.008461494661 5.756506383e-14)
(0.0003161894761 0.005417079179 3.469446952e-14)
(0.001017745087 0.004150457578 2.658984144e-14)
(0.001813128179 0.006875387985 4.682365606e-14)
(0.001978685411 0.006006529264 4.091171846e-14)
(0.001067399835 0.003474254394 2.225997164e-14)
(0.0006250780555 0.001267899217 8.118505868e-15)
(0.001553932618 0.002954943409 2.012279232e-14)
(0.001167588116 0.001974700902 1.344757639e-14)
(0.0003649088377 0.0006575070376 4.218847494e-15)
(0 0 0)
(6.140603974e-05 7.787067095e-05 5.273559367e-16)
(0 0 0)
(0 0 0)
(0 0 0)
(0 0 0)
(0 0 0)
(0 0 0)
(0 0 0)
(0 0 0)
(0 0 0)
(0 0 0)
(0 0 0)
(0 0 0)
(0 0 0)
(0 0 0)
(0 0 0)
(0 0 0)
(0 0 0)
(0 0 0)
(0 0 0)
(0 0 0)
(0 0 0)
(0 0 0)
(0 0 0)
(0 0 0)
(0 0 0)
(0 0 0)
(0 0 0)
(0 0 0)
(0 0 0)
(0 0 0)
(0 0 0)
(0 0 0)
(0 0 0)
(0 0 0)
(0 0 0)
(0 0 0)
(0 0 0)
(0 0 0)
(0 0 0)
(0 0 0)
(0 0 0)
(0 0 0)
(0 0 0)
(0 0 0)
(0 0 0)
(0 0 0)
(-0.0001634600428 0.0001141103517 1.026956298e-15)
(-0.0008925705547 0.0006652258612 6.022959909e-15)
(-0.0002115069819 0.0001704784491 1.429412144e-15)
(-0.003009956762 0.003046455977 2.541022948e-14)
(-0.004806961909 0.004512902466 4.067579606e-14)
(-0.006119226079 0.00629139265 5.662137426e-14)
(-0.004130923614 0.004574105271 3.810840532e-14)
(-0.00636694015 0.009806267254 8.151812558e-14)
(-0.008392206988 0.01203862833 1.080663337e-13)
(-0.008396294454 0.01385107547 1.243172232e-13)
(-0.006512669487 0.01152155075 9.574285809e-14)
(-0.004967371617 0.01574962829 1.310201947e-13)
(-0.006117782149 0.01820166811 1.636607516e-13)
(-0.004731066967 0.01916948143 1.725841692e-13)
(-0.003890235432 0.01671383527 1.391525783e-13)
(0.0002446287116 0.01795323546 1.500188862e-13)
(0.0004016122368 0.0203804904 1.843802888e-13)
(0.00218547312 0.02020477472 1.831035323e-13)
(0.001695242901 0.01778886747 1.488253965e-13)
(0.005300342689 0.01563824581 1.312838727e-13)
(0.006706839443 0.01801168685 1.639799407e-13)
(0.007712897368 0.01677140151 1.528499549e-13)
(0.00605280817 0.01442523704 1.211947209e-13)
(0.006428644591 0.009744771119 8.193445922e-14)
(0.00856869465 0.01189788344 1.08565934e-13)
(0.008084454069 0.01002946081 9.148237723e-14)
(0.005909443559 0.007995607987 6.719624857e-14)
(0.002996423548 0.003069243168 2.574329638e-14)
(0.004798151912 0.004519218703 4.110600749e-14)
(0.003386861421 0.002953516772 2.683964162e-14)
(0.001878695546 0.001779953605 1.490474411e-14)
(0 0 0)
(0.0001622991184 0.0001153086778 1.054711873e-15)
(0 0 0)
(0 0 0)
(0 0 0)
(0 0 0)
(0 0 0)
(0 0 0)
(0 0 0)
(0 0 0)
(0 0 0)
(0 0 0)
(0 0 0)
(0 0 0)
(0 0 0)
(0 0 0)
(0 0 0)
(0 0 0)
(0 0 0)
(0 0 0)
(0 0 0)
(0 0 0)
(0 0 0)
(0 0 0)
(0 0 0)
(0 0 0)
(0 0 0)
(0 0 0)
(0 0 0)
(0 0 0)
(0 0 0)
(0 0 0)
(0 0 0)
(0 0 0)
(0 0 0)
(0 0 0)
(0 0 0)
(0 0 0)
(0 0 0)
(0 0 0)
(0 0 0)
(-7.033037025e-05 2.737811635e-05 3.747002708e-16)
(0 0 0)
(-0.002989908762 0.001576215056 1.892930257e-14)
(-0.004441634049 0.00208433177 2.81163981e-14)
(-0.006941111101 0.003498761968 4.696243394e-14)
(-0.005100148413 0.002880929296 3.451405828e-14)
(-0.01158234595 0.008319257291 9.875433804e-14)
(-0.0140374147 0.009038725008 1.199318422e-13)
(-0.01564363351 0.01106690996 1.464661725e-13)
(-0.01318091801 0.01039464576 1.230959779e-13)
(-0.01478971768 0.01637598347 1.933730953e-13)
(-0.01682393282 0.0167247257 2.207262151e-13)
(-0.01596166947 0.01828384443 2.415012634e-13)
(-0.01417432908 0.01808485805 2.136485433e-13)
(-0.00938821947 0.02184002003 2.593897319e-13)
(-0.01032830964 0.02157124296 2.869371407e-13)
(-0.007720080694 0.02219237974 2.962352585e-13)
(-0.007061371911 0.02259313467 2.690764278e-13)
(0.0009331113973 0.02339947818 2.814692923e-13)
(0.001068314316 0.02278353894 3.078926003e-13)
(0.004057161882 0.02259551394 3.06671355e-13)
(0.003662598142 0.02320888349 2.801647803e-13)
(0.01092690704 0.02130893545 2.597644322e-13)
(0.01214109148 0.02091071833 2.873257188e-13)
(0.01426895078 0.01996130351 2.752242878e-13)
(0.01277080532 0.02023658971 2.473299343e-13)
(0.01553899225 0.01580633212 1.940531069e-13)
(0.01778975264 0.01595234195 2.213090822e-13)
(0.0177985766 0.01428100938 1.982025655e-13)
(0.01537816113 0.01399756918 1.71876402e-13)
(0.01164485273 0.008073516996 9.876821583e-14)
(0.01452814272 0.008831961788 1.225269886e-13)
(0.01249731273 0.007032609534 9.756084829e-14)
(0.009897005415 0.006338104879 7.754907827e-14)
(0.003417461274 0.001796888325 2.187139359e-14)
(0.005109800545 0.002377554176 3.268219029e-14)
(0.002881093556 0.001267609684 1.736111255e-14)
(0.001645910445 0.0008172060691 9.922618283e-15)
(0 0 0)
(0 0 0)
(0 0 0)
(0 0 0)
(0 0 0)
(0 0 0)
(0 0 0)
(0 0 0)
(0 0 0)
(0 0 0)
(0 0 0)
(0 0 0)
(0 0 0)
(0 0 0)
(0 0 0)
(0 0 0)
(0 0 0)
(0 0 0)
(0 0 0)
(0 0 0)
(0 0 0)
(0 0 0)
(0 0 0)
(0 0 0)
(0 0 0)
(0 0 0)
(0 0 0)
(0 0 0)
(0 0 0)
(0 0 0)
(0 0 0)
(0 0 0)
(0 0 0)
(0 0 0)
(0 0 0)
(-0.0003250471432 7.496835517e-05 1.637578961e-15)
(-0.0007391543364 0.0001363456249 3.73312492e-15)
(-0.002624373698 0.0005125356961 1.394717675e-14)
(-0.001764605138 0.0004298522438 9.381384558e-15)
(-0.01034321685 0.003060197856 6.541989173e-14)
(-0.0122323824 0.002925429042 7.73964226e-14)
(-0.0157440539 0.004064236873 1.064287547e-13)
(-0.01365433006 0.004350294058 9.227341113e-14)
(-0.02141290547 0.008797175758 1.824651541e-13)
(-0.02364029232 0.007872545345 2.013250677e-13)
(-0.02484325193 0.009106248058 2.316480341e-13)
(-0.02271402499 0.01028663492 2.120942311e-13)
(-0.02216202875 0.01420419724 2.907396546e-13)
(-0.0235434253 0.01222048971 3.075456556e-13)
(-0.02161214451 0.0129087044 3.255451464e-13)
(-0.02041250856 0.0150414749 3.086697564e-13)
(-0.0124419622 0.0165568425 3.448352714e-13)
(-0.01290175111 0.01378917422 3.543831895e-13)
(-0.009477250734 0.01380442825 3.577416141e-13)
(-0.00918291592 0.01671159693 3.504141421e-13)
(0.001140010459 0.01659588908 3.559791351e-13)
(0.001041543594 0.01348797669 3.596567488e-13)
(0.004560736687 0.0133499446 3.596012377e-13)
(0.004612425532 0.0164403472 3.554934125e-13)
(0.01466886602 0.01559236391 3.455707942e-13)
(0.01502889518 0.01275002833 3.54868912e-13)
(0.01819247171 0.01240585053 3.490124856e-13)
(0.01761751826 0.01510488449 3.374245328e-13)
(0.02367316029 0.01279214234 2.91364155e-13)
(0.02515623124 0.0106016116 3.086142453e-13)
(0.0262780624 0.009801906021 2.882138972e-13)
(0.02446670933 0.01170964504 2.688127498e-13)
(0.0224057017 0.008155360878 1.876415689e-13)
(0.02469527046 0.00703626103 2.06668016e-13)
(0.0225725884 0.005999976088 1.751654377e-13)
(0.02024256645 0.00686598785 1.572075803e-13)
(0.01097182854 0.003120209815 6.993017276e-14)
(0.01293561377 0.002902160615 8.237854843e-14)
(0.009315704512 0.00199185335 5.595524044e-14)
(0.007630891675 0.002062652663 4.58660887e-14)
(0.0005029118612 0.0001176865832 2.581268532e-15)
(0.00086400862 0.0001608572527 4.427014311e-15)
(2.193092288e-05 3.894711519e-06 1.110223025e-16)
(0 0 0)
(0 0 0)
(0 0 0)
(0 0 0)
(0 0 0)
(0 0 0)
(0 0 0)
(0 0 0)
(0 0 0)
(0 0 0)
(0 0 0)
(0 0 0)
(0 0 0)
(0 0 0)
(0 0 0)
(0 0 0)
(0 0 0)
(0 0 0)
(0 0 0)
(0 0 0)
(0 0 0)
(0 0 0)
(0 0 0)
(0 0 0)
(0 0 0)
(0 0 0)
(0 0 0)
(0 0 0)
(0 0 0)
(-3.094002636e-05 -1.359776548e-06 1.387778781e-16)
(-8.442703205e-07 -1.335522803e-09 0)
(0 0 0)
(-0.002320110859 0.0001067879861 1.171285291e-14)
(-0.00292823774 -1.328365937e-07 1.477984402e-14)
(-0.006072331665 1.079878847e-05 3.227973444e-14)
(-0.005180930954 0.0002596694021 2.753353101e-14)
(-0.01678005156 0.001136647087 1.061373212e-13)
(-0.01826529503 0.000192414442 1.154909501e-13)
(-0.02215766814 0.0003140870054 1.496303081e-13)
(-0.02098918955 0.001586755473 1.418309914e-13)
(-0.02884777541 0.002962282939 2.451094883e-13)
(-0.03005484152 0.0007678224673 2.549765954e-13)
(-0.03077917817 0.0008885977075 2.853828285e-13)
(-0.02968266074 0.003362586449 2.757655215e-13)
(-0.02653534098 0.004099856268 3.41532358e-13)
(-0.02713357148 0.0009767475848 3.476802179e-13)
(-0.02432788877 0.0009167890052 3.5670078e-13)
(-0.02393770627 0.004187677572 3.531758219e-13)
(-0.01366853215 0.004072305722 0)
(-0.01393982481 0.0006645829767 0)
(-0.01216569545 0.0006270058404 0)
(-0.01029331586 0.0006628730596 0)
(-0.01014332334 0.002349164404 0)
(-0.01006380063 0.003997133285 0)
(0.0006602010186 0.003652068601 0)
(0.0005971021824 0.002012765757 0)
(0.002393075906 0.001945075399 0)
(0.002446442331 0.003584598468 0)
(0.01509651624 0.002961850418 0)
(0.01508530964 0.001276143558 0)
(0.01508583667 -0.0004361378738 0)
(0.01687038902 -0.0005564053926 0)
(0.01863025629 -0.0006432234997 0)
(0.01868265813 0.002740791547 0)
(0.0279358855 0.002151289259 3.438915819e-13)
(0.0283229396 -0.00104031073 3.497480083e-13)
(0.03042151215 -0.001085053602 3.357314426e-13)
(0.02980220546 0.001979663472 3.280847816e-13)
(0.02996449371 0.001479707139 2.509520369e-13)
(0.03102249863 -0.0009180048574 2.600281102e-13)
(0.02941416573 -0.0007803686487 2.283451206e-13)
(0.02809322116 0.001315848573 2.179922909e-13)
(0.01806752328 0.0007935444113 1.148942053e-13)
(0.01975822825 -0.0003113064325 1.256494908e-13)
(0.01555607753 -0.0001901645242 9.328648964e-14)
(0.01401085358 0.0006151657693 8.403000518e-14)
(0.003114873494 0.0001348267338 1.594557819e-14)
(0.003893620169 -1.621679666e-05 1.992850329e-14)
(0.001394603067 -3.757674303e-06 6.800116026e-15)
(0.0009488445759 4.018214293e-05 4.635181128e-15)
(0 0 0)
(0 0 0)
(0 0 0)
(0 0 0)
(0 0 0)
(0 0 0)
(0 0 0)
(0 0 0)
(0 0 0)
(0 0 0)
(0 0 0)
(0 0 0)
(0 0 0)
(0 0 0)
(0 0 0)
(0 0 0)
(0 0 0)
(0 0 0)
(0 0 0)
(0 0 0)
(0 0 0)
(0 0 0)
(0 0 0)
(0 0 0)
(0 0 0)
(0 0 0)
(0 0 0)
(0 0 0)
(-0.000278783676 -5.948098844e-05 1.276756478e-15)
(-0.0001588713161 -2.716674426e-05 7.21644966e-16)
(-0.0001299705924 -1.673140267e-05 5.967448757e-16)
(-0.004207486759 -0.0005856813579 2.123301535e-14)
(-0.00436375569 -0.0008097981697 2.201017146e-14)
(-0.008077460237 -0.001560257974 4.288236433e-14)
(-0.007863474741 -0.001135529168 4.17721413e-14)
(-0.02111449922 -0.003431827023 1.33226763e-13)
(-0.02145875929 -0.004726839759 1.352806756e-13)
(-0.0255299163 -0.005924346538 1.717098685e-13)
(-0.02515915771 -0.004289346711 1.69392278e-13)
(-0.0325447229 -0.006724046751 2.74363865e-13)
(-0.03291201678 -0.009329101621 2.768618668e-13)
(-0.03330699697 -0.01028327738 3.056443987e-13)
(-0.03296636309 -0.007414413758 3.032990525e-13)
(-0.02815561263 -0.008855092845 3.558264794e-13)
(-0.02835160631 -0.01217938746 3.566869022e-13)
(-0.02508150035 -0.012402199 0)
(-0.02494858244 -0.009065614221 3.596567488e-13)
(-0.01444602642 -0.009429797876 0)
(-0.01452083034 -0.01112093705 0)
(-0.01277134478 -0.0111779901 0)
(-0.01269679667 -0.009489509566 0)
(0.01481563058 -0.01050357724 0)
(0.01476125113 -0.0121790692 0)
(0.01650962114 -0.01225315974 0)
(0.01656574665 -0.01058021816 0)
(0.02867840976 -0.01105968777 3.579081476e-13)
(0.02862434475 -0.01439884037 3.587685704e-13)
(0.03145357565 -0.01422239959 3.51468854e-13)
(0.03139090312 -0.01090966464 3.494704526e-13)
(0.03394326605 -0.009014918475 2.858963066e-13)
(0.03430860629 -0.01181814887 2.896294315e-13)
(0.03310290491 -0.01051527836 2.584599201e-13)
(0.03266691345 -0.007995392074 2.545741395e-13)
(0.02317491975 -0.00448929714 1.475763955e-13)
(0.02368742456 -0.005994452521 1.509764536e-13)
(0.01922658059 -0.00453234802 1.154631946e-13)
(0.01873797951 -0.003369202091 1.124655924e-13)
(0.005649120691 -0.000826626674 2.889355422e-14)
(0.006379003479 -0.001238804075 3.264055692e-14)
(0.003041800897 -0.0005575836856 1.482147738e-14)
(0.002504063152 -0.0003451096426 1.219857548e-14)
(0 0 0)
(0 0 0)
(0 0 0)
(0 0 0)
(0 0 0)
(0 0 0)
(0 0 0)
(0 0 0)
(0 0 0)
(0 0 0)
(0 0 0)
(0 0 0)
(0 0 0)
(0 0 0)
(0 0 0)
(0 0 0)
(0 0 0)
(0 0 0)
(0 0 0)
(0 0 0)
(0 0 0)
(0 0 0)
(0 0 0)
(0 0 0)
(0 0 0)
(0 0 0)
(0 0 0)
(0 0 0)
(-0.0004576452257 -0.0001749748743 2.095545959e-15)
(-0.0004133434054 -0.0001405946426 1.90125693e-15)
(-0.0003626183973 -0.0001080274159 1.665334537e-15)
(-0.005185626028 -0.001683510829 2.614575223e-14)
(-0.005362458941 -0.001989259107 2.703393065e-14)
(-0.00935099092 -0.003627867125 4.959921363e-14)
(-0.009129089618 -0.003097632675 4.843347945e-14)
(-0.02282327677 -0.008970399143 1.435518371e-13)
(-0.0231081639 -0.01040806877 1.452171716e-13)
(-0.02716508269 -0.01295978819 1.819377982e-13)
(-0.02688025654 -0.01118357902 1.802169525e-13)
(-0.0339816398 -0.01740607603 2.839950497e-13)
(-0.03422394255 -0.0201133776 2.853967063e-13)
(-0.03445377057 -0.02203901624 3.128330928e-13)
(-0.03423484205 -0.01909275879 3.116673586e-13)
(-0.02883230452 -0.02213904509 3.58074681e-13)
(-0.02897157703 -0.02544957696 3.582967256e-13)
(-0.02558254997 -0.02567647408 0)
(-0.02545967634 -0.02236608479 0)
(-0.01497512498 -0.02276618424 0)
(-0.01503760338 -0.02442249138 0)
(-0.01329285407 -0.02448882851 0)
(-0.0132301455 -0.02283253021 0)
(0.01434187996 -0.02386926174 0)
(0.01427826002 -0.02553528304 0)
(0.0160226376 -0.02560329625 0)
(0.01608653201 -0.02393813068 0)
(0.02831002804 -0.02441400428 3.596151155e-13)
(0.02818171598 -0.02774081449 3.596567488e-13)
(0.0313150396 -0.02754198463 3.555211681e-13)
(0.03139594886 -0.02421902535 3.549799343e-13)
(0.03521000353 -0.02055417582 2.99413272e-13)
(0.03533282183 -0.02346925152 3.012590177e-13)
(0.03451460318 -0.02114367422 2.717132075e-13)
(0.03431859028 -0.01848008684 2.695621504e-13)
(0.02552535314 -0.01103358465 1.631611513e-13)
(0.02588173722 -0.01273630558 1.656175197e-13)
(0.02148248494 -0.009890160704 1.293964935e-13)
(0.02110593381 -0.008530241335 1.270233918e-13)
(0.007313133451 -0.002459511333 3.744227151e-14)
(0.007609746287 -0.002921022247 3.896882816e-14)
(0.003924233115 -0.001427144729 1.913746939e-14)
(0.003699669011 -0.001178253306 1.804112415e-14)
(0 0 0)
(0 0 0)
(0 0 0)
(0 0 0)
(0 0 0)
(0 0 0)
(0 0 0)
(0 0 0)
(0 0 0)
(0 0 0)
(0 0 0)
(0 0 0)
(0 0 0)
(0 0 0)
(0 0 0)
(0 0 0)
(0 0 0)
(0 0 0)
(0 0 0)
(0 0 0)
(0 0 0)
(0 0 0)
(0 0 0)
(0 0 0)
(0 0 0)
(0 0 0)
(0 0 0)
(0 0 0)
(-0.0006751090102 -0.0003719628151 3.094746681e-15)
(-0.0006086499575 -0.0003096859735 2.789435349e-15)
(-0.0005494792841 -0.0002564247033 2.525757381e-15)
(-0.005803102668 -0.002957642928 2.92543767e-14)
(-0.005981607726 -0.00332476358 3.014255512e-14)
(-0.01012117488 -0.005891241085 5.363764988e-14)
(-0.009900632989 -0.005283207049 5.248579349e-14)
(-0.02381720788 -0.01480792762 1.49311119e-13)
(-0.02409597491 -0.0163506519 1.509070646e-13)
(-0.02815823466 -0.02025683489 1.877248357e-13)
(-0.02787973221 -0.01837515074 1.860872567e-13)
(-0.03485805307 -0.02829753614 2.887412531e-13)
(-0.03509485576 -0.03108459309 2.900457652e-13)
(-0.03525179659 -0.0339339585 3.166911178e-13)
(-0.03503811153 -0.03092434331 3.156086503e-13)
(-0.02937151107 -0.03536865373 3.587685704e-13)
(-0.02950477887 -0.03867881325 3.589351039e-13)
(-0.02606791097 -0.03889037585 0)
(-0.02594713794 -0.03558866502 0)
(-0.015469403 -0.03598819526 0)
(-0.01553063644 -0.03763809612 0)
(-0.01378825076 -0.03770395827 0)
(-0.01375747765 -0.03687893702 0)
(-0.01372673106 -0.03605460625 0)
(0.01381430004 -0.03718211819 0)
(0.01374585816 -0.0388416538 0)
(0.01548834709 -0.03890682841 0)
(0.0155569985 -0.03724783869 0)
(0.02777187853 -0.03770268921 3.596289933e-13)
(0.02762848417 -0.04100623361 3.595734821e-13)
(0.03070913432 -0.04056480696 3.546885008e-13)
(0.03088451811 -0.03735085824 3.551603456e-13)
(0.034901039 -0.03167745202 3.000238946e-13)
(0.03467851666 -0.0343105711 2.989414272e-13)
(0.03387495555 -0.03086554525 2.691458167e-13)
(0.0340979852 -0.02851308913 2.702837953e-13)
(0.02553239363 -0.01714574219 1.639660629e-13)
(0.02534172061 -0.01853409019 1.629391067e-13)
(0.02098885494 -0.01437324989 1.268846139e-13)
(0.02116057253 -0.01330405317 1.278005479e-13)
(0.007401719001 -0.003893554262 3.794187187e-14)
(0.007304262601 -0.004187722416 3.745614929e-14)
(0.003700970775 -0.002013030172 1.806887973e-14)
(0.003769484994 -0.001880744145 1.840194663e-14)
(0 0 0)
(0 0 0)
(0 0 0)
(0 0 0)
(0 0 0)
(0 0 0)
(0 0 0)
(0 0 0)
(0 0 0)
(0 0 0)
(0 0 0)
(0 0 0)
(0 0 0)
(0 0 0)
(0 0 0)
(0 0 0)
(0 0 0)
(0 0 0)
(0 0 0)
(0 0 0)
(0 0 0)
(0 0 0)
(0 0 0)
(0 0 0)
(0 0 0)
(0 0 0)
(0 0 0)
(0 0 0)
(-0.0009668646697 -0.0006957734199 4.440892099e-15)
(-0.0008878260882 -0.0006014738446 4.080069615e-15)
(-0.000811383303 -0.0005154777694 3.73312492e-15)
(-0.006540094202 -0.004540539539 3.294586826e-14)
(-0.006736980095 -0.004987768669 3.394506898e-14)
(-0.01104501414 -0.008566219853 5.848099782e-14)
(-0.01080568274 -0.007858538885 5.721811913e-14)
(-0.02495173423 -0.02116935493 1.558475571e-13)
(-0.02524756332 -0.02284331605 1.575406472e-13)
(-0.02930528882 -0.02810601472 1.944139294e-13)
(-0.02901126941 -0.02609311446 1.927208393e-13)
(-0.03581465711 -0.03959401752 2.939870569e-13)
(-0.0360599413 -0.04248121083 2.953193246e-13)
(-0.03611735845 -0.04617302912 3.209793542e-13)
(-0.03589838382 -0.04308295337 3.199107645e-13)
(-0.02989726133 -0.04862068611 3.593098041e-13)
(-0.03002542202 -0.0519354093 3.594069486e-13)
(-0.02654776866 -0.05210502689 0)
(-0.02642837965 -0.04880134203 0)
(-0.01595707163 -0.04920016435 0)
(-0.01601736664 -0.05085163796 0)
(-0.01427797605 -0.05091746188 0)
(-0.01424763673 -0.05009173245 0)
(-0.0142172266 -0.0492661594 0)
(0.01325453009 -0.05043887802 0)
(0.01318141991 -0.05209592924 0)
(0.01492228875 -0.05215927441 0)
(0.01499576486 -0.05050269825 0)
(0.02713955698 -0.05081456669 3.58726937e-13)
(0.02694270271 -0.05400420241 3.580052921e-13)
(0.02971615857 -0.05280386048 3.493871858e-13)
(0.03002223479 -0.04988290765 3.514133429e-13)
(0.0333368525 -0.04121742328 2.896988205e-13)
(0.03260512248 -0.04300925409 2.840505609e-13)
(0.03173099939 -0.03848127122 2.543243394e-13)
(0.03233361352 -0.03676267939 2.58598698e-13)
(0.02344825989 -0.02135415797 1.512540093e-13)
(0.02284784238 -0.02217637994 1.475347622e-13)
(0.01854677896 -0.01685429679 1.124794702e-13)
(0.01910384682 -0.01628925608 1.157685059e-13)
(0.005969127975 -0.004266921174 3.062827769e-14)
(0.00564841149 -0.004304208132 2.899069873e-14)
(0.002512123339 -0.001817609539 1.228184221e-14)
(0.002727155639 -0.001850729854 1.33226763e-14)
(0 0 0)
(0 0 0)
(0 0 0)
(0 0 0)
(0 0 0)
(0 0 0)
(0 0 0)
(0 0 0)
(0 0 0)
(0 0 0)
(0 0 0)
(0 0 0)
(0 0 0)
(0 0 0)
(0 0 0)
(0 0 0)
(0 0 0)
(0 0 0)
(0 0 0)
(0 0 0)
(0 0 0)
(0 0 0)
(0 0 0)
(0 0 0)
(0 0 0)
(0 0 0)
(0 0 0)
(0 0 0)
(-0.001222093974 -0.001085440122 5.606626274e-15)
(-0.001263834974 -0.001069178189 5.800915304e-15)
(-0.001153667417 -0.0009273978741 5.301314943e-15)
(-0.00738097937 -0.006483499856 3.716471575e-14)
(-0.007632899431 -0.007055379554 3.841371665e-14)
(-0.01212181386 -0.01173672193 6.40876241e-14)
(-0.01182101009 -0.01087726461 6.251943407e-14)
(-0.02619261544 -0.02810319725 1.629529844e-13)
(-0.02655180143 -0.02996823045 1.649930192e-13)
(-0.03059366782 -0.03658192779 2.01894057e-13)
(-0.03024066299 -0.03438019682 1.998401444e-13)
(-0.03682635535 -0.05131353573 2.994549053e-13)
(-0.0371061342 -0.05433723874 3.010092176e-13)
(-0.03703833915 -0.05877311577 3.255590242e-13)
(-0.03679512764 -0.05557652506 3.243239011e-13)
(-0.03040141571 -0.06187166564 3.596289933e-13)
(-0.03052405386 -0.06518055457 3.596567488e-13)
(-0.02702264258 -0.06531595083 0)
(-0.02690397353 -0.06201300665 0)
(-0.01643438295 -0.06241053364 0)
(-0.01649321436 -0.0640619098 0)
(-0.01475710805 -0.06412722338 0)
(-0.01472752711 -0.06330123431 0)
(-0.01469789303 -0.06247586195 0)
(0.01265814785 -0.06366265224 0)
(0.01258041349 -0.06531407055 0)
(0.01432072162 -0.06537601115 0)
(0.01439899303 -0.06372461347 0)
(0.0262408739 -0.06320024941 3.543138005e-13)
(0.02594745488 -0.066057615 3.522460101e-13)
(0.0282799144 -0.06354098701 3.383821001e-13)
(0.02870277193 -0.06108567432 3.419764472e-13)
(0.03055030268 -0.04792035816 2.680494715e-13)
(0.03000309788 -0.0495861549 2.638722574e-13)
(0.02851602841 -0.04322401421 2.302324997e-13)
(0.02944022763 -0.04239196179 2.372962937e-13)
(0.02017024001 -0.02319182459 1.305622277e-13)
(0.01890303656 -0.02285588155 1.22429844e-13)
(0.01467518607 -0.01660943674 8.917866445e-14)
(0.01594594151 -0.01716345314 9.688083669e-14)
(0.004007375218 -0.003619912659 2.058075932e-14)
(0.00349985702 -0.003326299071 1.7985613e-14)
(0.0011370925 -0.001026910822 5.551115123e-15)
(0.001431193727 -0.001228237502 6.994405055e-15)
(0 0 0)
(0 0 0)
(0 0 0)
(0 0 0)
(0 0 0)
(0 0 0)
(0 0 0)
(0 0 0)
(0 0 0)
(0 0 0)
(0 0 0)
(0 0 0)
(0 0 0)
(0 0 0)
(0 0 0)
(0 0 0)
(0 0 0)
(0 0 0)
(0 0 0)
(0 0 0)
(0 0 0)
(0 0 0)
(0 0 0)
(0 0 0)
(0 0 0)
(0 0 0)
(0 0 0)
(0 0 0)
(-0.002173210761 -0.002295399103 9.964251646e-15)
(-0.001981187865 -0.002009049839 9.103828802e-15)
(-0.001695461121 -0.001648241232 7.78543896e-15)
(-0.00844313905 -0.008965130092 4.246603069e-14)
(-0.009073320998 -0.01004621455 4.561628852e-14)
(-0.01377498475 -0.01597052177 7.267797475e-14)
(-0.0130015711 -0.01445860707 6.865341629e-14)
(-0.02776533056 -0.03594703663 1.719457909e-13)
(-0.02829750241 -0.03818691669 1.749989043e-13)
(-0.03222658006 -0.04604014134 2.114003417e-13)
(-0.03177755722 -0.04356104899 2.087774398e-13)
(-0.03801562256 -0.06366560867 3.060884879e-13)
(-0.0381918249 -0.066618454 3.067546217e-13)
(-0.03808885229 -0.07188203683 3.309574836e-13)
(-0.03781619157 -0.06855700635 3.295558271e-13)
(-0.03088748222 -0.07508936865 0)
(-0.03101066604 -0.07839183204 0)
(-0.02750397003 -0.07852485964 0)
(-0.02744270711 -0.07687419156 0)
(-0.02738189862 -0.07522335236 0)
(-0.01690132213 -0.07562091722 0)
(-0.01693046641 -0.07644554005 0)
(-0.0160621713 -0.07647789879 0)
(-0.01603311259 -0.07565350318 0)
(-0.001845002927 -0.07639542322 0)
(-0.00187036988 -0.07680628266 0)
(-0.001892974739 -0.07721732504 0)
(-0.001042510376 -0.07724031645 0)
(-0.0009932502059 -0.07641907881 0)
(0.01199851919 -0.07685272497 0)
(0.01190831433 -0.07849674908 0)
(0.01181743667 -0.08014028633 0)
(0.01530828939 -0.08026571331 0)
(0.01548567446 -0.07697639638 0)
(0.01374274307 -0.07691473917 0)
(0.02490991542 -0.07385988276 3.435723928e-13)
(0.02443412288 -0.07590180173 3.386874114e-13)
(0.02618263017 -0.0714142829 3.184119635e-13)
(0.02690990768 -0.07016090764 3.260447468e-13)
(0.02739581307 -0.05214862823 2.423339307e-13)
(0.02639706514 -0.05244919577 2.338684801e-13)
(0.02455268225 -0.04466349583 1.993405441e-13)
(0.02559581983 -0.04462278055 2.075561945e-13)
(0.015662709 -0.02173061539 1.015854068e-13)
(0.0147193893 -0.02129791108 9.550693569e-14)
(0.01078253583 -0.01460260607 6.561418076e-14)
(0.01161389038 -0.01508135984 7.065181773e-14)
(0.001655262954 -0.001806516337 8.507083926e-15)
(0.001345623732 -0.001532115091 6.911138328e-15)
(0.0001067125825 -0.0001155649327 5.273559367e-16)
(0.0002038780075 -0.0002115999598 9.992007222e-16)
(0 0 0)
(0 0 0)
(0 0 0)
(0 0 0)
(0 0 0)
(0 0 0)
(0 0 0)
(0 0 0)
(0 0 0)
(0 0 0)
(0 0 0)
(0 0 0)
(0 0 0)
(0 0 0)
(0 0 0)
(0 0 0)
(0 0 0)
(0 0 0)
(0 0 0)
(0 0 0)
(0 0 0)
(0 0 0)
(0 0 0)
(0 0 0)
(0 0 0)
(0 0 0)
(0 0 0)
(0 0 0)
(-0.002061066815 -0.002536411887 9.492406861e-15)
(-0.002329258211 -0.002767272553 1.074140776e-14)
(-0.002488970211 -0.002851354146 1.146305273e-14)
(-0.01005444644 -0.01257439002 5.073719223e-14)
(-0.009731767061 -0.01262280888 4.911349105e-14)
(-0.0145354237 -0.01973883043 7.696621118e-14)
(-0.01492147528 -0.01953770533 7.900624599e-14)
(-0.02962935815 -0.04512552314 1.836586438e-13)
(-0.02916314098 -0.04605066779 1.806194083e-13)
(-0.03306841238 -0.05525115999 2.170486013e-13)
(-0.03351851376 -0.05402593645 2.202404925e-13)
(-0.03909211348 -0.07685717595 3.140265825e-13)
(-0.03881774688 -0.07903149447 3.11181636e-13)
(-0.03844140867 -0.08464084291 3.332056853e-13)
(-0.03862114702 -0.08215520718 3.35578787e-13)
(-0.03099348088 -0.08834650386 0)
(-0.03112036797 -0.09164936282 0)
(-0.02760391645 -0.09178445557 0)
(-0.02754048764 -0.09013340969 0)
(-0.02747702937 -0.0884815966 0)
(-0.01692782825 -0.08888686893 0)
(-0.01699128653 -0.09053868202 0)
(-0.01523313749 -0.09060622544 0)
(-0.01520139362 -0.08977993529 0)
(-0.01516967921 -0.08895441235 0)
(-0.01604875373 -0.08892064064 0)
(-0.002862254861 -0.08942723096 0)
(-0.002893967794 -0.09025275395 0)
(-0.002925710935 -0.09107904413 0)
(-0.001167507874 -0.09114658963 0)
(-0.001104049596 -0.08949477654 0)
(0.01120332357 -0.08996759318 0)
(0.01107643649 -0.09327045215 0)
(0.01454654179 -0.09304632965 3.582967256e-13)
(0.01470999702 -0.09003101223 3.593791931e-13)
(0.02305164054 -0.081570052 3.2439329e-13)
(0.02245144983 -0.0827075568 3.174682739e-13)
(0.02371937682 -0.07635029869 2.929184673e-13)
(0.02443301623 -0.07564302037 3.006761506e-13)
(0.02296527435 -0.05134401588 2.042255254e-13)
(0.022032623 -0.05110293548 1.961902862e-13)
(0.01970602798 -0.04175457023 1.604549826e-13)
(0.02105216611 -0.04304646604 1.713629239e-13)
(0.01111318246 -0.01804577919 7.215061881e-14)
(0.00968772752 -0.01629546877 6.288025656e-14)
(0.006590917586 -0.01038262601 4.010680676e-14)
(0.007509267003 -0.01141406009 4.569955525e-14)
(0.0002770896379 -0.0003547241635 1.415534356e-15)
(0.000125162689 -0.0001661687978 6.383782392e-16)
(0 0 0)
(0 0 0)
(0 0 0)
(0 0 0)
(0 0 0)
(0 0 0)
(0 0 0)
(0 0 0)
(0 0 0)
(0 0 0)
(0 0 0)
(0 0 0)
(0 0 0)
(0 0 0)
(0 0 0)
(0 0 0)
(0 0 0)
(0 0 0)
(0 0 0)
(0 0 0)
(0 0 0)
(0 0 0)
(0 0 0)
(0 0 0)
(0 0 0)
(0 0 0)
(0 0 0)
(0 0 0)
(0 0 0)
(0 0 0)
(-0.0004812766918 -0.0006746344822 2.220446049e-15)
(-0.0008733458324 -0.001186817606 4.024558464e-15)
(-0.001297611149 -0.001707780392 5.981326545e-15)
(-0.007455571035 -0.01072297104 3.765043832e-14)
(-0.006368752144 -0.009463439639 3.216871214e-14)
(-0.01038645191 -0.01616774915 5.503930645e-14)
(-0.01175174165 -0.01770170389 6.225575611e-14)
(-0.0255606142 -0.04477454921 1.582622922e-13)
(-0.02369127158 -0.04290505643 1.467853616e-13)
(-0.027568059 -0.05280657842 1.808969641e-13)
(-0.02947236368 -0.05460560046 1.932898286e-13)
(-0.03611673714 -0.08131925756 2.885192085e-13)
(-0.03452964612 -0.08032824696 2.758487883e-13)
(-0.03494419493 -0.0877392006 3.013284067e-13)
(-0.03629968795 -0.08825302215 3.131384041e-13)
(-0.03113117286 -0.1004757283 3.55784846e-13)
(-0.03069323493 -0.1020507748 3.499145418e-13)
(-0.02784900121 -0.1041181374 3.566175133e-13)
(-0.02796633499 -0.1016347276 3.59448582e-13)
(-0.01743543553 -0.1020998392 0)
(-0.01756235209 -0.1054034654 0)
(-0.01404597729 -0.1055385552 0)
(-0.01391906073 -0.102234929 0)
(-0.01567728649 -0.1021673827 0)
(-0.003369859618 -0.1026402014 0)
(-0.003496776174 -0.1059438275 0)
(1.962163979e-05 -0.1060789182 0)
(0.0001465381965 -0.102775292 0)
(0.01062559655 -0.1022573107 3.564648576e-13)
(0.01038245835 -0.1038844082 3.509137425e-13)
(0.01347469624 -0.1008108651 3.40158457e-13)
(0.0138506977 -0.1000353908 3.483047184e-13)
(0.02051871296 -0.08395641989 2.91627833e-13)
(0.01963366293 -0.08286609062 2.790268017e-13)
(0.02021935991 -0.07431583941 2.501887586e-13)
(0.02125999229 -0.07579319118 2.632061236e-13)
(0.01823943121 -0.04668524957 1.62328484e-13)
(0.01695227597 -0.04471324271 1.507127756e-13)
(0.01443476904 -0.03477352816 1.173228181e-13)
(0.01570268283 -0.03670643908 1.277589146e-13)
(0.006205009409 -0.0115202918 4.024558464e-14)