/*--------------------------------*- C++ -*----------------------------------*\
| =========                 |                                                 |
| \\      /  F ield         | OpenFOAM: The Open Source CFD Toolbox           |
|  \\    /   O peration     | Version:  v1912                                 |
|   \\  /    A nd           | Website:  www.openfoam.com                      |
|    \\/     M anipulation  |                                                 |
\*---------------------------------------------------------------------------*/
FoamFile
{
    version     2.0;
    format      ascii;
    class       volScalarField;
    location    "1.61";
    object      nut;
}
// * * * * * * * * * * * * * * * * * * * * * * * * * * * * * * * * * * * * * //

dimensions      [0 2 -1 0 0 0 0];


internalField   nonuniform List<scalar> 
12556
(
1.155904867
1.155877375
1.15584541
1.15581586
1.156031092
1.156022055
1.156026357
1.156045981
1.156088396
1.156169939
1.156301741
1.156459445
1.15661526
1.156691943
1.156624181
1.156469888
1.156323327
1.156209536
1.156106581
1.156065789
1.155818851
1.155820668
1.155842511
1.155868502
1.155187837
1.155103678
1.155014904
1.154936
1.155125806
1.155112325
1.155153884
1.155349597
1.155555676
1.155942141
1.156564672
1.157370921
1.120902261
1.06435916
1.087532434
1.157631838
1.156835371
1.156175019
1.155628122
1.155348498
1.15498975
1.154966407
1.155013983
1.155089774
1.154447501
1.154303772
1.154148062
1.154026908
1.154220442
1.154236904
1.154356565
1.154701943
1.15523195
1.156194921
1.157782974
0.9547792344
0.8547209781
0.8260244388
0.8651414875
0.9715990644
1.158141788
1.156667336
1.155466082
1.154817901
1.154225985
1.154147126
1.154195602
1.154312184
1.15368107
1.153479207
1.153277733
1.153137258
1.153329669
1.15342221
1.153696223
1.154340272
1.155477789
1.139574041
0.8355507352
0.641011943
0.5682438168
0.5650814887
0.6134145606
0.7063423522
0.8625857732
1.12096734
1.155916546
1.15462968
1.153635314
1.153409494
1.153415961
1.153554035
1.152901653
1.152643531
1.152389464
1.152247989
1.152487196
1.152708191
1.15331067
1.154387312
1.156786418
0.8099800945
0.5439584311
0.3990318486
0.3332459835
0.3484627493
0.4079085874
0.4970922091
0.6294660171
0.849830691
1.157419305
1.154933322
1.153266332
1.152748471
1.152656568
1.152788619
1.152117078
1.151811109
1.151529632
1.151408522
1.151713437
1.152138076
1.153203279
1.155068584
0.9712335902
0.5877786311
0.3531767167
0.2185297212
0.1687996318
0.1945881501
0.2638826214
0.3544401307
0.4723745808
0.6559778345
0.9629599712
1.155844211
1.153118223
1.152171023
1.151915276
1.152009808
1.151327185
1.150975992
1.150679826
1.15061084
1.151033681
1.151744272
1.153464577
1.156460327
0.8003249818
0.4610221742
0.2464691157
0.109976867
0.06147561554
0.09651507088
0.1749333478
0.2649938433
0.372363721
0.5284777068
0.8124569217
1.157385726
1.153215557
1.151668036
1.151165755
1.151184576
1.150569826
1.150187352
1.149896408
1.149894204
1.150489818
1.151569364
1.154141959
1.158163938
0.7197294073
0.4212722356
0.2291038393
0.09287785666
0.05444578704
0.1325594329
0.2181687436
0.3170410267
0.4542296196
0.7105466
1.067162297
1.153559274
1.151275231
1.150433355
1.150342611
1.149855736
1.149445205
1.149173775
1.14930691
1.15010116
1.151639559
1.155176393
1.107268365
0.7027104158
0.4492898844
0.3020102126
0.2203226402
0.0651370436
0.1287950822
0.2049763327
0.294900305
0.4196257126
0.6573672177
0.9863666058
1.154153937
1.151010938
1.149762574
1.149530951
1.149226648
1.148801255
1.148569385
1.148875978
1.149815703
1.151958107
1.156476089
1.081294301
0.720304157
0.5074839518
0.4104748557
0.4319842612
0.09068006983
0.1452978471
0.2133512301
0.3000795114
0.4176890466
0.6369878227
0.9377188986
1.154971627
1.15096333
1.149252094
1.148854747
1.148672638
1.148238209
1.148069271
1.148583253
1.149699324
1.152504339
1.157961462
1.073483334
0.7507351595
0.5653147155
0.4991687684
0.5483499914
0.1235611727
0.1747565385
0.2397142532
0.3197027736
0.4304213753
0.6438689704
0.9167813866
1.155956037
1.151143393
1.1489752
1.14839948
1.148244436
1.14781161
1.147711937
1.14842421
1.149771274
1.153230472
1.159612379
1.082505362
0.7855273375
0.6083736507
0.5340689692
0.4791443084
0.1613190057
0.2162340912
0.281935633
0.3600415193
0.4697530777
0.6759472018
0.9253355738
1.157146971
1.151604138
1.148994192
1.148242608
1.147893982
1.147465077
1.147474066
1.148429024
1.149996838
1.154062124
1.161162633
1.110254867
0.8276485187
0.6436943407
0.5287696567
0.4265725049
0.06401279375
0.209443312
0.2774632893
0.3467582964
0.4248712557
0.5391950622
0.7297150915
0.9590304501
1.158402946
1.152277281
1.149290239
1.148385067
1.147681939
1.147262697
1.147371322
1.148530786
1.150468043
1.155262666
1.162905674
1.154689486
0.8911196355
0.6987498117
0.553261951
0.2800082588
0.1247041121
0.3117759156
0.3884778654
0.452126235
0.5220922727
0.6312300643
0.8060817643
1.009590867
1.159664162
1.1531412
1.149820915
1.148791821
1.147519884
1.147106589
1.147311913
1.148693508
1.150942643
1.156297278
1.164349063
1.168988571
0.9966930979
0.8110354078
0.6588734482
0.081829287
0.1742656837
0.4441234616
0.5998695607
0.6234260277
0.6708773889
0.7643741359
0.9210479221
1.095870234
1.160850073
1.154041124
1.150496237
1.149387917
1.147467337
1.147062858
1.147352044
1.148931428
1.151463127
1.157292544
1.165635369
1.169956555
1.158111753
1.013401345
0.8526699515
0.0537730654
0.1869875385
0.4486156764
0.6983339343
0.8945770533
0.878724281
0.939664535
1.0733919
1.168700995
1.161899643
1.154933964
1.151248257
1.150085941
1.14741158
1.147009002
1.147367827
1.149151016
1.151981454
1.158200464
1.166706747
1.170500837
1.158167664
1.099806739
0.8378560008
0.06317295194
0.1801932145
0.4412231118
0.6954146019
0.9070123441
1.04949498
1.126337601
1.163494781
1.169770673
1.162729541
1.155720629
1.151957721
1.150774393
1.147433471
1.147035622
1.147446386
1.149389698
1.152459076
1.158986163
1.167492287
1.170597335
1.156694877
1.09394665
0.8135735644
0.07353836685
0.1740118463
0.4351439065
0.6973498349
0.9132769947
1.054458882
1.12903396
1.164676466
1.17042034
1.163319853
1.156369188
1.152624983
1.151441138
1.147405953
1.14700754
1.147456112
1.14955719
1.15287352
1.159632062
1.168003631
1.170278645
1.15377412
1.081839539
0.7618415713
0.06800424825
0.180376533
0.4396323937
0.7062687994
0.9205564279
1.057923173
1.130659627
1.165247859
1.170675978
1.163642648
1.156816741
1.153134835
1.15196868
1.147439528
1.147048086
1.147523768
1.149732028
1.153214047
1.160135739
1.168257152
1.169576232
1.150120403
1.06511736
0.6816030172
0.05311593138
0.1956668584
0.4506744271
0.7146100758
0.9262103313
1.060359632
1.131551646
1.165357037
1.170615531
1.163803733
1.157173267
1.153579042
1.152432446
1.147389937
1.147005353
1.147504953
1.149825541
1.153485919
1.160504588
1.168279892
1.168548958
1.145762177
1.04552445
0.6046090443
0.04482087649
0.2093950948
0.4604660422
0.7204042535
0.9303617954
1.062047853
1.131940014
1.165126413
1.170317626
1.163760065
1.157343912
1.153850395
1.152727191
1.147400912
1.147035395
1.147561059
1.149952742
1.153700225
1.160757311
1.168105904
1.167243149
1.14070672
1.021867819
0.5421994526
0.04165760118
0.2212912387
0.4691310844
0.7247861335
0.9329812131
1.063100759
1.131963733
1.164654234
1.169850207
1.16364565
1.157478023
1.154084922
1.152977215
1.147305138
1.146961031
1.147519589
1.150005695
1.15387639
1.160919872
1.16777103
1.165689074
1.134847638
0.9917013699
0.4920035406
0.04169482231
0.231842866
0.4768690137
0.7283819275
0.9342981606
1.063532793
1.131689684
1.164007812
1.169266258
1.163386023
1.157450088
1.15415241
1.153058715
1.147282192
1.146972368
1.147572578
1.150121537
1.1540254
1.161015169
1.167303071
1.163885409
1.127857765
0.9555578458
0.4506672861
0.04273007883
0.2413777416
0.4838478024
0.7314527048
0.9347357685
1.06338235
1.131147999
1.163229052
1.168603162
1.163126659
1.15744047
1.154228728
1.153138896
1.147135418
1.146860628
1.147510411
1.150155195
1.154158201
1.161056363
1.166714969
1.161797297
1.119193121
0.9174005556
0.4160394153
0.04419573449
0.2501386933
0.4902209874
0.7341297238
0.9346518266
1.062755579
1.130368148
1.162347257
1.167886875
1.162747371
1.157277314
1.154142817
1.153055755
1.147081399
1.146853211
1.147562295
1.150272151
1.154273162
1.161048027
1.166006523
1.159353099
1.10837945
0.8803737374
0.3868716437
0.04629497817
0.258296054
0.4960959648
0.7365018018
0.934267323
1.061782731
1.129391088
1.161387286
1.167135358
1.162418025
1.157180696
1.154114288
1.153021704
1.146891748
1.146707409
1.147478967
1.150286214
1.154374847
1.160990397
1.16517011
1.156462935
1.095354519
0.8457022322
0.3621124937
0.04913977027
0.2659547111
0.5015675615
0.7386326912
0.9337076571
1.060576549
1.128262489
1.160371622
1.166362132
1.161969198
1.156925096
1.153920668
1.152824085
1.146815009
1.146685633
1.147530635
1.150405459
1.154457079
1.160882727
1.164192761
1.153033989
1.080474196
0.8135176262
0.3407525771
0.05276506363
0.273197617
0.5067112473
0.740575571
0.9330483823
1.059221368
1.127024171
1.159319223
1.165577031
1.161611189
1.156778601
1.153828712
1.152721906
1.146598897
1.146517442
1.147431378
1.150397806
1.154525886
1.160723701
1.163056104
1.14896143
1.064268441
0.7836848789
0.3221399009
0.0571827079
0.2800895953
0.511596741
0.7423763722
0.9323387282
1.057777909
1.125711081
1.158245189
1.164787091
1.161121752
1.156462647
1.153564628
1.152451013
1.1465038
1.146483228
1.147481645
1.150519137
1.154573546
1.160511296
1.161734843
1.14418635
1.047229284
0.7560118635
0.3057928098
0.06233495056
0.2866878174
0.5162893264
0.7440740568
0.9316128429
1.056289748
1.124351115
1.157161187
1.163998191
1.160755874
1.156285132
1.153432529
1.15230666
1.146285117
1.146312822
1.147380838
1.150494011
1.154607694
1.160241325
1.160199671
1.138688005
1.029739413
0.7303097247
0.291375123
0.06824349467
0.2930447993
0.5208201367
0.7457025428
0.9308968099
1.054789195
1.122966843
1.156076443
1.163213288
1.160251633
1.155941231
1.15313343
1.152000019
1.146163443
1.146257325
1.147419057
1.150610078
1.154617947
1.159908295
1.15841956
1.132481806
1.012071314
0.706383777
0.2785746044
0.07486346383
0.2992046975
0.5252221481
0.7472921323
0.9302126018
1.053301573
1.121576872
1.154998335
1.16243811
1.159874864
1.155727539
1.152960481
1.151814481
1.145978631
1.146117732
1.147344713
1.150584572
1.154612615
1.159504221
1.156367417
1.125612691
0.9944148492
0.6840611292
0.2671912497
0.08202801333
0.3052088529
0.5295235575
0.7488708406
0.9295797894
1.051847279
1.120195951
1.153932807
1.161670608
1.159402438
1.155405875
1.152676339
1.151523839
1.145804743
1.146015902
1.147344952
1.150668462
1.154581003
1.159022824
1.15402267
1.118142955
0.9768899209
0.663204485
0.2570416976
0.08953810271
0.3110946963
0.5337554431
0.7504639551
0.9290162733
1.050444059
1.118838856
1.152887681
1.160922725
1.158962455
1.155114714
1.152427772
1.151263608
1.145695674
1.145946074
1.147330575
1.150680274
1.154533109
1.15846109
1.15139337
1.110139455
0.9595817758
0.6436920586
0.2479307012
0.0972107328
0.3168869749
0.5379412555
0.7520920409
0.9285379085
1.049107618
1.117517523
1.151881911
1.160195554
1.158634805
1.154897414
1.152236665
1.151067963
1.145492725
1.145834457
1.147345133
1.150771932
1.15447832
1.157831773
1.148586628
1.101710223
0.9426713956
0.6255401007
0.2394635286
0.1048801622
0.3225782275
0.5420659413
0.7537488881
0.9281480327
1.047846428
1.116238134
1.150984936
1.159561731
1.158054953
1.154501213
1.1518944
1.150714434
0.1944353478
0.05794902056
0.04717425073
0.4119148658
0.08288081429
0.06085910782
0.5567395174
0.1165893346
0.0868580037
0.4867458964
0.1479066816
0.1215855135
0.4315159264
0.0476358366
0.05996476938
0.1842264264
0.1518936989
0.3280006068
0.09376181405
0.04898590796
0.1185793069
0.2516596153
0.1874744346
0.08999823524
0.0619691488
0.04878566753
0.0915061672
0.02955949298
0.02022701568
0.06266564526
0.1094645234
0.1129791855
0.383577025
0.3965351575
0.2267135513
0.0357253866
0.05013665087
0.08725665057
0.1246255838
0.1116718481
0.481377265
0.5518878489
0.4164886856
0.4887366069
0.2137732817
0.2451178819
0.06106753554
0.04416521242
0.1193467126
0.152720999
0.1306552405
0.5297913815
0.5828863019
0.5675604452
0.5227727305
0.1338276089
0.1770643327
0.1098569251
0.08197056916
0.5287830974
0.5120977171
0.57708751
0.4660557914
0.07646764019
0.1024741394
0.02029812912
0.1391034602
0.134143966
0.5423391751
0.4058652658
0.5024217845
0.3906961789
0.02906352894
0.04838850403
0.265382165
0.1277622883
0.09590303116
0.07348054771
0.1832209943
0.03474835364
0.06638124618
0.04881496257
0.03079698423
0.0500900576
0.03266330757
0.04717677046
0.2495165625
0.2821018307
0.3349882417
0.2173855449
0.1979648741
0.2160324353
0.221193283
0.04374619535
0.03553863617
0.07238126743
0.05175909696
0.05834278934
0.04843276108
0.05200577946
0.07089345616
0.1802197938
0.2092394985
0.5114494385
0.1612034068
0.1337544779
0.1958303559
0.163500772
0.07824752725
0.06249865429
0.1038490693
0.08392766337
0.1064605895
0.05888441386
0.08101673642
0.09939182349
0.1039694468
0.1320287559
0.5141923816
0.1050439168
0.07846392659
0.1321984691
0.1064941495
0.1331606525
0.1141470878
0.04936167063
0.07465220211
0.4639092636
0.01428618856
0.05186623669
0.03083545729
0.07735953782
0.05343903002
0.01277571567
0.1454992986
0.1407943131
0.02300451764
0.004682834229
0.02874308212
0.3852991071
0.07645859279
0.01807386509
0.01038823044
0.03048835335
0.01841172813
0.07330626707
0.2774432921
0.2031508027
0.1084103861
0.1183136331
0.07327663933
0.04101729808
0.01811344404
0.008673673056
0.3071506378
0.2864664463
0.2021984386
0.009214994493
0.1541950184
0.1896722711
0.1611691313
0.01040722327
0.06634550057
0.05784563601
0.09051840571
0.1620542679
0.1493179254
0.1801746483
0.08165350879
0.1333078534
0.04198125945
0.01375113803
0.02400840935
0.02318295706
0.03096095235
0.04861356063
0.05608867248
0.04046793291
0.1364300029
0.1270758952
0.1352566652
0.1100743993
0.1258199069
0.1331600698
0.03273436034
0.01184164718
0.05807907007
0.02441778125
0.0419960366
0.03381163381
0.02047207849
0.03188560007
0.02327234225
0.01848962372
0.02366350223
0.02170320258
0.01036449334
0.01724821209
0.02238898627
0.04518545767
0.04589768278
0.05275978234
0.05157203552
0.020389047
0.01022266549
0.09748834046
0.01720758118
0.03159751933
0.009485836095
0.01457687327
0.09339937946
0.09109376476
0.2635918713
0.2495413762
0.08373864189
0.0708180465
0.01038199015
0.0434149724
0.1890084691
0.1754763473
0.2077255893
0.194488986
0.04377752311
0.05174184717
0.04232705655
0.1097929874
0.06815628454
0.06276553149
0.04010466338
0.06759141788
0.1243434787
0.04234410755
0.02507408398
0.01574444409
0.05645628122
0.02796505238
0.0469297846
0.02668738419
0.0652454601
0.03907909688
0.03845656304
0.2128129135
0.03062523874
0.2119588689
0.2410302574
0.03457052809
0.03901454157
0.03106843374
0.03403772719
0.2360655284
0.04194935724
0.04163056553
0.05557784874
0.06944763484
0.06476317364
0.07594932959
0.07109718613
0.0558948999
0.05861992245
0.05709630508
0.05198415616
0.06310222633
0.05850988124
0.06004137339
0.1476859447
0.1459132625
0.1808556619
0.1788391067
0.07407677123
0.009293112625
0.0726581316
0.09510495861
0.09320345611
0.1187099279
0.1169736623
0.03372573083
0.04980836734
0.1264720335
0.03768010981
0.02193760872
0.06545113854
0.2263468621
0.2125516835
0.2448155561
0.2309342966
0.06678513368
0.02981062492
0.04734891602
0.04634137942
0.07004816858
0.06917495364
0.006896563829
0.0393018582
0.1015489652
0.08827339639
0.1701919814
0.1600594894
0.02288312895
0.01159896077
0.02374457052
0.01552690379
0.02901712288
0.01158556338
0.01462817307
0.01183113074
0.029047879
0.06217914349
0.01217414737
0.02001270174
0.003492469475
0.02120232294
0.01581458571
0.6178217403
0.3705294306
0.3908174544
0.2477746548
0.008275735615
0.005315039704
0.1685326135
0.3721896215
0.2838310743
0.006117669536
0.01390682475
0.01086200636
0.1187475815
0.1062912767
0.04233297536
0.2019082152
0.1685464306
0.09402322222
0.01004759114
0.01717357703
0.01367092164
0.008954537333
0.01332063421
0.009371032338
0.03851264073
0.01667509352
0.01559071412
0.04907396683
0.05705227201
0.01699686166
0.02322169371
0.01091595731
0.01094807963
0.04611680164
0.1491402467
0.3370135952
0.323140241
0.3555783836
0.3416490406
0.1526470212
0.2819311974
0.2680455086
0.09243804694
0.03199829439
0.09413264137
0.08871618385
0.01111764564
0.01630593944
0.104058871
0.04534375388
0.01894203326
0.01681761784
0.03806779846
0.04400203901
0.03977913081
0.05038296223
0.04548961345
0.03938109235
0.04283069362
0.01128590923
0.01097200478
0.03709004612
0.1925389575
0.3740969601
0.3601746362
0.05921425206
0.06124573199
0.1389301088
0.02463525156
0.02691391637
0.0664863574
0.092948552
0.1040289184
0.09611517543
0.06569471378
0.08371783781
0.07788129118
0.09323714767
0.086018607
0.06690861188
0.1180617687
0.3002440953
0.2864672722
0.3185487908
0.3048356834
0.1199741429
0.1008612349
0.03590029229
0.03663329783
0.02075696701
0.02156869981
0.08300869588
0.1266356548
0.05493023447
0.05879823347
0.03694414027
0.03763505387
0.1108543733
0.1306917062
0.052369048
0.07038105705
0.007359630054
0.02020796636
0.04953043083
0.03766655569
0.07417840557
0.0201214749
0.02061160582
0.0196879921
0.06271237434
0.01083319924
0.004377450267
0.1217058984
0.103175886
0.08685547269
0.08244521771
0.02834170636
0.0216926582
0.03491380321
0.08598850162
0.01783480282
0.01138465313
0.02122700903
0.02830458147
0.002853656622
0.02999746953
0.0194307361
0.01237298502
0.006369087603
0.01210994692
0.009310068995
0.009162300416
0.03106495866
0.02377476005
0.006774290141
0.03863993601
0.04044166843
0.01612785501
0.01131610247
0.007523911182
0.01183596515
0.01755227494
0.01091761228
0.01450527632
0.04749514478
0.01011395855
0.009594745184
0.01103805807
0.01321352743
0.03908722342
0.0111677019
0.01102051968
0.01341543139
0.01106898598
0.01158105294
0.02081665173
0.01476299269
0.03018569973
0.02354306136
0.01140351545
0.01829275336
0.02196373291
0.01871519513
0.03055075074
0.02339447291
0.01832931084
0.01647782054
0.01274155259
0.01429235352
0.01117645214
0.04070677063
0.04829826764
0.01530334546
0.01439271307
0.01589471399
0.01645831622
0.05567746428
0.01002192343
0.01021180701
0.01323932745
0.01021130746
0.01028806495
0.04740205425
0.01054371328
0.01556750327
0.01391558849
0.0125357472
0.02276753515
0.05915788348
0.05377841177
0.01149726331
0.04428136199
0.03795579348
0.05181777522
0.046515518
0.01204427907
0.01192793071
0.04087728544
0.03388444655
0.1028130166
0.09607851663
0.03566999151
0.04595063195
0.1102946796
0.1046632162
0.04609743336
0.0451202036
0.07082732905
0.08692638007
0.1086725668
0.06507221229
0.08135015706
0.07191748267
0.06168221124
0.1492448002
0.1359026335
0.1195518805
0.1532458916
0.0615935874
0.04115102226
0.04771358138
0.05957134097
0.03540685403
0.03984986669
0.02638423484
0.02502473325
0.04395919407
0.01809559657
0.01824164573
0.01438845913
0.02626775006
0.0309881496
0.01899653899
0.02649753702
0.03476685666
0.0360253309
0.02766911673
0.02874507977
0.09767768529
0.0848600086
0.1048219118
0.1003958685
0.02990343924
0.0757311712
0.07330318214
0.08121844298
0.07661028774
0.03619820483
0.1239412282
0.1186540221
0.1326359599
0.1258385723
0.03683243185
0.03225386275
0.1106973938
0.1063669551
0.1169795838
0.1122176917
0.03262033168
0.0117950585
0.0114196392
0.04257914286
0.03863313981
0.01151580205
0.01193942498
0.04254635322
0.04174923809
0.04478030101
0.04282039692
0.04029851135
0.03922593529
0.04148753698
0.04057360445
0.06963945595
0.06753228298
0.072551719
0.07037864723
0.061753424
0.04755195096
0.06664909365
0.06443220741
0.0277462527
0.0234913935
0.0361205481
0.03008294619
0.007512053937
0.01495517295
0.014002143
0.02193693569
0.0154518555
0.03492617121
0.03554010847
0.09943470665
0.02068559768
0.02048566853
0.021329979
0.02087091928
0.01984931694
0.08543425887
0.02216772302
0.03284542783
0.03981677282
0.05301136139
0.1247110627
0.03641943154
0.02342427392
0.03908638677
0.0361108843
0.02209260847
0.02156469545
0.02300016275
0.0223132656
0.1123375111
0.03787230418
0.03877925733
0.006540918426
0.03095626938
0.009500828686
0.01003287688
0.009478562958
0.02873994846
0.00762171531
0.0227145494
0.01082334422
0.0110561743
0.04887310311
0.04244522553
0.01951608812
0.02001200351
0.07320611907
0.06491939957
0.0186319005
0.01944849397
0.01031502362
0.02725968865
0.07975575275
0.07121097824
0.01260700535
0.01210942492
0.01703793206
0.01171452127
0.0126432912
0.018911521
0.02988340127
0.008096565648
0.01286952524
0.01152639691
0.01210138638
0.02024509854
0.05604023727
0.1188684692
0.1535726946
0.01002475734
0.009983022544
0.1911996193
0.2426233209
0.2010827212
0.006678380319
0.04114855753
0.01446757437
0.02030314041
0.1396401332
0.1455225892
0.1629133468
0.004978337636
0.007871499909
0.005817422279
0.004953816897
0.006023661101
0.004705100003
0.06003266859
0.03763745502
0.0235567619
0.02644287244
0.02347263856
0.02744434857
0.2273521881
0.4108453451
0.3971342633
0.4291207501
0.4153568297
0.2317871766
0.05006766832
0.04335208914
0.01331379818
0.07469273361
0.08760858044
0.1368919937
0.1178049971
0.1120863453
0.04644184033
0.02907264275
0.03478433224
0.03340916901
0.3925440568
0.3786998677
0.1965335636
0.1551022209
0.06719364451
0.07117872112
0.07438606997
0.08566564385
0.1704508946
0.05697907718
0.1263691042
0.1197908183
0.01080252863
0.01096985652
0.0158530869
0.0192483686
0.01953654439
0.03166291365
0.01166233049
0.01059426681
0.0105245072
0.03031993567
0.06026137918
0.05198028136
0.01802892812
0.03027251364
0.01882133593
0.01898693511
0.01842579164
0.01556245359
0.009480511035
0.0119503683
0.01112752284
0.01037881168
0.02599319209
0.03237015129
0.06597503474
0.04065378725
0.03845166048
0.03514238995
0.02586804149
0.04976679635
0.01688543898
0.02354250449
0.01125565494
0.007960602517
0.008088412147
0.01141150219
0.01135990379
0.02443101858
0.01541537187
0.01048966193
0.02163966445
0.0201303987
0.018414907
0.01764176012
0.02140267378
0.01864738675
0.01098687447
0.01175383486
0.006733600317
0.009287617643
0.01119596066
0.06661524617
0.06092785083
0.02476268423
0.009263121387
0.01513804148
0.01361677627
0.0109084945
0.01549360521
0.01358800584
0.04944519977
0.03772941724
0.04329107631
0.06915460713
0.09937914921
0.09767601394
0.04175341231
0.06900214743
0.06502619069
0.09652496832
0.09431320538
0.06592489881
0.0360247353
0.04320832799
0.03744739334
0.02856191146
0.02934234069
0.02407659125
0.04856192638
0.04700557591
0.05395405117
0.02299073978
0.03338775366
0.03171787271
0.05245447312
0.05205419104
0.03036212132
0.02797093103
0.0275464291
0.03066715136
0.0299441999
0.03514694988
0.05914231043
0.05845913721
0.06322506834
0.06236505414
0.03820614032
0.03141719078
0.05379182393
0.05323369984
0.05775898088
0.05707137123
0.03354676448
0.06443591899
0.06644788962
0.1531961301
0.1405915759
0.06185489209
0.06379932969
0.0930384998
0.09648971607
0.1872186335
0.0259249905
0.02578433939
0.02730275966
0.02708214728
0.01972036867
0.02550786544
0.02540735056
0.1725614732
0.08802738139
0.09175325192
0.009394822464
0.009440724946
0.01316687194
0.01252100462
0.009314680016
0.009348932704
0.008139944127
0.06787833891
0.02800676922
0.03445326202
0.1349119559
0.1285630888
0.06019742756
0.06979282867
0.1425515544
0.1368095195
0.03102163856
0.0310893521
0.04770995715
0.04601201644
0.03062425694
0.03058989161
0.01037647847
0.02173190963
0.03432326166
0.03399605679
0.008476101811
0.01384168825
0.0209706253
0.01273965923
0.01204511201
0.01791958949
0.01816374478
0.02946830031
0.01165536479
0.008463025633
0.01157113104
0.01157291429
0.02752085332
0.01742939175
0.01800986577
0.01481173215
0.03840372435
0.03253075719
0.01017486429
0.01020063168
0.01074261489
0.01120373375
0.01747654132
0.006646165572
0.004295821487
0.008020668377
0.01232907685
0.009807486259
0.01040854765
0.009765572535
0.009991807416
0.01119617577
0.01055686522
0.006995186544
0.005418117091
0.01425867337
0.01469592709
0.01376935929
0.01390891453
0.01617915994
0.0246885282
0.02504888964
0.02419987257
0.02451877737
0.01602538435
0.01078547334
0.01878330015
0.01875124712
0.01939797997
0.01891924047
0.01059567832
0.0179812096
0.0277052951
0.03075497703
0.02535831791
0.02618271116
0.01743175472
0.01124545285
0.01876171406
0.01875197951
0.01870857705
0.01874952017
0.01108423953
0.01325136768
0.01353769384
0.01274452747
0.01341764658
0.03606152944
0.05518970842
0.05471323872
0.02100581576
0.03466542609
0.03442371489
0.03594977752
0.03501285281
0.02121432379
0.01082357734
0.01059277781
0.01069041014
0.01087444448
0.01954833313
0.01935724828
0.01996910389
0.01975547575
0.01522830475
0.0336825652
0.02012229849
0.02102634905
0.02030286085
0.03395982558
0.03374432662
0.03427709005
0.03410036988
0.02043280495
0.02084957004
0.02026510254
0.03043239347
0.02179597921
0.01565156347
0.007156174804
0.01052670758
0.01096632348
0.007101797391
0.04065137192
0.02807361221
0.003025980196
0.02835325822
0.04339905897
0.04302110925
0.01780150911
0.01137060091
0.008341502798
0.003931240654
0.01239572648
0.01250303846
0.01859458734
0.01875216933
0.03019570546
0.0188494763
0.01017303197
0.009682188333
0.01535783614
0.004142073138
0.009260719858
0.007221252687
0.005537430352
0.006810137205
0.009302637045
0.007021018304
0.01019142656
0.01073584681
0.010310051
0.04040799673
0.03085980334
0.008570994839
0.01074370943
0.01201014918
0.01898579407
0.02143144118
0.01274467368
0.01567076407
0.01511293271
0.009826547835
0.006572876188
0.009844473358
0.01093464327
0.007568375557
0.01098500617
0.01116832184
0.01220384373
0.01136381117
0.01113572514
0.01134064888
0.01120646814
0.01158265097
0.0115383325
0.01137522075
0.01140424066
0.01160264538
0.01264016996
0.01207083138
0.02272178244
0.02175201517
0.02259516009
0.02744609376
0.02816230088
0.02204880257
0.0205278757
0.0219334138
0.0136123967
0.02179729369
0.02315383864
0.01577845535
0.02187240561
0.01446863497
0.01498604032
0.02371297404
0.02402231438
0.02316749958
0.02358436594
0.01478021684
0.01606782602
0.02800948856
0.02753287248
0.01011881296
0.01016679231
0.01150427385
0.009362472806
0.009645280141
0.009900222379
0.01019351289
0.009819831228
0.01259327966
0.02318353276
0.02075247871
0.02678431634
0.02541116026
0.01461260598
0.009281566948
0.0101861883
0.01636417065
0.00657684307
0.009377103998
0.009355903779
0.01203343355
0.009303984685
0.009518917797
0.01988185362
0.01767502968
0.01023107102
0.04748580882
0.04394216829
0.08611962402
0.07658581235
0.04381193774
0.06562537246
0.09327566864
0.0892289997
0.03662912264
0.03350149882
0.03206238434
0.02364726595
0.03052551853
0.04617881518
0.0467720534
0.04028519718
0.02630529443
0.03746060681
0.03801656771
0.03411263189
0.03525720884
0.02479957548
0.01720260592
0.01846577346
0.02797822055
0.02003429605
0.01906954643
0.02125914859
0.02022294154
0.02840329692
0.0194777881
0.02018707447
0.01611131233
0.02085428398
0.047741033
0.04795005819
0.03023360986
0.02986895285
0.05098381702
0.05097554955
0.02868270562
0.02827592596
0.02947874043
0.02904210209
0.06040641578
0.05974610653
0.03557523606
0.03750014803
0.06169988655
0.0610573221
0.0551083281
0.05450745709
0.03188550321
0.03303493806
0.05637209577
0.05573603722
0.01165056632
0.01880495633
0.01882408064
0.01879491913
0.01881837424
0.01159720202
0.01199701454
0.01744608715
0.01514317512
0.01872475635
0.01839089117
0.01198274212
0.04226750358
0.02463582645
0.02490566791
0.02422041056
0.02442259364
0.04201454727
0.04364216832
0.02583619048
0.02630770577
0.02516714595
0.0254762432
0.04315022738
0.03990738259
0.02301100463
0.02325169421
0.02264684033
0.02287737074
0.03967357151
0.0411998368
0.0238331647
0.02402053795
0.0234127715
0.0236479042
0.04092241898
0.02636686539
0.02618543514
0.06894576002
0.0456240267
0.04595793924
0.04489323815
0.04518215051
0.06817195014
0.0268175259
0.02661247311
0.02428403855
0.02553787937
0.05960604991
0.04105472018
0.04073975734
0.02719202971
0.02858688926
0.05300137031
0.06614661098
0.04416275698
0.04436670538
0.0434163103
0.04336251144
0.06483143602
0.02507503302
0.02512522634
0.009348193063
0.009597128275
0.00917202876
0.01192051604
0.01049039574
0.01459287044
0.009674252076
0.009602458143
0.009679480391
0.009673530988
0.01441223059
0.01963309176
0.01084096429
0.01246421108
0.009787303097
0.009535417667
0.01699722681
0.03485447734
0.0525829701
0.05227257033
0.05400522096
0.0536412196
0.03544122094
0.02064493907
0.02040981128
0.0212113615
0.02093952457
0.02097989324
0.01653531135
0.02327124889
0.04288011932
0.03823778755
0.05009073245
0.04831234647
0.0328994214
0.02545254762
0.01770099637
0.02276837084
0.02417643753
0.03840018589
0.02230150269
0.02258669082
0.02164226713
0.02235800442
0.03846977062
0.02193202067
0.02170737501
0.02274226629
0.02250078067
0.009722914165
0.01208343994
0.01155770558
0.01554935702
0.01321910897
0.009686067138
0.009386193359
0.009595593302
0.01091164039
0.01017950893
0.00651615766
0.01102919238
0.01098311224
0.01096071612
0.01251871153
0.01159932186
0.01090274344
0.0189163627
0.01887138134
0.01915954126
0.01909788371
0.02900893872
0.02897465769
0.0440471589
0.01812003608
0.01913224713
0.018645757
0.01870875164
0.01973354968
0.03318175949
0.03283326323
0.03359453457
0.03332132125
0.01981518022
0.0191730626
0.03215039604
0.03037024536
0.03270782812
0.03214697213
0.01916366593
0.01054133315
0.04141899801
0.04081832751
0.02706396087
0.01270384731
0.01058132022
0.01061655542
0.007921143256
0.01093421395
0.01222592211
0.01761878086
0.01212929071
0.01247024154
0.01234351265
0.02959099078
0.01827334383
0.01847855298
0.01133898638
0.01167747684
0.01159190846
0.01197320805
0.01204723728
0.008463136886
0.008452087435
0.01197595964
0.01167971608
0.01193332104
0.0147997902
0.01826734614
0.02757991884
1.154841844
1.155137794
1.155492189
1.155270671
1.155822268
1.155828397
1.156052656
1.15695149
1.156392873
1.157337159
1.079691831
1.157161721
1.038914727
0.9632471618
1.132847811
0.948270807
0.8873620311
1.066985024
0.8906142439
0.9135625668
1.078774845
0.9264790742
1.007863061
1.157866298
1.037515511
1.158062543
1.157016957
1.157720429
1.156724314
1.156320849
1.154396299
1.15504223
1.155065687
1.155340568
1.156621013
1.155904925
1.157178306
0.9864661212
1.157358665