/*--------------------------------*- C++ -*----------------------------------*\
| =========                 |                                                 |
| \\      /  F ield         | OpenFOAM: The Open Source CFD Toolbox           |
|  \\    /   O peration     | Version:  v1912                                 |
|   \\  /    A nd           | Website:  www.openfoam.com                      |
|    \\/     M anipulation  |                                                 |
\*---------------------------------------------------------------------------*/
FoamFile
{
    version     2.0;
    format      ascii;
    class       volVectorField;
    location    "1.86";
    object      U;
}
// * * * * * * * * * * * * * * * * * * * * * * * * * * * * * * * * * * * * * //

dimensions      [0 1 -1 0 0 0 0];


internalField   nonuniform List<vector> 
12556
(
(99.99778359 0.005275131402 -4.484305754e-21)
(99.99727762 0.01724067327 6.776905622e-25)
(99.99576648 0.03475300753 -4.468887657e-21)
(99.99326046 0.06135052805 -4.429392199e-21)
(99.99988715 0.04684375465 4.255249757e-21)
(99.99682436 0.07430089571 0)
(99.99527774 0.1157679798 0)
(99.99495987 0.171041591 -7.235649462e-21)
(99.99385792 0.2409941854 8.304824847e-22)
(99.99344179 0.3209135992 -5.191053002e-21)
(99.99414172 0.3985535039 7.828216408e-22)
(99.99575312 0.4548764756 0)
(100.0008083 0.4723394261 0)
(100.0052779 0.4449642951 1.689594935e-21)
(100.0059221 0.3841930674 -2.143518315e-21)
(100.0064167 0.3084952059 1.071068855e-21)
(100.00577 0.2338526013 0)
(100.0049235 0.1696261954 1.596053765e-21)
(100.0044036 0.1171680701 6.522974719e-21)
(100.0023521 0.08020698354 -1.788295739e-21)
(100.0087471 0.08888980432 -1.541187093e-20)
(100.0057979 0.05371119394 0)
(100.004105 0.02806155426 -1.918614083e-21)
(100.0038337 0.008743376794 -1.349134213e-20)
(99.98029361 0.01426483924 1.798922688e-20)
(99.97412248 0.04713617727 4.486137711e-21)
(99.96007535 0.09564071545 3.128307341e-20)
(99.93595182 0.1697564557 -1.339653903e-20)
(99.94225688 0.2220599619 4.29074582e-21)
(99.90625959 0.3557500764 -6.481339693e-23)
(99.86163298 0.5548395179 0)
(99.84011874 0.726082236 -7.37305832e-21)
(99.79799434 1.03545332 -6.704013172e-21)
(99.77519748 1.401216495 -1.128233378e-20)
(99.79167455 1.766304488 -4.454336044e-21)
(99.85627628 2.043960134 -7.457604171e-21)
(99.95904455 2.146761739 -4.07041788e-22)
(100.0662659 2.04127717 8.533182581e-22)
(100.1386045 1.773068805 -6.915625766e-22)
(100.1653879 1.426671086 5.516758811e-21)
(100.1566887 1.079893374 -1.024092139e-20)
(100.1280303 0.7848304914 0)
(100.1272218 0.571180157 -2.738745335e-20)
(100.0877278 0.3795383322 5.243219147e-20)
(100.0822137 0.2518167795 1.491995216e-20)
(100.0554935 0.1516649686 3.052503443e-20)
(100.0400137 0.07949980911 -3.061551489e-20)
(100.034051 0.02480819609 1.5410222e-20)
(99.94683216 0.01911361426 -1.794915498e-20)
(99.9293121 0.06420268734 -3.607922881e-20)
(99.89108793 0.1324859521 -8.065944625e-20)
(99.8270471 0.240128936 1.072503849e-19)
(99.79994958 0.3529205084 -8.855891968e-21)
(99.69229426 0.5807552237 -8.537916733e-21)
(99.55352859 0.9248044893 -1.478275177e-20)
(99.48596027 1.286799091 0)
(99.3500005 1.885207419 2.787326821e-20)
(99.28026931 2.606714517 1.198642459e-20)
(99.34646539 3.351366416 3.324152954e-19)
(99.58762313 3.961174306 1.933438367e-19)
(99.98424084 4.221383257 0)
(100.3820852 4.01431879 -5.973144807e-20)
(100.6188215 3.420458192 0)
(100.6775886 2.69540469 -4.247871886e-21)
(100.6207292 2.007633148 -1.093786648e-20)
(100.5046104 1.423830709 -2.484833876e-20)
(100.418351 0.9647000712 -1.64516432e-19)
(100.2961731 0.6323179406 -3.607611983e-20)
(100.2256792 0.3759473841 -1.521512108e-20)
(100.1550354 0.2242238136 3.453351851e-20)
(100.1124509 0.1173942533 -3.869775119e-21)
(100.093855 0.03646310161 0)
(99.9062235 0.0173508458 -9.066828101e-21)
(99.87253264 0.06074502652 6.342339209e-20)
(99.8003479 0.1329760811 -1.815149366e-20)
(99.68227613 0.2504640476 0)
(99.59271141 0.4102387119 0)
(99.38260875 0.7050851029 -6.948179444e-20)
(99.0961879 1.167895392 -1.387178537e-19)
(98.88689812 1.71283371 3.235298162e-20)
(98.57085318 2.587640785 3.138960948e-20)
(98.37211814 3.68085996 4.79685641e-19)
(98.42815854 4.925667639 0)
(98.91655798 6.0987382 -5.180250148e-19)
(99.88262473 6.721452595 0)
(100.9231075 6.383301221 -7.799886639e-20)
(101.5095703 5.264879844 -2.97647629e-20)
(101.5740834 3.941165819 -2.431918349e-19)
(101.3774985 2.809269237 1.887420189e-19)
(101.1077681 1.941938679 0)
(100.858143 1.250111374 5.91123561e-20)
(100.6062909 0.7997577868 -4.527258849e-20)
(100.4239605 0.4368672198 -3.883011974e-20)
(100.292553 0.2572427835 1.959840959e-20)
(100.2111321 0.1323232412 -3.926277879e-21)
(100.1739626 0.04065213185 0)
(99.87451525 0.007395540047 0)
(99.82198636 0.0314029667 0)
(99.71031411 0.08794353606 9.211718849e-21)
(99.5269751 0.1892443337 1.386785894e-20)
(99.36085306 0.3742053429 2.291073181e-20)
(99.01306378 0.6930110314 0)
(98.53236746 1.201046601 0)
(98.10041285 1.88358736 0)
(97.50361159 2.965248686 -7.446308344e-21)
(96.99816404 4.428355176 -8.681296515e-19)
(96.81124364 6.349349757 9.105889989e-19)
(97.46082288 8.582133944 0)
(99.46455904 10.09836094 9.906347605e-20)
(101.8764742 9.550439167 0)
(103.0978886 7.433488975 1.221169651e-18)
(103.0559349 5.136546344 -4.431614225e-20)
(102.4911752 3.406652964 -5.485155194e-21)
(101.9151538 2.247110301 -3.575571946e-22)
(101.415288 1.371791648 -9.612549311e-20)
(100.9870757 0.8503972309 7.965424348e-21)
(100.649833 0.416432125 0)
(100.4434138 0.2386131847 3.985219092e-21)
(100.3152088 0.1176106055 -2.993431708e-21)
(100.2556297 0.03532814678 -9.920138047e-22)
(99.86952689 -0.01126522995 0)
(99.79764341 -0.02572485941 0)
(99.64669629 -0.008764140532 -1.842505929e-20)
(99.39452357 0.05171393416 3.767801631e-20)
(99.14122786 0.2285440464 0)
(98.64077377 0.5113245795 0)
(97.93508394 0.9810332804 2.949124997e-20)
(97.24027074 1.694719846 -1.600180834e-19)
(96.24654102 2.808559571 0)
(95.16759843 4.480356128 1.446479808e-18)
(94.15757256 7.183500114 0)
(94.29159708 11.46754787 0)
(98.32630731 15.50096896 0)
(103.9976417 14.15249047 1.095900183e-18)
(105.9964586 9.761225505 0)
(105.3513589 6.067315835 -9.630074393e-19)
(103.9917087 3.662209502 -4.799477611e-19)
(102.8630504 2.246551949 -3.996685331e-20)
(102.0348562 1.276212826 2.463832009e-20)
(101.391489 0.7485848639 -1.638268801e-20)
(100.8702054 0.3034246188 0)
(100.5794236 0.1603844435 0)
(100.4015226 0.06948695879 -1.001847881e-21)
(100.3180401 0.0194608389 -2.998389914e-21)
(99.90835701 -0.0382249024 4.518864303e-21)
(99.81908983 -0.1085280762 -4.555004458e-21)
(99.63450232 -0.1534250049 9.304830019e-21)
(99.32211558 -0.1622870869 -3.398932499e-20)
(98.97233588 -0.02901206624 6.401042603e-23)
(98.33502685 0.1562247973 2.925392758e-20)
(97.43543868 0.4946173789 -1.333719674e-19)
(96.45846328 1.094712156 7.276823879e-19)
(95.0287572 2.032437737 4.014721127e-21)
(93.17150525 3.532907259 0)
(90.45336097 6.330170577 0)
(86.91732494 13.33803008 -1.63121036e-18)
(94.4131993 25.99794876 -2.48038252e-19)
(110.510748 20.44956298 0)
(111.114122 11.31692694 0)
(108.4546295 6.064357478 1.277666447e-18)
(105.7767634 3.289423679 0)
(103.8717189 1.840427285 6.919260353e-20)
(102.6121869 0.9135218276 0)
(101.7611582 0.4728315864 8.803183653e-21)
(101.0431598 0.0976996205 2.614842175e-21)
(100.6702383 0.01983480952 -3.096247342e-21)
(100.4465895 -0.01175136763 -3.520803635e-21)
(100.3402995 -0.006820563288 8.50002446e-21)
(100.0056552 -0.07172520465 -4.519341363e-21)
(99.90345168 -0.2114205654 4.556637773e-21)
(99.69489232 -0.3352752875 -5.792635604e-21)
(99.33965108 -0.4353367837 -3.908685385e-21)
(98.90902417 -0.3797946824 1.669778702e-20)
(98.17096635 -0.342638122 9.990145526e-21)
(97.14642515 -0.2260404965 9.57329738e-20)
(95.9389531 0.1371410376 1.955127865e-19)
(94.19300288 0.6641755831 0)
(91.73775662 1.471367278 1.007733375e-18)
(87.48825751 2.719772484 1.043568529e-18)
(78.77198964 5.216820911 0)
(126.4977574 22.81599696 -1.760573943e-18)
(118.112015 9.193805718 2.491407089e-18)
(111.8302416 4.320928783 4.648297326e-19)
(107.4635604 2.059298708 3.276095558e-19)
(104.7525468 0.978376187 -2.982591945e-19)
(103.0374909 0.290268151 -4.639169709e-21)
(102.0221961 0.03882923742 1.982315661e-20)
(101.124694 -0.1926616316 -3.171961721e-21)
(100.6870318 -0.1737696682 2.598310949e-21)
(100.4279388 -0.121056274 -4.809773038e-22)
(100.3028785 -0.04219327452 -7.960329002e-21)
(100.1720606 -0.1091363916 -2.183093603e-21)
(100.0628995 -0.3262979771 -1.641274219e-21)
(99.84282638 -0.5389208904 -5.630442574e-22)
(99.46727034 -0.7425425388 1.709961453e-21)
(98.97978077 -0.7884896866 -3.329487801e-23)
(98.20050572 -0.9294092252 0)
(97.13509347 -1.072107979 -4.037702333e-20)
(95.81460187 -1.017586404 -9.870268658e-20)
(93.98241789 -0.9834753225 1.45334111e-18)
(91.49853931 -1.002366181 0)
(87.60438855 -1.53389957 -1.091624947e-18)
(82.17942233 -3.748051877 2.363379176e-18)
(139.0959637 5.839133308 -2.534878976e-18)
(122.7541565 2.163995583 1.350246003e-18)
(114.0338003 0.6974919805 0)
(108.5274414 0.02514207227 0)
(105.2621259 -0.2676479938 -1.556508448e-19)
(103.216058 -0.5241289694 -4.703735993e-21)
(102.1017649 -0.5169368972 1.10784183e-20)
(101.0820906 -0.5411026895 1.082942502e-21)
(100.6070687 -0.4031717478 0)
(100.32724 -0.2495642923 4.005987251e-21)
(100.1902751 -0.08389384663 3.962537494e-21)
(100.4125741 -0.147375786 4.30162633e-21)
(100.3029994 -0.4436201925 6.570883881e-23)
(100.0848921 -0.7463545018 0)
(99.71324652 -1.055727725 2.227008264e-22)
(99.19868982 -1.213684005 -2.29654997e-21)
(98.43872089 -1.533849543 2.460239664e-21)
(97.41547668 -1.925292421 -7.971274251e-20)
(96.11537355 -2.163561774 -6.024289907e-19)
(94.41073238 -2.536557623 0)
(92.22241153 -3.10482985 -1.926875948e-18)
(89.17419949 -4.319516887 0)
(85.83138233 -6.425173083 9.874866012e-19)
(135.5748816 -10.79181801 2.241809774e-18)
(122.2097409 -5.890405268 0)
(114.0082728 -3.587326191 9.585237663e-19)
(108.5325368 -2.345854854 -1.872224929e-18)
(105.2232754 -1.686621869 -3.749963074e-20)
(103.0833863 -1.421207407 3.966287861e-20)
(101.9620231 -1.129094392 0)
(100.8972666 -0.911109841 -1.056112217e-21)
(100.4170986 -0.6458891835 -4.404107602e-21)
(100.1338205 -0.3855610602 4.922826653e-22)
(99.99335283 -0.1281133724 0)
(100.7260531 -0.1834833674 -2.118344821e-21)
(100.6221256 -0.5540647744 2.138206769e-21)
(100.4180558 -0.9402253955 2.086160139e-21)
(100.074262 -1.348305733 -1.957827301e-21)
(99.55896384 -1.61581115 -2.265946316e-21)
(98.86747939 -2.092415192 0)
(97.94879892 -2.693255238 -1.273802435e-20)
(96.753323 -3.168258272 0)
(95.26216493 -3.817143996 0)
(93.41525985 -4.684425277 -9.305994223e-19)
(90.93961726 -6.118107713 -8.672888796e-19)
(88.30658602 -7.930894259 2.062420686e-19)
(126.170898 -19.67517952 0)
(118.058569 -11.65408407 0)
(112.0194955 -7.087684351 -1.964109651e-19)
(107.5167599 -4.44589086 1.270943906e-18)
(104.6256215 -3.017325641 -5.810406856e-19)
(102.6368571 -2.272144718 0)
(101.603293 -1.719205364 -2.603221668e-20)
(100.5684386 -1.264075293 -1.325610732e-20)
(100.1163501 -0.8781462448 1.007804086e-21)
(99.8465162 -0.5164929015 -3.185930076e-21)
(99.7108469 -0.1708240803 4.666490843e-22)
(101.1056334 -0.2149231719 7.754612703e-21)
(101.0125127 -0.6495676778 0)
(100.8313893 -1.103902332 -2.0820599e-21)
(100.5312576 -1.605372374 0)
(100.0332115 -1.963782921 0)
(99.45017027 -2.558988182 -6.737741369e-21)
(98.67730256 -3.316774786 -1.569610779e-19)
(97.63430677 -3.962291286 7.272035575e-19)
(96.3818665 -4.785347031 -1.741758844e-20)
(94.84473583 -5.831981549 8.299422569e-19)
(92.74255778 -7.430721707 1.454477132e-20)
(90.32534024 -9.26919187 1.921973675e-19)
(116.433338 -22.67990436 -1.115636456e-18)
(112.6481838 -14.39676032 1.306609618e-18)
(109.0188408 -9.155302291 4.924456094e-19)
(105.8411586 -5.904211932 5.425840138e-19)
(103.6100701 -4.059630483 0)
(101.9318404 -2.973332317 2.081181923e-21)
(101.0587631 -2.222608964 -3.18025187e-20)
(100.1166828 -1.574609627 7.851674787e-21)
(99.71663992 -1.07787411 0)
(99.4732097 -0.6314382512 3.667951647e-21)
(99.34925645 -0.2084869262 0)
(101.5403478 -0.2407589587 7.744655693e-21)
(101.4609897 -0.7285869877 1.221913393e-19)
(101.3067414 -1.237047078 -2.462319084e-19)
(101.0542954 -1.806789171 -5.408701937e-22)
(100.6217181 -2.230691915 -1.953898346e-21)
(100.1462816 -2.906688853 0)
(99.54191966 -3.767387248 -3.570470783e-20)
(98.66950192 -4.511042213 1.017851975e-18)
(97.66869685 -5.429040559 -7.741926289e-19)
(96.43989542 -6.590419429 0)
(94.73405353 -8.399077906 -6.381839611e-19)
(92.64133464 -10.55785873 -5.45106754e-19)
(103.3659635 -31.62378575 -4.869922536e-19)
(107.6871537 -20.84180919 2.756403799e-19)
(107.5634599 -14.57090008 -2.58765112e-19)
(105.8978057 -9.824825661 -2.429302486e-19)
(103.9272755 -6.646627115 -4.893991813e-19)
(102.3694633 -4.727306993 -1.903642779e-19)
(101.0614146 -3.463223392 -6.366043974e-20)
(100.3769284 -2.595901771 0)
(99.57547417 -1.810685882 0)
(99.2378324 -1.233604567 1.149567366e-20)
(99.02878708 -0.7232010511 2.118268731e-21)
(98.92133497 -0.2385824562 -6.880689848e-21)
(102.0160288 -0.258578966 0)
(101.9520927 -0.7837841609 0)
(101.8285143 -1.328486341 0)
(101.6259816 -1.934283843 0)
(101.2572204 -2.419903461 0)
(100.890149 -3.150038456 0)
(100.4416575 -4.058738823 1.53848787e-19)
(99.76144914 -4.840257702 6.026385927e-19)
(99.00333065 -5.782159991 -2.566655773e-20)
(98.0951256 -6.973761346 5.372796738e-19)
(96.89830581 -8.851760666 5.322381082e-19)
(95.70314549 -11.52115097 -1.211669763e-19)
(96.52343724 -20.80025099 -3.599240088e-19)
(102.4680351 -17.13073765 2.49369207e-19)
(103.7319562 -13.14177528 1.959744851e-19)
(103.2072081 -9.481516111 -1.791474062e-19)
(102.0921358 -6.787665256 1.964347307e-19)
(101.0738714 -5.038589397 -6.908933394e-20)
(100.1217553 -3.738504948 -8.933860699e-20)
(99.6250686 -2.834434612 -3.362001229e-20)
(98.97609899 -1.962119952 -1.872858293e-20)
(98.7031617 -1.341243013 1.847230696e-20)
(98.53237478 -0.7876916724 0)
(98.4437028 -0.2597117999 1.846793018e-20)
(102.5183871 -0.2684584472 0)
(102.4705354 -0.8146130287 0)
(102.3796196 -1.378727818 0)
(102.2280027 -1.994178514 0)
(101.9210505 -2.510712123 0)
(101.6661737 -3.253765831 0)
(101.3664496 -4.139829423 -8.542214161e-20)
(100.8558185 -4.961039427 -4.993494985e-19)
(100.3006412 -5.891234659 0)
(99.68481682 -6.988833834 -5.098397529e-19)
(99.0395807 -8.557749881 3.984628285e-19)
(98.82899295 -11.01046458 8.910021444e-20)
(98.00934703 -13.67141049 0)
(100.3873689 -13.22036423 8.532288724e-22)
(101.3098965 -11.11610907 -3.812140734e-19)
(101.1424194 -8.611639702 -8.263265125e-19)
(100.5010664 -6.533561046 -3.312661401e-19)
(99.85522559 -5.073807838 -2.417047028e-20)
(99.18334658 -3.827353192 0)
(98.85751689 -2.945789194 0)
(98.34848364 -2.034924372 -3.496474728e-20)
(98.13725446 -1.39986531 1.725409874e-20)
(98.00437021 -0.8238191683 7.223028392e-22)
(97.93438323 -0.2716241527 -1.272739428e-20)
(103.0327584 -0.2709373914 0)
(102.9997523 -0.822150096 0)
(102.9389176 -1.389674671 0)
(102.8340032 -1.996373992 0)
(102.5834073 -2.522195965 0)
(102.4222997 -3.245348143 0)
(102.2416516 -4.069574106 0)
(101.8739972 -4.901206531 -5.984528149e-19)
(101.4684716 -5.800366544 1.756911855e-18)
(101.044455 -6.760506435 1.611818596e-18)
(100.688994 -7.914357607 0)
(97.46614995 -8.865302381 2.533692096e-19)
(99.01489887 -10.46996358 -1.765696042e-19)
(99.69887195 -10.37623944 -3.333588664e-19)
(99.8789655 -9.211077818 4.738666398e-21)
(99.63115421 -7.57030685 8.367979451e-19)
(99.19724585 -6.066353549 -1.42366692e-19)
(98.77254533 -4.895942526 0)
(98.30996176 -3.770253235 -2.987996913e-20)
(98.11166233 -2.948225992 4.51595546e-20)
(97.72048053 -2.040495063 1.090186461e-20)
(97.56350415 -1.414722517 1.859255626e-20)
(97.46400883 -0.8342371137 -2.112443938e-20)
(97.41069835 -0.2750817749 0)
(103.5457128 -0.2671381001 0)
(103.5252766 -0.8099168642 0)
(103.4892275 -1.367216355 0)
(103.4230935 -1.950435883 0)
(103.2224701 -2.468296499 0)
(103.1335817 -3.14790593 0)
(103.0355632 -3.893929941 0)
(102.772258 -4.672745167 2.322809067e-19)
(102.457974 -5.519296864 0)
(102.1013259 -6.337407515 1.137719992e-18)
(101.9687489 -7.212079524 -2.054007879e-18)
(93.41413775 -6.986721005 -1.291425864e-18)
(99.52612937 -8.480030409 -3.89835066e-19)
(99.2878146 -8.39548723 2.460242635e-19)
(98.92025099 -7.641415596 0)
(98.52757108 -6.57207057 -2.340042038e-20)
(98.16057307 -5.528937238 0)
(97.85109978 -4.593420301 0)
(97.52856005 -3.613548143 0)
(97.41143024 -2.865114002 0)
(97.11370907 -1.992679452 3.787858017e-20)
(97.00049049 -1.393118882 -3.544069897e-20)
(96.92773614 -0.8226987819 -2.389571784e-21)
(96.88794733 -0.2716404807 2.39765602e-21)
(104.0459299 -0.258352995 0)
(104.0355307 -0.7820788214 0)
(104.0184923 -1.318443429 0)
(103.9821809 -1.867389442 0)
(103.8219982 -2.363412348 0)
(103.783539 -2.986291549 0)
(103.7359769 -3.646245414 0)
(103.5300487 -4.326474296 0)
(103.2419923 -5.066840057 -1.450428118e-20)
(102.8667493 -5.760774927 4.119375137e-20)
(101.7818725 -6.372032213 0)
(96.4111395 -6.764916341 1.310927313e-19)
(99.5447418 -7.111410399 -1.556239684e-20)
(98.8396717 -6.947947594 -2.785867765e-21)
(98.20367254 -6.418570017 -2.766769868e-20)
(97.7203922 -5.725166775 8.018322558e-20)
(97.35177179 -4.977737252 0)
(97.08558984 -4.228411422 0)
(96.83874774 -3.386869321 0)
(96.76973353 -2.719657788 0)
(96.54102606 -1.903365699 0)
(96.46044606 -1.341144327 0)
(96.40830126 -0.7944132756 0)
(96.37876603 -0.2633108331 0)
(104.5248335 -0.2458344531 0)
(104.5219674 -0.7426705685 0)
(104.5184025 -1.250344668 0)
(104.5031656 -1.758688903 0)
(104.3729952 -2.223507859 0)
(104.3646612 -2.784326335 0)
(104.340783 -3.361659815 0)
(104.1563927 -3.942030487 0)
(103.8618853 -4.539810555 0)
(103.4522618 -5.108553119 9.736471221e-21)
(100.0342234 -5.419401856 0)
(99.23653206 -5.956682708 4.129725469e-19)
(99.39388474 -6.003191759 -3.928228053e-20)
(98.4693179 -5.848790682 -5.096538082e-20)
(97.70741513 -5.498391202 0)
(97.1344944 -5.010361507 0)
(96.72156849 -4.440150901 0)
(96.4558053 -3.839048824 0)
(96.24086726 -3.123321201 0)
(96.19445839 -2.537518518 0)
(96.01087169 -1.787650091 0)
(95.95206966 -1.268681138 0)
(95.9138186 -0.7533241389 0)
(95.8923653 -0.2502429892 0)
(104.9764164 -0.2307721859 0)
(104.978713 -0.6954984667 0)
(104.9835245 -1.169434176 0)
(104.981394 -1.634614248 0)
(104.871954 -2.063035259 0)
(104.8771664 -2.56196033 0)
(104.8563728 -3.065729162 0)
(104.672462 -3.554498528 0)
(104.3518555 -4.037576336 0)
(103.8884467 -4.478044749 0)
(99.90325754 -4.672262717 0)
(99.75074898 -5.091098378 0)
(99.34780861 -5.119500939 0)
(98.25537199 -5.0067791 0)
(97.36161107 -4.750676668 0)
(96.69300179 -4.383689387 0)
(96.22535627 -3.940157743 0)
(95.93705978 -3.453415085 0)
(95.72728687 -2.84665317 0)
(95.68470737 -2.337235814 0)
(95.52712592 -1.657407719 0)
(95.48088794 -1.183789976 0)
(95.4507227 -0.7044172132 0)
(95.43438081 -0.2344177334 0)
(105.3969293 -0.2142341377 0)
(105.4022991 -0.6439674068 0)
(105.4111161 -1.081475502 0)
(105.4152941 -1.503374207 0)
(105.3193365 -1.893512773 0)
(105.3256157 -2.334278414 0)
(105.2933618 -2.772573217 0)
(105.0984955 -3.182791661 0)
(104.7426921 -3.576232668 0)
(104.2086358 -3.921562478 0)
(99.93043571 -4.059882779 0)
(99.94920335 -4.394873435 0)
(99.32318584 -4.403764175 -2.276761904e-35)
(98.1003193 -4.315951932 0)
(97.10182 -4.12120355 0)
(96.35225484 -3.838124703 0)
(95.82951751 -3.487079706 0)
(95.50784218 -3.088875996 0)
(95.28727663 -2.573579071 0)
(95.23590179 -2.132374351 0)
(95.09001642 -1.521609696 0)
(95.04897656 -1.092830416 0)
(95.02217298 -0.6515185817 0)
(95.00865891 -0.2172198211 0)
(105.7845148 -0.1971003884 0)
(105.7912514 -0.5908609483 0)
(105.8006485 -0.9911748099 0)
(105.8057681 -1.371197771 0)
(105.7176906 -1.723412971 0)
(105.7164772 -2.111380988 0)
(105.6637248 -2.490367376 0)
(105.4517017 -2.837057717 0)
(105.0584733 -3.160423983 0)
(104.4520896 -3.436464569 0)
(99.98665609 -3.543379584 0)
(100.0597495 -3.817613523 0)
(99.29808029 -3.813432657 0)
(97.97973976 -3.741428394 0)
(96.90071277 -3.588430934 0)
(96.08380935 -3.364995233 0)
(95.50954651 -3.08267335 0)
(95.15065525 -2.754215168 0)
(94.90967068 -2.314666035 0)
(94.84188498 -1.932345965 0)
(94.69761057 -1.386674974 0)
(94.6562038 -1.00068115 0)
(94.62918872 -0.5975735484 0)
(94.61668378 -0.1996236231 0)
(106.1388589 -0.1800460625 0)
(106.1456407 -0.5382748038 0)
(106.1531221 -0.9020597269 0)
(106.1552563 -1.242623558 0)
(106.0707987 -1.558630572 0)
(106.0566345 -1.89933519 0)
(105.9794083 -2.22615617 0)
(105.7461206 -2.521166601 0)
(105.3170344 -2.789682078 0)
(104.641571 -3.014006459 0)
(100.0669658 -3.103444115 0)
(100.121147 -3.331850566 0)
(99.27231103 -3.319316181 -3.214736702e-35)
(97.88280028 -3.258520986 0)
(96.74105266 -3.135220445 0)
(95.86843915 -2.955327839 0)
(95.24770975 -2.724974668 0)
(94.85188475 -2.451675957 0)
(94.58449011 -2.075254699 0)
(94.4961736 -1.742951694 0)
(94.34669355 -1.257032177 0)
(94.30099122 -0.9108448128 0)
(94.27124638 -0.5447089999 0)
(94.25838065 -0.1823224428 0)
(106.4608081 -0.1635658666 0)
(106.4666467 -0.4877054921 0)
(106.4704827 -0.8166087945 0)
(106.466931 -1.120761614 0)
(106.3829882 -1.403020288 0)
(106.3525916 -1.701855912 0)
(106.2492485 -1.98397238 0)
(105.9934111 -2.236214747 0)
(105.5315793 -2.461454697 0)
(104.7919902 -2.646332965 0)
(100.1694094 -2.726407783 0)
(100.152002 -2.919885052 0)
(99.24635098 -2.901675681 0)
(97.80300125 -2.849369109 0)
(96.61163917 -2.748050151 0)
(95.69286834 -2.600794022 0)
(95.03092837 -2.410414166 0)
(94.5998063 -2.180876192 0)
(94.3037353 -1.857198682 0)
(94.19260187 -1.567494109 0)
(94.03349636 -1.135527825 0)
(93.9809084 -0.8256595411 0)
(93.94675867 -0.4943729441 0)
(93.93253975 -0.1657939501 0)
(106.7519858 -0.1480073304 0)
(106.7561696 -0.4401775175 0)
(106.755225 -0.7364802159 0)
(106.7442446 -1.007589198 0)
(106.6586378 -1.258942882 0)
(106.6103144 -1.521030754 0)
(106.4806855 -1.765115545 0)
(106.2026744 -1.981713444 0)
(105.7117544 -2.172475634 0)
(104.9136139 -2.326694427 0)
(100.2907023 -2.401891416 0)
(100.1629999 -2.568695218 0)
(99.22059413 -2.546509218 1.13119091e-35)
(97.73618604 -2.500894585 0)
(96.50500044 -2.416380849 0)
(95.54778227 -2.294175634 0)
(94.84956324 -2.135056804 0)
(94.38545919 -1.940596873 0)
(94.06038379 -1.661050206 0)
(93.92559692 -1.407626259 0)
(93.75414456 -1.023823632 0)
(93.69308403 -0.7465851857 0)
(93.65348534 -0.447498131 0)
(93.63722201 -0.150352447 0)
(107.0145125 -0.1335998465 0)
(107.0165547 -0.3963480871 0)
(107.0101488 -0.6627074825 0)
(106.9907147 -0.9042311844 0)
(106.9019867 -1.127637792 0)
(106.8351237 -1.357692407 0)
(106.6799851 -1.569509785 0)
(106.3810808 -1.756263236 0)
(105.8646317 -1.919265013 0)
(105.0137495 -2.049341516 0)
(100.4270167 -2.122031034 0)
(100.1606166 -2.268477158 0)
(99.19528717 -2.243425222 0)
(97.67951392 -2.203217536 0)
(96.41595041 -2.131883292 0)
(95.42647571 -2.02930299 0)
(94.69639016 -1.895000268 0)
(94.20185808 -1.728952343 0)
(93.84847237 -1.486426327 0)
(93.69016182 -1.263884817 0)
(93.50485368 -0.9227282146 0)
(93.43445271 -0.6744440266 0)
(93.3888234 -0.4046343691 0)
(93.37006007 -0.1361885292 0)
(107.2508231 -0.1204796572 0)
(107.2504116 -0.3565910921 0)
(107.2381998 -0.595857964 0)
(107.2098043 -0.8112139088 0)
(107.116971 -1.009623369 0)
(107.0316651 -1.211908506 0)
(106.8523389 -1.396387519 0)
(106.5342815 -1.558065307 0)
(105.9954818 -1.698476002 0)
(105.0976941 -1.809323328 0)
(100.5745271 -1.880707458 0)
(100.1489124 -2.011652847 0)
(99.17056247 -1.984514503 0)
(97.63095934 -1.948764091 0)
(96.34078027 -1.887972519 0)
(95.32403081 -1.801018612 0)
(94.56593076 -1.686655169 0)
(94.04352679 -1.54380882 0)
(93.66305537 -1.332428831 0)
(93.48191987 -1.136140314 0)
(93.28201213 -0.8324781535 0)
(93.20189999 -0.6096042169 0)
(93.14998648 -0.3660492687 0)
(93.12844495 -0.1234000153 0)
(107.4635365 -0.1087140512 0)
(107.4604869 -0.321073526 0)
(107.4423575 -0.536163561 0)
(107.4048479 -0.7286493103 0)
(107.307266 -0.9048975533 0)
(107.2040448 -1.083239 0)
(107.0021222 -1.244592309 0)
(106.6667939 -1.385150534 0)
(106.1083576 -1.507011127 0)
(105.1693412 -1.602421958 0)
(100.72965 -1.672944892 0)
(100.1305749 -1.792253503 0)
(99.14649713 -1.763618652 0)
(97.58900906 -1.731583732 0)
(96.27673126 -1.679342079 0)
(95.23672378 -1.604978968 0)
(94.45391591 -1.506776708 0)
(93.90605602 -1.382981761 0)
(93.49994447 -1.197852361 0)
(93.2969812 -1.023834569 0)
(93.08222473 -0.7529352397 0)
(92.99235787 -0.5521211323 0)
(92.93412516 -0.3318123963 0)
(92.9096532 -0.1120189088 0)
(107.655308 -0.09832437493 0)
(107.6495257 -0.2898258744 0)
(107.6255196 -0.4836379654 0)
(107.5789734 -0.6564011925 0)
(107.476223 -0.8131670664 0)
(107.3558486 -0.9709931406 0)
(107.1330061 -1.112839678 0)
(106.7822482 -1.235614066 0)
(106.2064695 -1.342190116 0)
(105.2316029 -1.425181476 0)
(100.8892988 -1.494840073 0)
(100.1075219 -1.60564727 0)
(99.12309501 -1.575947644 0)
(97.55248109 -1.546992373 0)
(96.22169245 -1.501730199 0)
(95.16167639 -1.437581715 0)
(94.35696898 -1.35254051 0)
(93.78585415 -1.244409806 0)
(93.35561125 -1.081406162 0)
(93.13193019 -0.9262085258 0)
(92.9023665 -0.6837564063 0)
(92.80290261 -0.5018586616 0)
(92.73845121 -0.3018693735 0)
(92.71098292 -0.1020356927 0)
(107.8288351 -0.08930051762 0)
(107.8202799 -0.2627887626 0)
(107.7905247 -0.4381554118 0)
(107.7351611 -0.5941734982 0)
(107.6269086 -0.7339767503 0)
(107.4902466 -0.8743776556 0)
(107.2480458 -0.9997626768 0)
(106.8836672 -1.10769325 0)
(106.2924547 -1.201691486 0)
(105.2866454 -1.274670535 0)
(101.050936 -1.343271734 0)
(100.0812347 -1.448105411 0)
(99.10028658 -1.41765956 0)
(97.52040248 -1.391224286 0)
(96.17398339 -1.351660941 0)
(95.09659132 -1.295814984 0)
(94.27234668 -1.221507139 0)
(93.67987478 -1.126273224 0)
(93.22703336 -0.9818614883 0)
(92.98373441 -0.842427014 0)
(92.7395099 -0.6244767728 0)
(92.63072277 -0.4585668997 0)
(92.56022431 -0.2760891401 0)
(92.52974364 -0.09341404539 0)
(107.9865645 -0.08162015292 0)
(107.9752434 -0.2398631641 0)
(107.9399171 -0.399513874 0)
(107.8760355 -0.5416563498 0)
(107.7621192 -0.6667964513 0)
(107.6100891 -0.792600332 0)
(107.3498377 -0.9037153419 0)
(106.9735299 -0.9999290144 0)
(106.3684889 -1.083529431 0)
(105.336098 -1.148437274 0)
(101.2124993 -1.215781174 0)
(100.0528653 -1.316626085 0)
(99.07796654 -1.285672242 -1.75982313e-36)
(97.49194974 -1.261253256 0)
(96.13222779 -1.226308367 0)
(95.0395953 -1.177179399 0)
(94.19781215 -1.111598666 0)
(93.58573615 -1.027173575 0)
(93.11145039 -0.8982196196 0)
(92.84967259 -0.7716284427 0)
(92.59111193 -0.57464483 0)
(92.473331 -0.4219426877 0)
(92.39699415 -0.2543127896 0)
(92.36352963 -0.08610977247 0)
(108.1315802 -0.07523719248 0)
(108.1174688 -0.2209041563 0)
(108.0767174 -0.3674709676 0)
(108.0046232 -0.4983627652 0)
(107.8844629 -0.6111006055 0)
(107.7179653 -0.7247934478 0)
(107.4412234 -0.8238472306 0)
(107.0538197 -0.9108567031 0)
(106.4363892 -0.9859787309 0)
(105.3812175 -1.044433293 0)
(101.3723629 -1.110389968 0)
(100.0233251 -1.20881084 0)
(99.05599771 -1.177527726 0)
(97.4664028 -1.154653515 0)
(96.09526333 -1.12338613 0)
(94.98911366 -1.079612645 0)
(94.13147819 -1.021015553 0)
(93.50146827 -0.9454439533 0)
(93.0064376 -0.8293114994 0)
(92.72729761 -0.7130121245 0)
(92.45425994 -0.5336613947 0)
(92.32781516 -0.3916616547 0)
(92.24580771 -0.2363452983 0)
(92.20934949 -0.08005809102 0)
(108.2642101 -0.07016223527 0)
(108.247436 -0.2058744596 0)
(108.2014832 -0.3418374417 0)
(108.1215424 -0.4644204213 0)
(107.9963231 -0.5662790968 0)
(107.8161834 -0.6701158265 0)
(107.5247179 -0.760334175 0)
(107.1264176 -0.8390236174 0)
(106.4977697 -0.9075394732 0)
(105.4230376 -0.9609636299 0)
(101.5291816 -1.025454121 0)
(99.99340486 -1.122600221 0)
(99.03423137 -1.091204728 0)
(97.44311671 -1.069460742 0)
(96.06207302 -1.041039942 0)
(94.9437645 -1.001424068 0)
(94.07161738 -0.9482473398 0)
(93.42482201 -0.8791572737 0)
(92.91015806 -0.7737084172 0)
(92.61431585 -0.6656536744 0)
(92.32848673 -0.5015582434 0)
(92.19372911 -0.3674571048 0)
(92.10628576 -0.2221087441 0)
(92.06698805 -0.07525715034 0)
(108.3947329 -0.06621560849 0)
(108.3749216 -0.1944078126 0)
(108.3235891 -0.3222572778 0)
(108.2351785 -0.4374589983 0)
(108.1005582 -0.532049002 0)
(107.9067456 -0.6283185301 0)
(107.6014389 -0.7124077282 0)
(107.1932384 -0.7835900734 0)
(106.5540814 -0.8470243073 0)
(105.4624602 -0.8966739901 0)
(101.6816549 -0.95972979 0)
(99.96390388 -1.056335768 0)
(99.01257355 -1.02509847 0)
(97.42152473 -1.004136805 0)
(96.0317582 -0.9778175598 0)
(94.90233046 -0.9412906747 0)
(94.01671344 -0.8921720317 0)
(93.35401671 -0.8280395418 0)
(92.82074916 -0.730913157 0)
(92.50885077 -0.6297521309 0)
(92.20539926 -0.475796618 0)
(92.0617184 -0.348937508 0)
(91.96867129 -0.2111961052 0)
(91.92612376 -0.07150434866 0)
(108.4947575 -0.06390594256 0)
(108.4729729 -0.1874213064 0)
(108.4174876 -0.3098538493 0)
(108.3235203 -0.4230267134 0)
(108.1968015 -0.5076424067 0)
(107.9913803 -0.5986829227 0)
(107.6730121 -0.6788881299 0)
(107.2556567 -0.7438065457 0)
(106.6065904 -0.803506737 0)
(105.5002997 -0.850520569 0)
(101.828754 -0.9123205466 0)
(99.93555393 -1.008918649 0)
(98.99094724 -0.978042127 0)
(97.40110636 -0.9575254234 0)
(96.00349733 -0.9326095188 0)
(94.8637139 -0.8981883545 0)
(93.96543601 -0.851881848 0)
(93.28762823 -0.7912274934 0)
(92.7365275 -0.7003568591 0)
(92.40940958 -0.6043372998 0)
(92.1083365 -0.4619866528 0)
(91.95864543 -0.3371542884 0)
(91.86127671 -0.2045428406 0)
(91.81669457 -0.06934586274 0)
(108.6818367 -0.0613998186 0)
(108.6558827 -0.1810741867 0)
(108.5924719 -0.2991164311 0)
(108.4842548 -0.4056557992 0)
(108.2854163 -0.4937792614 0)
(108.0679165 -0.5814125776 0)
(107.7380809 -0.6599303431 0)
(107.3149187 -0.7190113453 0)
(106.6564186 -0.7762379066 0)
(105.537302 -0.8217633604 0)
(101.9696378 -0.8826343803 0)
(99.90893292 -0.9796984354 0)
(98.96928124 -0.949256982 0)
(97.38137301 -0.9288345531 0)
(95.97653564 -0.9046262895 0)