/*--------------------------------*- C++ -*----------------------------------*\
| =========                 |                                                 |
| \\      /  F ield         | OpenFOAM: The Open Source CFD Toolbox           |
|  \\    /   O peration     | Version:  v1912                                 |
|   \\  /    A nd           | Website:  www.openfoam.com                      |
|    \\/     M anipulation  |                                                 |
\*---------------------------------------------------------------------------*/
FoamFile
{
    version     2.0;
    format      ascii;
    class       surfaceScalarField;
    location    "0.65";
    object      meshPhi;
}
// * * * * * * * * * * * * * * * * * * * * * * * * * * * * * * * * * * * * * //

dimensions      [0 3 -1 0 0 0 0];
oriented        oriented;


internalField   nonuniform List<scalar> 
25162
(
0
0
0
0
0
0
0
0
0
0
0
0
0
0
0
0
0
0
0
0
0
0
0
0
0
0
0
0
0
0
0
0
0
0
0
0
0
0
0
0
0
0
0
0
0
0
0
0
0
0
0
0
0
0
0
0
0
0
0
0
0
0
0
0
0
0
0
0
0
0
0
0
0
0
0
0
0
0
0
0
0
0
0
0
0
0
0
0
0
0
0
0
0
0
0
0
0
0
0
0
0
0
0
0
3.961091489e-09
5.459585005e-08
-6.11365299e-07
0
-7.176719446e-09
5.197761873e-07
0
0
0
0
0
0
0
0
0
0
0
0
0
0
0
0
0
0
0
0
0
0
0
0
0
0
0
0
0
0
0
0
0
0
0
0
0
0
0
0
0
0
0
0
0
0
0
0
0
0
0
0
0
0
0
0
0
0
0
0
0
0
0
0
0
0
-1.843980157e-08
-9.513377191e-07
1.737172452e-06
5.970645529e-06
-6.801434143e-06
-5.168353686e-05
1.586803284e-05
7.293840343e-05
-7.908492944e-06
-0.0001359452734
1.262787276e-05
0.0001529559071
2.623725379e-06
-0.0001800661958
-6.21325172e-06
0.0001792490465
8.631242693e-06
-0.0001461136594
-1.620637063e-05
0.0001263770407
3.848750049e-06
-5.662829715e-05
-1.016918246e-05
3.524761438e-05
0
-1.029584574e-06
-2.536873164e-07
0
0
0
0
0
0
0
0
0
0
0
0
0
0
0
0
0
0
0
0
0
0
0
0
0
0
0
0
0
0
0
0
0
0
0
0
0
0
0
0
0
0
0
0
0
0
0
0
0
0
0
-9.100830458e-07
-2.139272304e-06
4.851151369e-06
1.503424134e-05
-3.626613317e-05
-0.0001267157472
5.739980105e-05
0.0001800493325
-5.940028637e-05
-0.0003593967225
7.597493283e-05
0.0004197150869
-2.04058423e-05
-0.0005798633582
1.80347236e-05
0.0006214680946
3.51227481e-05
-0.0006944336882
-5.199323094e-05
0.000698615078
5.692126465e-05
-0.0006441721912
-7.70654696e-05
0.0006037720514
4.29553527e-05
-0.0004275388758
-5.774245809e-05
0.0003567017329
1.645490705e-05
-0.000148322371
-2.583377009e-05
9.16614708e-05
0
-2.210834985e-06
-7.11441444e-07
0
0
0
0
0
0
0
0
0
0
0
0
0
0
0
0
0
0
0
0
0
0
0
0
0
0
0
0
0
0
0
0
0
0
0
0
0
0
0
0
0
0
0
0
0
2.981999038e-07
8.562381525e-07
-4.375200273e-05
-0.0001001742277
6.551011032e-05
0.0001691847528
-0.0001382395459
-0.0004383591487
0.0001670677454
0.0005399872311
-0.0001166664155
-0.0008438078662
0.000124738664
0.0009366405874
6.794475295e-06
-0.001162155181
-1.908983554e-05
0.001215601064
0.0001177012096
-0.001306008699
-0.0001402992597
0.001313213908
0.0001539000497
-0.001262280215
-0.0001825889364
0.001218327607
0.0001125638931
-0.0009956291351
-0.0001341329475
0.000892657392
7.1553751e-05
-0.0005575882185
-8.34296707e-05
0.000436932895
1.636262739e-05
-0.0001290339878
-2.377507607e-05
6.351531229e-05
0
0
0
0
0
0
0
0
0
0
0
0
0
0
0
0
0
0
0
0
0
0
0
0
0
0
0
0
0
0
0
0
0
0
0
0
0
0
0
0
0
0
-1.002807127e-05
-1.256352352e-05
1.682322907e-05
5.355556714e-05
-0.0001457346947
-0.0003152290268
0.0001731663923
0.0004353883914
-0.0002548710313
-0.0008544879334
0.0002686966293
0.001000368824
-0.0001296163097
-0.001362532919
0.0001415838254
0.001441030387
5.364903027e-05
-0.001618874695
-5.959188105e-05
0.001644952418
0.0001874876993
-0.001671617166
-0.0001920472337
0.001673177665
0.0002699936401
-0.001669373827
-0.0002914639073
0.001649712435
0.000251414783
-0.001530119788
-0.0002761036779
0.001429476908
0.0001053425721
-0.001007123361
-0.0001172541596
0.0008501114822
4.412018732e-05
-0.0003853069057
-4.970344584e-05
0.0002555387286
-1.699868063e-05
2.008281475e-06
-3.410146826e-06
2.581806233e-07
0
0
0
0
0
0
0
0
0
0
0
0
0
0
0
0
0
0
0
0
0
0
0
0
0
0
0
0
0
0
0
0
0
0
0
2.615421595e-07
9.806719718e-09
3.754307879e-07
-4.070428155e-05
-6.520230623e-05
4.996576604e-05
0.0001457164935
-0.0002503033444
-0.0005295438092
0.0002601780269
0.0007049534012
-0.0003014183511
-0.001206306726
0.0003094725107
0.001357748559
-0.0001208214853
-0.001707972872
9.70775056e-05
0.001785310423
4.007099303e-05
-0.001852400685
1.705272864e-05
-1.535570521e-05
0.000891741113
0.0009188915553
-0.0008868358334
9.292182046e-05
-9.33635918e-05
0.0008872776047
-0.000915980643
0.0003633008611
0.001845030516
-0.0009380603125
-0.0001708348998
-0.0001834555214
-0.00176150517
0.0003125555808
-0.0003341485735
0.001701041748
0.0001575215575
-0.001345692823
-0.0001743738476
0.001185345957
6.355189786e-05
-0.000638895549
-6.643292625e-05
0.0004683475203
-9.240879867e-05
1.315473773e-05
-1.637114784e-05
2.914327404e-05
0
0
0
0
0
0
0
0
0
0
0
0
0
0
0
0
0
0
0
0
0
0
0
0
0
0
0
0
0
0
0
0
0
-1.098084693e-06
0
2.356072412e-06
3.523839714e-06
5.421957047e-06
-6.967285281e-05
-0.0001145017349
7.21082702e-05
0.0002237035182
-0.0003008963345
-0.0007066998194
0.0003060658223
0.0008970369171
-0.000317350022
-0.001450200974
0.0003174136605
0.001605080891
-6.841034289e-05
-0.001895734923
6.25064851e-05
0.001919952309
2.682411044e-05
-0.0009697031393
-2.522346253e-05
0.0009681024914
-0.0009610656761
0.0001578289173
-0.0001563169529
0.0009595537118
-0.001906426912
0.0003799410706
-0.000388877738
0.001871983276
0.0001993579422
-0.001550462955
-0.0002051065785
0.001384996905
7.36619523e-05
-0.0008078366737
-7.577687226e-05
0.0006170662453
-0.0001685678462
2.301532028e-05
-2.577197126e-05
7.361050656e-05
0
0
0
0
0
0
0
0
0
0
0
0
0
0
0
0
0
0
0
0
0
0
0
0
0
0
0
0
0
0
0
0
0
-3.060650747e-06
0
3.873660742e-06
9.966387618e-06
1.132262404e-05
-8.441117338e-05
-0.0001482023179
8.70496665e-05
0.0002727729256
-0.000322716051
-0.0008020064344
0.0003261526813
0.001005866237
-0.0003175674274
-0.001583796671
0.0003178423022
0.001738454384
-5.455581456e-05
-0.00199949152
5.347407222e-05
0.002008884944
3.053205563e-05
-0.001001923263
-3.052954513e-05
0.001001920752
-0.001007759769
0.0001532245801
-0.0001526938977
0.001007229087
-0.002016805986
0.0004021999903
-0.0004043382057
0.00199401879
0.0002267785285
-0.001694883473
-0.0002315414183
0.001530279363
8.137625913e-05
-0.0009335019216
-8.305008185e-05
0.0007283737137
-0.0002164729163
2.882293199e-05
-2.981405552e-05
0.0001051051464
0
0
0
0
0
0
0
0
0
0
0
0
0
0
0
0
0
0
0
0
0
0
0
0
0
0
0
0
0
0
0
0
0
-4.672364533e-06
0
5.775997206e-06
1.560550743e-05
1.750720381e-05
-9.363922921e-05
-0.000173694105
9.630801864e-05
0.0003099148805
-0.0003348445335
-0.0008752895344
0.0003382055554
0.001089848351
-0.0003189997587
-0.001689613929
0.0003192454974
0.001847070797
-5.122557534e-05
-0.002101402183
5.054537406e-05
0.002106937074
3.061855911e-05
-0.001049702949
-3.027650399e-05
0.0005236552924
0.0005257056014
-0.001055857949
0.0001510842469
-0.0001506967327
0.001055470435
-0.002111940974
0.0004012553566
-0.0003986907887
0.002082196495
0.0002304882842
-0.001753789159
-0.0002294059677
0.001579099634
8.255900649e-05
-0.0009566528954
-8.246402484e-05
0.0007456505116
-0.00022115138
2.90992623e-05
-2.880215515e-05
0.0001070377214
0
0
0
0
0
0
0
0
0
0
0
0
0
0
0
0
0
0
0
0
0
0
0
0
0
0
0
0
0
0
0
0
0
-6.985821825e-06
0
8.38595336e-06
2.400826049e-05
2.650440175e-05
-0.0001046746469
-0.0002051861675
0.0001076267538
0.0003544611568
-0.0003483775994
-0.0009587014681
0.0003518562616
0.001184329569
-0.0003197346031
-0.001805377918
0.0003198041256
0.001964892083
-4.849593061e-05
-0.002209109577
4.794760106e-05
0.002211546845
3.042311434e-05
-0.001102380905
-3.032089981e-05
0.0005502799953
0.0005519986952
-0.001106044192
0.0001494748646
-0.0001490814114
0.001105650739
-0.00220379061
0.000383232984
-0.0003754048692
0.002148373159
0.0002126957837
-0.001737562143
-0.0002147597342
0.00155856901
7.642418148e-05
-0.0009066104133
-7.53425128e-05
0.0006932420155
-0.0001821196522
2.409242432e-05
-2.299715882e-05
7.839607102e-05
0
0
0
0
0
0
0
0
0
0
0
0
0
0
0
0
0
0
0
0
0
0
0
0
0
0
0
0
0
0
0
0
0
-1.00989128e-05
0
1.074088333e-05
3.57151122e-05
3.725815109e-05
-0.0001172862345
-0.0002423427803
0.0001210670624
0.0004053775438
-0.0003627756385
-0.001048512932
0.0003668564231
0.001284606782
-0.0003196245976
-0.001923912522
0.0003193352074
0.002084251274
-4.668370343e-05
-0.002314138297
4.661934067e-05
0.002314381942
3.007942213e-05
-0.001153971756
-3.008530564e-05
0.0005759662197
0.0005780114197
-0.001153752804
0.0001476901448
-0.0001475643718
0.001153627031
-0.002262527865
0.000351826501
-0.0003417528545
0.00217128584
0.0001924417551
-0.001692526874
-0.0001732903056
0.001473168741
6.7502073e-05
-0.0007897489878
-6.267058304e-05
0.0005805303671
-0.0001227117821
1.659716047e-05
-1.455000112e-05
4.014764135e-05
0
0
0
0
0
0
0
0
0
0
0
0
0
0
0
0
0
0
0
0
0
0
0
0
0
0
0
0
0
0
0
0
0
-1.528432681e-05
0
2.053526806e-05
5.649590709e-05
6.496949539e-05
-0.0001319915407
-0.0002922930865
0.0001420213834
0.0004672676991
-0.0003802659158
-0.001154038772
0.0003834583945
0.001400549028
-0.0003175420055
-0.002056839945
0.0003239114463
0.0022115537
-4.630094632e-05
-0.002417519509
4.70193925e-05
0.001205227255
0.001211573807
1.415198933e-05
-0.0006012325583
-1.398903157e-05
0.0006010696006
3.819664502e-05
-0.0002993366988
-3.762729842e-05
0.0005987034996
-0.0002999361474
-0.001199269305
0.0001471500002
-0.000302163356
0.002405556315
-0.001205284982
0.0001540113283
0.0003153316271
-0.002268809283
-0.0002951363318
0.002128554744
0.0001462889068
-0.001562264034
-0.000139597384
0.001333250554
5.386774344e-05
-0.0006473736423
-5.20142589e-05
0.0004488290722
-5.145523344e-05
6.55082476e-06
-5.252249054e-06
5.090071163e-06
0
0
0
0
0
0
0
0
0
0
0
0
0
0
0
0
0
0
0
0
0
0
0
0
0
0
0
0
0
0
0
0
0
-2.312505105e-05
0
1.880813022e-05
7.833791693e-05
7.230035266e-05
-0.0001572168519
-0.0003537105958
0.0001520459131
0.0005532874788
-0.000398437326
-0.001294792206
0.0003927347873
0.001553807996
-0.0003078749284
-0.002212591267
0.0003103771411
0.002361598062
-4.254033134e-05
-0.002521587058
4.254033136e-05
0.00125785601
0.001263731048
1.591124708e-05
-0.00125785601
-3.365318841e-05
1.774194134e-05
0.000627827916
0.0006300280935
9.224005931e-05
-0.00062782799
-9.223994823e-05
0.001257856009
-0.0006300281306
-0.002521587058
0.0003082942488
-0.0003057347459
0.002513629897
0.0002614306075
-0.002207280716
-0.000251400886
0.002036872432
0.0001209968646
-0.001369998639
-0.0001046623844
0.001125407132
4.168033826e-05
-0.0004566639038
-4.102173298e-05
0.0002939830807
-7.209281266e-06
1.118391285e-06
-5.141876753e-07
0
0
0
0
0
0
0
0
0
0
0
0
0
0
0
0
0
0
0
0
0
0
0
0
0
0
0
0
0
0
0
0
0
0
-1.145623755e-05
0
4.095911395e-06
3.695001325e-05
2.325140029e-05
-0.0001160397241
-0.000261778421
9.919027256e-05
0.000442552938
-0.0003464002234
-0.001164087958
0.0003214252473
0.001429202388
-0.0003166622759
-0.002141164857
0.0003141715837
0.002319407136
-6.339092785e-05
-0.002609475471
8.14157176e-05
0.002628493923
3.365318839e-05
-0.002625584189
-7.463110179e-05
0.002625584189
4.097791337e-05
0.0001918026385
-0.002625584189
-0.0001918026385
0.002625584189
0.0002866309874
-0.002575411361
-0.0002740965368
0.002499026118
0.0002059287745
-0.00204700883
-0.0001902765335
0.001834853503
7.901205776e-05
-0.001112071415
-7.371291472e-05
0.0008709327185
2.807284008e-05
-0.000268211931
-2.236719342e-05
0.0001400596789
0
0
0
0
0
0
0
0
0
0
0
0
0
0
0
0
0
0
0
0
0
0
0
0
0
0
0
0
0
0
0
0
0
0
0
0
0
-9.842853125e-08
0
0
2.064604793e-07
0
-4.609970315e-05
-9.068586531e-05
3.074705972e-05
0.0002051383557
-0.0002243032509
-0.0007674430134
0.0001877467522
0.00100111219
-0.0002781061871
-0.00170682061
0.0002555319511
0.001914147158
-0.0001217882243
-0.002374052325
0.0001275461642
0.002468975715
5.709594492e-05
-0.002610683549
-4.481657376e-05
0.002622615995
0.000178927464
-0.002578306855
-0.000163446832
0.002532473271
0.0002149403092
-0.002262941028
-0.0001893180496
0.002123604374
0.0001352699852
-0.001575391379
-0.0001163079648
0.00136309387
5.445875356e-05
-0.0007198938443
-4.724146258e-05
0.0005256509814
1.077080446e-05
-9.738211256e-05
-6.787698757e-06
2.682634906e-05
0
0
0
0
0
0
0
0
0
0
0
0
0
0
0
0
0
0
0
0
0
0
0
0
0
0
0
0
0
0
0
0
0
0
0
0
0
0
0
0
0
0
-2.851121764e-06
-2.067538052e-07
4.498320839e-07
1.566453227e-05
-8.422890552e-05
-0.0002760264901
5.633736842e-05
0.0004223127607
-0.0001653373677
-0.000947785598
0.0001323830735
0.001127392754
-0.0001169739768
-0.001592552008
0.0001052260957
0.001709432527
5.187393747e-06
-0.001920232032
5.223919098e-06
0.00194321923
9.69109786e-05
-0.001875458571
-7.388586252e-05
0.001808974326
0.0001087610405
-0.001490554664
-8.464007766e-05
0.001350857306
6.493014743e-05
-0.0008741376629
-5.064834273e-05
0.000709933144
2.427010635e-05
-0.0002696628792
-1.674916934e-05
0.0001579743053
1.123344174e-07
-6.859136477e-07
0
0
0
0
0
0
0
0
0
0
0
0
0
0
0
0
0
0
0
0
0
0
0
0
0
0
0
0
0
0
0
0
0
0
0
0
0
0
0
0
0
0
0
0
0
0
0
0
-5.760790126e-06
-7.101635393e-06
8.522153055e-07
3.315918274e-05
-4.647450629e-05
-0.0002330427274
2.636437798e-05
0.0003249182188
-5.716881369e-05
-0.0006071390411
4.071214456e-05
0.0006888137848
-1.845560307e-05
-0.0008527929605
1.701573852e-05
0.0008747066921
2.208949976e-05
-0.0008362247441
-1.237576848e-05
0.0007909440813
3.111326124e-05
-0.0005805899673
-1.991381626e-05
0.0004938825821
1.742241723e-05
-0.0002285449241
-9.685552992e-06
0.0001509054755
1.004108444e-06
-8.744041255e-06
-2.913432646e-09
9.444331407e-08
0
0
0
0
0
0
0
0
0
0
0
0
0
0
0
0
0
0
0
0
0
0
0
0
0
0
0
0
0
0
0
0
0
0
0
0
0
0
0
0
0
0
0
0
0
0
0
0
0
0
0
0
0
0
-1.29011214e-07
0
0
1.191612769e-06
-5.421762961e-06
-3.276110904e-05
8.409303609e-07
5.079194421e-05
-5.048306444e-06
-9.885607687e-05
1.761271022e-06
0.0001072221427
8.13248345e-07
-9.920991385e-05
-1.637374673e-07
8.6414081e-05
1.925385178e-06
-3.426227679e-05
-1.635834999e-07
1.888456318e-05
0
0
0
0
0
0
0
0
0
0
0
0
0
0
0
0
0
0
0
0
0
0
0
0
0
0
0
0
0
0
0
0
0
0
0
0
0
0
0
0
0
0
0
0
0
0
0
0
0
0
0
0
0
0
0
0
0
0
0
0
0
0
0
0
0
0
0
0
0
0
0
0
0
0
0
0
0
0
0
0
0
0
0
0
0
0
0
0
0
0
0
0
0
0
0
0
0
0
0
0
0
0
0
0
0
0
0
0
0
0
0
0
0
0
0
0
0
0
0
0
0
0
0
0
0
0
0
0
0
0
0
0
0
0
0
0
0
0
0
0
0
0
0
0
0
0
0
0
0
0
0
0
0
0
0
0
0
0
0
0
0
0
0
0
0
0
0
0
0
0
0
0
0
0
0
0
0
0
0
0
0
0
0
0
0
0
0
0
0
0
0
0
0
0
0
0
0
0
0
0
0
0
0
0
0
0
0
0
0
0
0
0
0
0
0
0
0
0
0
0
0
0
0
0
0
0
0
0
0
0
0
0
0
0
0
0
0
0
0
0
0
0
0
0
0
0
0
0
0
0
0
0
0
0
0
0
0
0
0
0
0
0
0
0
0
0
0
0
0
0
0
0
0
0
0
0
0
0
0
0
0
0
0
0
0
0
0
0
0
0
0
0
0
0
0
0
0
0
0
0
0
0
0
0
0
0
0
0
0
0
0
0
0
0
0
0
0
0
0
0
0
0
0
0
0
0
0
0
0
0
0
0
0
0
0
0
0
0
0
0
0
0
0
0
0
0
0
0
0
0
0
0
0
0
0
0
0
0
0
0
0
0
0
0
0
0
0
0
0
0
0
0
0
0
0
0
0
0
0
0
0
0
0
0
0
0
0
0
0
0
0
0
0
0
0
0
0
0
0
0
0
0
0
0
0
0
0
0
0
0
0
0
0
0
0
0
0
0
0
0
0
0
0
0
0
0
0
0
0
0
0
0
0
0
0
0
0
0
0
0
0
0
0
0
0
0
0
0
0
0
0
0
0
0
0
0
0
0
0
0
0
0
0
0
0
0
0
0
0
0
0
0
0
0
0
0
0
0
0
0
0
0
0
0
0
0
0
0
0
0
0
0
0
0
0
0
0
0
0
0
0
0
0
0
0
0
0
0
0
0
0
0
0
0
0
0
0
0
0
0
0
0
0
0
0
0
0
0
0
0
0
0
0
0
0
0
0
0
0
0
0
0
0
0
0
0
0
0
0
0
0
0
0
0
0
0
0
0
0
0
0
0
0
0
0
0
0
0
0
0
0
0
0
0
0
0
0
0
0
0
0
0
0
0
0
0
0
0
0
0
0
0
0
0
0
0
0
0
0
0
0
0
0
0
0
0
0
0
0
0
0
0
0
0
0
0
0
0
0
0
0
0
0
0
0
0
0
0
0
0
0
0
0
0
0
0
0
0
0
0
0
0
0
0
0
0
0
0
0
0
0
0
0
0
0
0
0
0
0
0
0
0
0
0
0
0
0
0
0
0
0
0
0
0
0
0
0
0
0
0
0
0
0
0
0
0
0
0
0
0
0
0
0
0
0
0
0
0
0
0
0
0
0
0
0
0
0
0
0
0
0
0
0
0
0
0
0
0
0
0
0
0
0
0
0
0
0
0
0
0
0
0
0
0
0
0
0
0
0
0
0
0
0
0
0
0
0
0
0
0
0
0
0
0
0
0
0
0
0
0
0
0
0
0
0
0
0
0
0
0
0
0
0
0
0
0
0
0
0
0
0
0
0
0
0
0
0
0
0
0
0
0
0
0
0
0
0
0
0
0
0
0
0
0
0
0
0
0
0
0
0
0
0
0
0
0
0
0
0
0
0
0
0
0
0
0
0
0
0
0
0
0
0
0
0
0
0
0
0
0
0
0
0
0
0
0
0
0
0
0
0
0
0
0
0
0
0
0
0
0
0
0
0
0
0
0
0
0
0
0
0
0
0
0
0
0
0
0
0
0
0
0
0
0
0
0
0
0
0
0
0
0
0
0
0
0
0
0
0
0
0
0
0
0
0
0
0
0
0
0
0
0
0
0
0
0
0
0
0
0
0
0
0
0
0
0
0
0
0
0
0
0
0
0
0
0
0
0
0
0
0
0
0
0
0
0
0
0
0
0
0
0
0
0
0
0
0
0
0
0
0
0
0
0
0
0
0
0
0
0
0
0
0
0
0
0
0
0
0
0
0
0
0
0
0
0
0
0
0
0
0
0
0
0
0
0
0
0
0
0
0
0
0
0
0
0
0
0
0
0
0
0
0
0
0
0
0
0
0
0
0
0
0
0
0
0
0
0
0
0
0
0
0
0
0
0
0
0
0
0
0
0
0
0
0
0
0
0
0
0
0
0
0
0
0
0
0
0
0
0
0
0
0
0
0
0
0
0
0
0
0
0
0
0
0
0
0
0
0
0
0
0
0
0
0
0
0
0
0
0
0
0
0
0
0
0
0
0
0
0
0
0
0
0
0
0
0
0
0
0
0
0
0
0
0
0
0
0
0
0
0
0
0
0
0
0
0
0
0
0
0
0
0
0
0
0
0
0
0
0
0
0
0
0
0
0
0
0
0
0
0
0
0
0
0
0
0
0
0
0
0
0
0
0
0
0
0
0
0
0
0
0
0
0
0
0
0
0
0
0
0
0
0
0
0
0
0
0
0
0
0
0
0
0
0
0
0
0
0
0
0
0
0
0
0
0
0
0
0
0
0
0
0
0
0
0
0
0
0
0
0
0
0
0
0
0
0
0
0
0
0
0
0
0
0
0
0
0
0
0
0
0
0
0
0
0
0
0
0
0
0
0
0
0
0
0
0
0
0
0
0
0
0
0
0
0
0
0
0
0
0
0
0
0
0
0
0
0
0
0
0
0
0
0
0
0
0
0
0
0
0
0
0
0
0
0
0
0
0
0
0
0
0
0
0
0
0
0
0
0
0
0
0
0
0
0
0
0
0
0
0
0
0
0
0
0
0
0
0
0
0
0
0
0
0
0
0
0
0
0
0
0
0
0
0
0
0
0
0
0
0
0
0
0
0
0
0
0
0
0
0
0
0
0
0
0
0
0
0
0
0
0
0
0
0
0
0
0
0
0
0
0
0
0
0
0
0
0
0
0
0
0
0
0
0
0
0
0
0
0
0
0
0
0
0
0
0
0
0
0
0
0
0
0
0
0
0
0
0
-0.0009969352324
0.0009969770911
3.049019695e-05
-0.0001472648571
0.0009996481537
0.0001478287784
-0.000501797844
-0.000498414231
0.0001564731242
-0.0009652649255
-0.0001522738748
-0.001043303128
3.085968812e-05
0.0005210163537
0.000522045645
-0.0001433038645
0.001050615952
0.000143838341
-0.0005263115537
-0.0005248388753
-0.0001455501819
-0.0005056252629
-0.0005038491813
-0.001095816765
3.057399414e-05
0.0005471530788
0.0005485128068
-0.0001421739501
0.001098683616
0.0001414741244
-0.0005495834893
-0.0005484003012
-0.0001429214523
-0.000528255968
-0.0005279843935
-0.001147191319
3.028681865e-05
0.0005727378849
0.0005742460374
-0.0001394239373
0.001146808645
0.000140172194
-0.001147556901
-0.001106576532
-0.0001416416104
-0.0006001803756
0.000600185619
1.414674592e-05
0.0002995585841
-1.862292476e-05
1.873394074e-05
-0.0002996696001
-0.0002991400175
0.0005979825148
3.891273188e-05
-0.0001387800485
0.001194409914
0.0001387322018
-0.001194362068
-0.001154088529
-0.000139088213
-0.0006267947048
0.0006267947048
1.591124707e-05
0.0006267949107
-4.337418571e-05
4.337472089e-05
-0.0006267954459
-0.0002997238669
-1.823575671e-05
0.001251392234
-0.0005692799003
1.292813189e-05
2.399450418e-05
-0.0002552892792
0.002463239562
-0.001247057303
-0.001233106173
0.0001333507452
0.0001388624491
-0.001199217176
-0.0001388321779
-0.0009628040955
0.0009623344156
2.729379034e-05
8.426840734e-05
-0.0008869883326
-8.411590808e-05
0.0009593146115
0.0001548679996
-0.0009577094869
0.0001634923308
-0.0009084906288
-0.000170982345
-3.001112142e-05
0.0002470138629
3.009436043e-05
-0.0002470971019
0.000487129155
6.628636504e-05
-0.000488490532
-6.492498796e-05
0.0009992358547
0.0001536368791
-0.0004001922186
0.001987456905
0.0004026099461
-0.001990429498
0.0004010919874
-0.001915848135
-0.0003992218341
-0.002075010243
0.002081309856
-5.186077295e-05
-2.338985174e-05
2.343440084e-05
-0.001043347677
2.332675407e-05
-0.001001829861
-2.342015555e-05
-3.344908564e-05
0.0002570213126
3.327186087e-05
-0.0002568440879
3.00026425e-05
0.0002519103305
-0.0002519422889
-2.997068416e-05
0.001050337511
0.0001513626886
-0.0003968987336
0.002090637239
0.0003978897993
-0.002091735802
-0.002017950343
-0.0003992444552
-0.002182737504
0.002185850087
-4.90898935e-05
-2.332475215e-05
2.336884519e-05
-0.001095860858
-0.001049748988
-2.334381243e-05
-3.037048834e-05
-0.001070407314
3.04229771e-05
0.0005342707754
0.00053608405
-2.686410147e-05
0.0002683077404
2.6768906e-05
-0.0005361098459
0.000267897301
2.689194153e-05
0.0002612252421
-0.0005234451276
-2.66766552e-05
0.0002620045991
-2.90826104e-05
0.0002698308224
2.924704261e-05
-0.0002699952546
3.088906401e-05
0.0002633785878
-0.0002626842471
-3.158340474e-05
0.001098738226
0.0001494202545
-0.0003888906292
0.002180578869
0.0003923345191
-0.002188160099
-0.002113458098
-0.0003957398616
-0.00228742115
0.002288224407
-4.695521842e-05
-2.318705973e-05
2.322877713e-05
-0.001147233036
-0.001102374497
-2.333116017e-05
-3.064103008e-05
-0.001121825238
3.042773971e-05
0.0005602887728
0.0005617497557
-1.372985838e-05
0.0002809672891
1.382420374e-05
-0.0002810616345
2.638291702e-05
0.0002748459426
-0.000550262705
-2.641119019e-05
0.0002754450355
-5.605583215e-05
0.0005622379288
5.629074501e-05
-0.0005624728416
5.719910776e-05
0.0005524649753
-5.600736838e-05
-0.0002773233839
-0.0002763333308
-0.002391884705
-4.660169598e-05
0.001192863398
0.001199322057
-2.299062384e-05
0.0005990693461
2.313033804e-05
-0.001199389436
-0.001154012549
-2.314626672e-05
-1.417420544e-05
-0.0005878127035
0.000587869857
1.411705188e-05
-1.563729811e-05
0.0002948435876
1.522804229e-05
-0.0002944343318
1.471112894e-05
0.0002871405029
-0.0002873443204
-1.450731143e-05
-0.000296430886
-2.107627065e-05
0.0002954506246
2.20565321e-05
-5.481638474e-05
0.0005870819117
5.467193791e-05
-0.0005869374649
5.558540608e-05
0.0005763067045
-0.0005763030742
-5.558903642e-05
-0.002459287243
-4.132792134e-05
0.001206682599
0.001251392234
-2.633140053e-05
0.0006245975295
2.633140054e-05
-0.001251392234
0.0006040177035
-0.001205233031
-2.300785424e-05
-1.418058592e-05
-0.0006131254816
0.0006130694342
1.423663335e-05
-1.399559279e-05
0.0003039583754
1.50597522e-05
-0.0003050225348
1.632841257e-05
0.0002984413218
-0.0002990032837
-1.576645071e-05
-0.001303096432
0.001303096432
3.365318841e-05
0.001303096432
-8.491670779e-05
8.491670777e-05
-0.001303096432
-0.0006278282865
-4.337388921e-05
2.871555849e-05
-0.0004893266209
-2.833658663e-05
0.0002439845417
0.0002449631073
-2.917271089e-05
-0.0004989071484
2.905055578e-05
0.0002496970491
0.0002493322544
-0.000486925845
1.981520226e-05
-1.877583095e-05
0.0004858864737
-0.0004890478254
0.0004894199768
2.834340714e-05
0.0002515828665
2.997262963e-05
-0.0002515528537
0.0002466904252
-0.000246917508
-2.97840386e-05
0.0001495964819
0.0009844078053
-0.0001485120326
-0.0004944778334
-0.0004910144213
6.334052595e-05
-0.0002464652669
-6.243872867e-05
0.0004922538948
-3.042045908e-05
0.000251601731
3.040159464e-05
0.0002607145007
2.714960168e-05
-0.0005218366805
0.0002608645197
0.0005114023176
2.689876881e-05
-0.0005114574647
-2.684362171e-05
3.066491897e-05
-0.001025170693
-3.06180834e-05
0.001025123857
2.872701216e-05
-2.836058811e-05
0.0002553671602
0.0002556687334
-1.426643803e-05
0.0002607061229
1.427481578e-05
-0.0004998597792
-2.893623859e-05
0.0002495862909
0.000250037016
-0.0005102965564
2.867157686e-05
0.0002551284641
0.0002552235276
0.0002625113508
3.014082552e-05
-0.0002617631123
0.0002583175345
-0.0002579771129
-3.378950724e-05
7.331539211e-05
0.0005160638923
-0.0005161740944
-7.320518993e-05
3.329048991e-05
-3.33587343e-05
0.0002583857789
-3.077742878e-05
0.0002629544063
3.03343732e-05
-3.037849244e-05
0.0002518683639
0.0002572075515
3.310425111e-05
0.0005137300744
7.332351323e-05
-0.0005137381956
0.0002742969269
2.663515637e-05
-0.0005483289029
0.0002737797366
0.0002689903211
-0.0005381556907
-2.709961146e-05
0.0002694008796
-0.001077274217
-3.062173541e-05
0.0005380537339
0.0005394717302
1.460409663e-05
-1.468229653e-05
0.000269068521
-1.374654064e-05
0.0002742031464
1.384032112e-05
-1.419671632e-05
0.0002611555204
0.0002685188364
1.439300055e-05
0.0005501486197
5.710008923e-05
-0.0002752255456
-0.0002748240556
0.0002700634434
-0.0002700135537
-2.913250013e-05
0.000141562192
0.001079687691
-0.0001416875349
-0.0005401619545
-0.0005394003931
5.951378615e-05
-0.0002696675585
-5.907909075e-05
0.0005392963065
-5.887707897e-05
0.0005500692415
5.895645717e-05
-3.121115783e-05
0.0002638123168
-0.0002690118296
0.0005382162087
2.972034104e-05
3.041988844e-05
0.00107376776
0.0001424886119
-0.0005380406522
-0.0005366535278
0.0002867668387
1.484478358e-05
-0.0002869004933
0.0002813189673
-0.0002813656542
-1.368317142e-05
-0.001127448642
-3.027945417e-05
0.0005629982035
0.0005640888627
1.447209863e-05
-1.42263462e-05
0.0002810732149
-1.60016515e-05
0.0002864613608
1.630712936e-05
-1.372390545e-05
0.0002748233075
0.000280826827
1.461256073e-05
0.0005750659584
5.565192627e-05
-0.0005751324786
0.0005642671176
-0.0005642628027
-5.606014705e-05
0.0002995666549
1.668346193e-05
-0.0002999217043
0.0002944402239
-0.0002945831227
-1.549439936e-05
-0.0005892648181
-1.41782191e-05
0.0005892688318
1.864634443e-05
0.0002945081546
-0.0002933984996
-1.975599943e-05
1.693366508e-05
-1.665585048e-05
0.0002941624093
-1.630999872e-05
0.0002988287139
1.704793971e-05
-1.562369164e-05
0.000286762543
0.0002951543074
1.662294521e-05
2.048931246e-05
-0.0002982738541
-0.0001081356796
0.001193735099
0.000107846425
-0.0005971375029
-0.0005963083412
0.0005881384952
-0.0005879521861
-5.500269389e-05
-2.106456522e-05
0.0002944964492
0.0006320712195
-2.691809368e-05
-0.0006290592652
1.119233163e-05
1.27138077e-05
0.0003043067238
-0.0003049748517
-1.332746484e-05
-0.0006145055684
-1.406777379e-05
0.0006143927563
3.167428263e-05
0.0006059774409
-0.0006064127778
-3.123894576e-05
1.145531052e-05
-1.109830284e-05
0.0003039497161
-3.047793262e-05
0.0006322697749
1.308506431e-05
1.719431297e-05
-1.556915715e-05
0.0002977004803
1.221870686e-05
0.0003031949791
0.0006048166737
3.250719435e-05
-0.0006056495854
-0.001973910211
0.001985492434
-5.642665747e-05
2.323703204e-05
-0.0009968455104
1.991657312e-05
-0.0009684038724
-2.12158401e-05
-2.938263641e-05
-0.0009772214639
0.0009771285254
2.947557496e-05
-2.671298844e-05
2.664999576e-05
-0.0004889848327
2.420601153e-05
-0.0004883431789
-2.278867769e-05
-5.036820974e-05
0.0002416413744
1.21171228e-05
-0.0002033902875
0.0002500858139
3.276344153e-05
-0.0002534926833
-2.935657214e-05
-0.001019271051
0.001019364465
3.057150458e-05
2.691634128e-05
-0.0005103141288
2.697293342e-05
-0.0004998603727
-2.697233992e-05
-0.0001007291207
0.0002815335567
4.844829707e-05
-0.000229252733
0.001146472854
0.0001480259359
-0.0003698887774
0.002253084545
0.0003765465004
-0.002287373145
-0.002214031461
-0.0003862973279
-9.908817359e-05
0.0002920087134
4.437242898e-05
-0.0002372929688
-4.75024302e-05
0.0005809933934
4.79224773e-05
-0.0002908855177
-0.0002905279228
2.430384829e-05
0.000288023256
-0.000287973415
-2.43536893e-05
-3.593106078e-05
0.0006044513313
3.629640318e-05
-0.0001143760051
0.001214636353
0.0001115984931
-0.001211858841
0.001198857314
-0.0001085197917
-0.0005997724726
-0.0005987007293
2.695344912e-05
-0.0004988876641
-0.0004893547071
-2.668490216e-05
-0.0009777517583
-3.000725822e-05
0.0009783763801
1.513686551e-05
-0.0002461623445
-1.550031393e-05
0.000246525793
-0.0002509705827
8.296026764e-06
-1.161186537e-05
0.0002542864213
-0.0002453319208
-1.468892137e-05
0.0002454944362
1.452640591e-05
7.109010792e-05
-6.69798191e-05
0.0004830188661
-0.0002457390321
0.0004917177409
6.437568e-05
0.0009773809204
0.0001477458923
-0.0004888348128
-0.000486695518
0.0002881464012
2.454269491e-05
-0.0002883852478
2.790572485e-05
0.0002856624222
-0.0002866011282
-2.696701881e-05
0.0001410589769
0.001128303133
-0.001128707348
-0.0001406547615
5.829645986e-05
-5.807436489e-05
0.0005640450227
-5.763551738e-05
0.0005749111461
5.779032967e-05
-5.850872642e-05
0.0005520966227
0.0005622524662
5.828192238e-05
0.001123532227
0.0001411981048
-0.001123671355
2.204311561e-05
0.000297948314
-0.0002990915712
-2.089985841e-05
-0.0002999903921
-2.089849982e-05
0.0003000730663
2.081582562e-05
-3.37040091e-05
0.0006017558213
3.39515138e-05
-0.0003008716735
-0.0003011316525
0.0004557186518
4.258331703e-05
-0.0004557429474
-4.255902145e-05
-0.0009780285333
3.899562051e-05
-5.820766101e-06
-1.634599401e-05
0.0004759790412
0.0004852206317
-0.0004810283862
0.0004906818633
1.016172511e-05
0.0004844395129
6.700590189e-05
-0.0004851590498
0.0009621554236
0.0001509339367
-0.0004834095374
-0.0004621617632
-7.568573558e-05
-9.18323241e-05
5.448590778e-05
-5.528324704e-05
0.000456515991
0.000303916199
-0.0003542844088
6.2361755e-05
0.0004901369472
-6.141079332e-05
-0.0002455527426
-0.0002455351664
3.180725329e-05
2.461638537e-05
0.0002474925604
3.029199853e-05
-2.86316516e-05
0.0002484254669
0.0002470005477
2.644808002e-05
0.000486841223
6.085368789e-05
-0.0002432202248
-0.000242112931
2.894976332e-05
0.0002544725038
-0.0002545004057
-2.892186149e-05
0.0002545859522
2.908251382e-05
-0.0002547187027
2.868463609e-05
0.0002675047728
-0.000267350048
-2.883936097e-05
0.0002679915476
2.910787876e-05
-0.0002684147902
0.0002808658305
-2.798405659e-05
2.570122404e-05
-0.000278582998
0.0002867478748
-0.0003672356747
-2.024132081e-05
5.6635455e-05
0.0005573325649
-0.0005573157972
-5.665222267e-05
3.118495649e-05
-2.675517032e-05
0.0002823180886
-2.823163763e-05
0.0002815062164
2.759125175e-05
2.786820112e-05
-4.797391126e-05
0.0002726420976
-0.0002525363875
0.0002797470844
3.297142872e-05
0.0005561725602
5.669842089e-05
-0.0002782334727
-0.0002780020534
0.0002908703945
1.287387887e-05
-0.0002910676349
-1.267663845e-05
2.100587581e-05
-0.0005823759142
-2.094608771e-05
0.0005823161261
-2.0945245e-05
-0.0005877639126
0.0005878170163
2.089214127e-05
-4.641054539e-05
0.0005868013154
4.661641278e-05
-0.0005870071828
0.0005823693144
-4.706108165e-05
-0.0002916983848
-0.0002911122782
-0.0003800646139
-1.681241975e-05
0.0002977888601
1.09934981e-05
0.0003028168358
-0.0003034514047
-1.035892927e-05
2.053212099e-05
-0.000608025833
-2.048707062e-05
0.0006079807826
-2.04909876e-05
-0.0006130092852
2.078657715e-05
0.0003061389411
0.0003065747546
2.077268303e-05
-0.0006009603598
-2.058887477e-05
0.0006007765515
-0.0006063553123
0.000606286309
2.060112429e-05
0.0003013448556
1.176598088e-05
-0.0003021173384
-0.0002527600394
1.319068715e-05
-8.226911859e-05
0.0003218384709
-0.000244647707
1.545322767e-05
0.0002443313448
-2.844713191e-05
-0.0004936969592
2.866136487e-05
0.0002461756423
0.000247307084
-1.673273688e-05
1.744742235e-05
-0.0002453623924
1.698876766e-05
-0.0002494483946
-2.030041254e-05
-1.98455256e-05
3.583439522e-05
-0.0002504843676
0.000234495498
-0.0002467317565
-1.616332488e-05
-0.0004957552252
-2.897312304e-05
0.0002482240114
0.0002480572049
-2.722168258e-05
-0.0004917767345
0.0004920994213
2.689899575e-05
-1.625324025e-05
1.651181288e-05
-0.0002455904934
2.678770564e-06
-0.0002434874949
-1.016185836e-05
0.0002487626256
1.576139158e-05
-0.0002475352495
0.0002456484154
-0.0002455233799
-1.63782757e-05
-0.0004895163434
-2.754059384e-05
0.0004898352547
-1.632699584e-05
0.0002472864898
0.0002482519741
1.370133862e-05
3.045161708e-05
0.0002495674042
-0.0002490751372
-3.094388407e-05