/*--------------------------------*- C++ -*----------------------------------*\
| =========                 |                                                 |
| \\      /  F ield         | OpenFOAM: The Open Source CFD Toolbox           |
|  \\    /   O peration     | Version:  v1912                                 |
|   \\  /    A nd           | Website:  www.openfoam.com                      |
|    \\/     M anipulation  |                                                 |
\*---------------------------------------------------------------------------*/
FoamFile
{
    version     2.0;
    format      ascii;
    class       surfaceScalarField;
    location    "0.65";
    object      phi;
}
// * * * * * * * * * * * * * * * * * * * * * * * * * * * * * * * * * * * * * //

dimensions      [0 3 -1 0 0 0 0];
oriented        oriented;


internalField   nonuniform List<scalar> 
25162
(
0.0004401266966
0.9162098733
0.0005549939673
0.9165851327
0.0006720104467
0.9165329835
0.0003357292845
0.9165336903
0.0004525909042
0.4583353509
0.0003503784138
0.4582934138
0.0004474534048
-0.0004408672213
-0.0005687572053
0.4582613264
0.0006574308522
-0.0007457638353
0.4582028398
0.0008779240274
-0.00102358468
0.458170856
0.001182728649
-0.001363184594
0.4581419338
0.001556250821
-0.001750595085
0.4581449355
0.0019406596
-0.002123426027
0.4581866471
0.002268278955
-0.002374311263
0.458274459
0.002433352238
-0.002441703218
0.4583780224
0.002398680825
-0.002309727978
0.458465602
0.002174125977
-0.002015864072
0.4585078443
0.001843019802
-0.001654445338
0.4585116567
0.00147778859
-0.001303928538
0.4585098494
0.00110907912
-0.001014334978
0.4584758965
0.0008884384679
-0.0007324047837
0.458475902
0.0006065028407
-0.001560591104
0.9187424029
2.504564819e-05
-0.0005568574404
-0.0009817254142
0.9187711343
4.296583005e-05
0.9158253088
0.9138429658
0.001208676606
0.9150011967
0.001937736019
0.9158560733
0.002265268326
0.9162054512
0.0007321206522
0.916925812
0.001141025957
0.458001907
0.0008914311159
-0.4581612175
-0.4581212187
-0.001115171898
0.4578395564
0.001396834174
-0.4579423265
-0.001746408065
0.4575202016
0.001018500644
0.001150032292
-0.2288927198
-0.001241863492
0.2287822084
0.001352374873
-0.001823877745
-0.2288115463
0.2286642587
0.001971165314
-0.002564901109
-0.2287442598
0.2285567011
0.002752459871
-0.003426620061
-0.2287344797
0.22853436
0.003626739727
-0.004242036874
-0.2288221709
0.2287098396
0.00435430958
-0.004104796596
-0.2290217027
0.228805966
0.004320632078
-0.004971762027
-0.2292456423
0.2292249735
0.004992430823
-0.00468931196
-0.2293941731
0.2295062203
0.004577264688
-0.004056540453
-0.2294775028
0.2296653891
0.003868654153
-0.003269999954
-0.2294842081
0.2296959552
0.003058252836
-0.002501116203
-0.2294382237
0.2296273288
0.002312011142
-0.4589579385
-0.003567915785
0.4604909461
0.002034908157
-0.0006422383501
0.461069553
-0.001112099625
-0.459315215
-0.001263428943
0.9185001522
0.0001193361453
0.001386343477
-0.0007893470923
0.9182970525
0.0004445430561
0.9145914186
0.9142875089
0.001522284984
0.9134789117
0.004101096082
0.9132772622
0.007005683733
0.9133008636
0.002982316366
0.9145080359
0.00644114344
-0.4578843394
0.4576411589
0.003225496859
-0.4575570018
-0.003303660444
0.4580828915
0.00277777072
-0.4569455993
-0.003013026566
0.4565261796
0.001661116051
0.001771330247
-0.2282429603
-0.002072531875
0.2280083093
0.002307182819
-0.2279320777
-0.00314788589
0.2276068356
0.003473128026
-0.2277359603
-0.003650824273
0.2321584282
-0.0007783816524
-0.2363967697
0.01589254598
0.2404538851
-0.01997998293
-0.2348937816
0.02879778013
0.2366461857
-0.03057191422
-0.2273968376
0.03245861387
0.2268959477
-0.03195331732
-0.2210094848
0.02711751387
0.2183472528
-0.02442797003
-0.2226090635
0.01316546542
0.2179142375
-0.008442938341
-0.2305521597
-0.006651466172
0.2299662978
0.007238611389
-0.2306063307
-0.006015581677
0.2310102957
0.005611616594
-0.004187623813
-0.2304882221
0.2312226276
0.003453218356
-0.4632544544
-0.0009302218768
0.4622677326
0.001916943684
-0.4602706471
-0.001899676777
0.4603929206
0.001777403283
0.0007168110647
0.9206098485
-0.001590243767
-0.001236263547
0.001928321444
0.9170855421
0.0008922313592
0.9156275087
0.9151797403
0.000493726792
0.9129851849
0.001120699873
0.9126502891
0.002423119131
0.9119984443
0.003328064571
0.91133532
0.002267770485
-0.4568029858
0.4562877341
0.00384331627
-0.4594867857
-0.00516929779
0.4562883814
0.008367702067
-0.4577831639
-0.009817649795
0.4590988537
0.002567524318
0.005934435718
-0.2271462567
-0.002696918068
0.2268588996
0.002984275188
-0.2288855229
-0.002430753901
0.2343433545
-0.003043913802
-0.2477425461
0.01828098095
0.2519173417
-0.02253024381
-0.2499062722
0.03185529975
0.2517454551
-0.0337713757
-0.2398197336
0.03644860583
0.2399192484
-0.03658735421
-0.2254311399
0.0358640664
0.2249906479
-0.03541088533
-0.2124465989
0.0334005159
0.2114662131
-0.03235958576
-0.2063527088
0.02708815255
0.2037663722
-0.02441619167
-0.2138709494
0.01335593286
0.209347983
-0.008766926733
-0.2348868246
-0.001985697162
0.2372064442
-0.0003310002033
-0.004615231597
-0.2323031117
0.2324052043
0.004513139007
-0.4624905599
-0.006854155684
0.4639616421
0.00538307347
-0.4612807657
-0.003951279911
0.4624532674
0.002778778182
0.003620072816
0.9210369763
-0.002131660145
-0.001915540526
0.002430732336
0.9182748826
0.001115047065
0.916943194
0.9162947873
4.645926782e-05
0.9129387257
0.0001874202077
0.9125093282
0.0005678667158
0.9116179978
0.001325997933
0.9101072902
0.0004698985906
-0.4559320106
0.4550279135
0.002230094992
-0.4546998585
-0.002782417256
0.4539044717
0.003577804127
-0.4527481542
-0.004658318879
0.451697718
0.003003929148
0.002704825893
-0.2272163823
-0.005017560737
0.2258039856
0.006428803009
-0.2489259325
0.002140867213
0.2545775109
-0.007883214226
-0.2599099993
0.01919893961
0.2609764255
-0.02039582209
-0.2521304343
0.01944631189
0.2504104141
-0.0178271967
-0.2364944938
0.01076586913
0.2339900257
-0.008302551618
-0.2238924227
0.003383215471
0.2236178901
-0.003093290038
-0.2124363674
0.006021644525
0.2143915932
-0.007904228764
-0.2011081231
0.0136785383
0.2021923934
-0.01463826781
-0.2110343456
0.02516333633
0.2036217251
-0.01761818465
-0.2169311432
0.005443533281
0.2133606293
-0.001800088247
-0.006477930725
-0.2341141547
0.2347900565
0.005802028941
-0.4658937178
-0.007840945481
0.4677644543
0.005970209046
-0.4635841941
-0.00458317373
0.4647558421
0.003411525706
0.004322110447
0.9233757274
-0.003685684195
-0.002975177347
0.002360758136
0.9202362349
0.001061488499
0.9182424636
0.9173562758
-0.0003268710604
0.9132655967
-0.0005160094246
0.9126984666
-0.0003818991932
0.9114838876
0.0001203125908
0.9095902416
1.48368476e-05
-0.4540805799
0.4536860336
0.0005148589389
-0.4532335525
-0.001583395612
0.4523195531
0.002497394958
-0.4505907244
-0.003250717265
0.4493018269
0.002261812105
0.002277802599
-0.233927569
-0.000365110537
0.236309921
-0.002065028697
-0.2568039877
0.007328764563
0.2574743351
-0.008146702985
-0.2592537962
0.004805992154
0.2555931068
-0.001305009172
-0.2396597425
-0.01202334132
0.2385326194
0.01305999945
-0.2220678958
-0.03053174939
0.2177268728
0.03485263751
-0.2228104943
-0.04634172235
0.2224446769
0.04671053878
-0.2271682485
-0.03445967458
0.2319827637
0.02968629113
-0.2173921647
-0.008269365371
0.2198249461
0.005961915683
-0.200397561
-0.0002125211989
0.2021199964
-0.001340990766
-0.2070214977
0.002227601147
0.2063873301
-0.001458082152
-0.003804343698
-0.2338359089
0.2324376213
0.005220773585
-0.4694482755
-0.007854419331
0.4711452525
0.006157442329
-0.4655246622
-0.004911451491
0.4662298564
0.004206257321
0.003439814919
0.9260230301
-0.002902270494
-0.003184847082
0.001841461248
0.9218345886
0.0007509985615
0.9193329263
0.9181072744
-0.0008665800691
0.9141321768
-0.00156936307
0.9134012496
-0.002053244186
0.9119677687
-0.0004961857008
0.9093930477
-0.001359864625
-0.4535232862
0.453174118
-0.0001470174928
-0.4511462491
-0.0001451821611
0.450681367
0.000610064233
-0.4486825415
-0.001723541107
0.4482262962
0.001142786008
0.001036353626
-0.2398481249
0.001046605864
0.2404926298
-0.001780886437
-0.258553251
0.001690342998
0.2543232208
0.002354402944
-0.2465044447
-0.007482682235
0.2434858078
0.01034182313
-0.2183968862
-0.02319744042
0.2114602939
0.0300804391
-0.2031206953
-0.05275562247
0.1026930095
0.0967428954
0.02606174386
0.03037866896
-0.03724691168
-0.1085443832
0.1079872179
0.03780407702
-0.03012229852
-0.2534153149
0.05665886447
-0.03045700425
0.1283128867
0.1290228665
-0.03707979188
-0.2336932444
0.2402155315
0.03063956116
-0.210950733
-0.01686230314
0.215932453
0.01205778229
-0.2088052675
-0.00309764869
0.209846305
0.002230040309
-0.002217559229
-0.2271411004
0.2264763602
0.002948781285
-0.4728179751
-0.006328794433
0.4739084822
0.005238287292
-0.4673448269
-0.003914006328
0.468406467
0.002852366166
0.001690921613
0.9277981887
-0.001549524092
-0.00191655616
0.0007076797588
0.9228178304
0.000223807346
0.9198167987
0.9183310817
-0.001449754146
0.915581931
-0.002823359018
0.9147748545
-0.003958909933
0.9131033196
-0.002116248144
0.9103838968
-0.00283351087
-0.4531770519
0.4532047764
-0.002143972692
-0.4504649084
0.002219292557
0.4503667174
-0.002121101531
-0.4472127116
0.00193456187
0.4473818083
-0.0007959264641
-0.001317935886
-0.2398189045
-0.0002474084368
0.2389031215
0.001051554235
-0.2494153491
-0.004936520458
0.2476944112
0.006461951807
-0.2346572337
-0.01214311279
0.2324290535
0.01421634942
-0.1993817153
-0.02026703718
0.1975286039
0.02210183511
-0.08678576042
-0.01403717022
0.08641593428
0.01440699635
-0.036312461
-0.1434964983
0.1465998213
0.03320913801
-0.03974769255
-0.2601993066
0.2656210562
0.03436932328
-0.226745345
-0.0221230923
0.230202751
0.01883690096
-0.2155445079
-0.0106916212
0.2179155852
0.008513429294
-0.001757812611
-0.22711816
0.2275064286
0.001467258044
-0.4752976968
-0.003208736334
0.4763750545
0.002131378669
-0.4692121877
-0.001400799817
0.4698380122
0.0007749753107
-0.0009792495096
0.9284034724
0.0005505848212
-0.000176618976
-0.0009213479933
0.9227599289
-0.0005258880689
0.9194213388
0.9178051937
-0.002040262266
0.9176221932
-0.004000165355
0.9167347576
-0.006018042221
0.9151211965
-0.003569237248
0.9122276283
-0.004292536499
-0.4535186214
0.4538229947
-0.00387361055
-0.4505035031
0.004223394011
0.450835452
-0.004555342941
-0.4474765222
0.004882007025
0.4479005262
-0.002520992019
-0.002807120961
-0.2368225924
0.002145274457
0.235929779
-0.001379670098
-0.2419577066
-0.002385984756
0.2402017987
0.003934596202
-0.2268622057
-0.008380015816
0.2255774957
0.009509793302
-0.1966532058
-0.01072248387
0.1972999413
0.01006743671
-0.09033903006
-0.002681111043
0.09112912019
0.001891020908
-0.01598823447
-0.1597106342
0.1601112738
0.01558759487
-0.02364643449
-0.2772455737
0.2791351595
0.02178177414
-0.2398388896
-0.01546971512
0.2422307041
0.01324726764
-0.2246477374
-0.006788062753
0.2266673315
0.004975270632
-0.0009160350786
-0.2300740411
0.2309219556
0.0001804794735
-0.4775822369
0.001033337485
0.4784297976
-0.001880898202
-0.4700734658
0.002195851734
0.4701087293
-0.002231115154
-0.004149820596
0.9273085919
0.002956288756
0.002288412357
-0.002873456766
0.9214835651
-0.001476273545
0.9180241556
0.9163289201
-0.002593806695
0.9202159999
-0.005304292306
0.9194452432
-0.007966996702
0.9177839009
-0.005026170411
0.9150455441
-0.005758742044
-0.4544199955
0.4550150041
-0.005621178999
-0.451314904
0.006304916861
0.4520858437
-0.007075856572
-0.4484973808
0.007860585146
0.4494290839
-0.004182751097
-0.00464375346
-0.2333289706
0.003921331988
0.2325252441
-0.00325649499
-0.23544273
0.0001067575515
0.2340074223
0.00111063038
-0.2227427705
-0.004190673566
0.2220206545
0.004755086924
-0.2002439548
-0.004174797053
0.2013593269
0.003054570279
-0.09543939526
0.0007334762262
0.0959278525
-0.0005890862681
-0.0006328471898
0.003120808852
-0.1564223197
0.1552763417
-0.001974830827
-0.004385560459
-0.2788173757
0.2773289317
0.005901184383
-0.2464782288
-0.006560291757
0.2473244386
0.005887689145
-0.2320849273
-0.002562970708
0.2335554412
0.001303364138
0.001879824131
-0.2338996943
0.2347212082
-0.002587521465
-0.4781689346
0.006512001299
0.4773278894
-0.0056709561
-0.469702486
0.00523242147
0.4697513105
-0.00528124603
-0.007558953937
0.9244916508
0.005588995428
0.004786899587
-0.004941928804
0.9188665399
-0.002482065978
0.9155642927
0.9138468541
-0.003218536441
0.9234345364
-0.006444356611
0.9226710634
-0.009848046826
0.9211875911
-0.006420367236
0.9187097856
-0.007091921122
-0.4558786383
0.4567402503
-0.007281979269
-0.4529891477
0.008321012154
0.4540105582
-0.009342422659
-0.4506960865
0.01052361466
0.4521671565
-0.005892424636
-0.00615417284
-0.2302213579
0.005456491155
0.2294749746
-0.004862334885
-0.230027062
0.002126755934
0.2287882481
-0.001117048804
-0.2203433603
-0.001143483217
0.2199149722
0.001412287558
-0.2048674918
-8.377150633e-05
0.2060707356
-0.001121361213
-0.09882632162
0.002496425207
0.0991722476
-0.001406265725
-0.00143608546
0.01304503791
-0.1456644159
0.1441869595
-0.0115675815
0.008971720563
-0.2702095109
0.2672576408
-0.005972261144
-0.2480209043
0.001327296183
0.2485667535
-0.001692088261
-0.2371548203
0.003152259422
0.2380896807
-0.00387483306
0.005847886818
-0.2370563101
0.2375405051
-0.00622945343
-0.4760402325
0.01155278042
0.474371226
-0.009883773851
-0.469597691
0.008418543433
0.4682817327
-0.007102585141
-0.01066845836
0.9202424766
0.007748462305
0.007169170245
-0.006906291482
0.9151043731
-0.003392348412
0.9120503497
0.9104545057
-0.003776672788
0.9272112092
-0.00759936354
0.9264937541
-0.0116035062
0.9251917338
-0.007651141862
0.9228315372
-0.008074115955
-0.4578407968
0.4589098973
-0.008720242387
-0.4552794363
0.009960745395
0.4566283866
-0.01130969573
-0.4535412984
0.01279560021
0.4549504769
-0.007043031868
-0.007235362127
-0.2272497047
0.006576225449
0.2265037338
-0.005997070121
-0.2252659695
0.003451659916
0.2241430001
-0.002568865114
-0.2189363529
0.0007908342645
0.2186981453
-0.0007126761085
-0.2098050256
0.002621621726
0.211113436
-0.003930211433
-0.101454215
0.003944132713
0.1017866039
-0.002118441172
-0.002158080486
0.0162073355
-0.1343231139
0.1329298662
-0.01481408783
0.01537527031
-0.2590023119
0.2565284633
-0.01282025335
-0.2478158559
0.00902037962
0.2471904348
-0.00819475179
-0.2399969732
0.008181587854
0.2403224007
-0.008302628277
0.009329975458
-0.2381857031
0.2381024297
-0.009166185066
-0.4723958041
0.01553230437
0.4701491006
-0.01328560089
-0.4668610233
0.01133199434
0.4651742036
-0.009645174623
-0.01335890808
0.9164646636
0.008866060262
0.008270660891
-0.008582331073
0.9103277961
-0.004171920067
0.9076399387
0.9062825857
-0.007962977804
0.935174187
-0.01612669531
0.9346574717
-0.02444019686
0.9335052354
-0.008888792996
0.9316668811
-0.0243867477
-0.4602199538
0.4615229799
-0.01019181906
-0.4580357386
0.01163086198
0.4596468958
-0.01324201917
-0.4560568536
0.0148848133
0.4563431449
-0.007606712756
-0.007691108135
-0.2241950817
0.006850346623
0.2233061848
-0.006146454194
-0.2208423062
0.003756268421
0.2198107547
-0.002974419666
-0.2182165356
0.001658757009
0.2179914791
-0.001594783605
-0.2152088312
0.004066189295
0.2166017338
-0.002721045844
-0.002738046043
-0.0523176644
0.002592864271
0.05242457182
-0.002699771683
-0.05823930148
0.006047492064
0.05777494564
-0.01175920268
0.006176066461
0.01425795121
-0.124805658
0.2458950628
-0.02437137034
0.01379354598
-0.1247695315
-0.2507045286
0.01686708174
0.249036889
-0.01507938293
-0.2463904125
0.01284057486
0.2462804437
-0.01250828405
-0.2413515539
0.0125915314
0.2415492211
-0.01259250751
0.01181992906
-0.2370419025
0.2364176648
-0.0111506248
-0.467574385
0.0180274688
0.4650080282
-0.01546111192
-0.4634248258
0.01342546049
0.4615583667
-0.01155900129
-0.01539851213
0.9114439666
0.01044726483
0.009971944372
-0.00990005228
0.9048293363
-0.004862427468
0.9026023139
0.9014201582
-0.004457592777
0.9396317798
-0.009037420931
0.9392372998
-0.01386884237
0.9383366568
-0.00944417536
0.9368999334
-0.009657719319
-0.4648735123
0.4662501978
-0.0108208609
-0.4630508972
0.01235218282
0.4646992512
-0.01400053678
-0.4574191646
0.01579164209
0.4590140938
-0.008591737972
-0.00894115466
-0.2205813068
0.008211265543
0.21985987
-0.007684234688
-0.2165656007
0.005335146746
0.2154902901
-0.00451314938
-0.2182215928
0.002848965127
0.2179669485
-0.002745829781
-0.2211257805
0.004327988592
0.2224253184
-0.002828974849
-0.002798551527
-0.0548059916
0.00507553695
0.1100088654
-0.05479744884
-0.00274975875
-0.002731203166
-0.1124030812
0.007874090431
0.1122107302
-0.01531994264
0.007638203135
0.02342897246
-0.2386811503
0.2369324288
-0.02167485335
-0.2459582556
0.01484080558
0.2458297424
-0.01455191377
-0.2466666083
0.01467978023
0.2482442844
-0.0160291993
-0.2417541676
0.01566328117
0.2411590144
-0.0149061057
0.01251638648
-0.2336954463
0.2327520362
-0.01156637129
-0.4627013521
0.01889139276
0.4606091153
-0.01679915598
-0.4596799671
0.01479965322
0.4575666982
-0.01268638428
-0.01501367614
0.9055745691
0.01037918987
0.0105038838
-0.01070623474
0.9005218949
-0.00523873228
0.8971348115
0.896181426
-0.004648684189
0.944280464
-0.009415935242
0.9440045509
-0.01442272232
0.9433434439
-0.00983188293
0.9422775505
-0.009968456465
-0.4677204742
0.4691761699
-0.01128757862
-0.4663636238
0.01285975206
0.4680315164
-0.01452764458
-0.4618024882
0.01631276703
0.4654496674
-0.009938961374
-0.01007382597
-0.2188849078
0.01154798223
0.2191273065
-0.01195430604
-0.2126601378
0.01175961351
0.2119857547
-0.01132536991
-0.2161340154
0.009441510653
0.2152541773
-0.008737424128
-0.2242687002
0.006639631558
0.2235593916
-0.005967366143
-0.1130052108
0.007935159073
0.2262567164
-0.008167490167
-0.1130191745
-0.2263383082
0.01501199645
0.2268572189
-0.01553090711
-0.2362808668
0.01756301227
0.2372100438
-0.01842833851
-0.2467339943
0.01996242454
0.2471775891
-0.02020951618
-0.2480147686
0.02023712169
0.2479960368
-0.01998255031
-0.2387979382
0.0182231087
0.2387933731
-0.01809609694
0.01366333287
-0.2315440289
0.2290836729
-0.0112029769
-0.4587350059
0.02039465753
0.4552227126
-0.01688236427
-0.4554501264
0.01504690714
0.4530955704
-0.01269235103
-0.01540517711
0.8998664093
0.01062438725
0.01048894973
-0.01077931126
0.8958960291
-0.005456443663
0.8918119439
0.8907249823
-0.004725445705
0.9490059097
-0.009557111595
0.9488362168
-0.01459873451
0.9483850668
-0.009964485821
0.947647619
-0.0100043172
-0.4706362439
0.472096551
-0.01142479297
-0.4696812969
0.01297551284
0.4713053324
-0.01459954834
-0.4686738097
0.01631626273
0.4705267151
-0.009125222942
-0.009044053197
-0.2221840244
0.01355120843
0.2240855069
-0.01555179085
-0.2115888554
0.01988181864
0.212225844
-0.02071591987
-0.2128107147
0.02147133322
0.2123739321
-0.02121930294
-0.2207283344
0.01945933552
0.2198860478
-0.01871773027
-0.2241896392
0.01719129175
0.2226036624
-0.01562952682
-0.2311562901
0.020217416
0.2325451245
-0.02157589744
-0.2409868227
0.02546804962
0.242108391
-0.02647590352
-0.2484242436
0.02786013031
0.2484729251
-0.02771547631
-0.2465289011
0.02545831232
0.2453952849
-0.02413767056
-0.2345354491
0.01880460588
0.2324502743
-0.01665285845
0.01286766162
-0.226856662
0.226170649
-0.01218164853
-0.4541450387
0.02042908814
0.4511418098
-0.01742585919
-0.4499489848
0.01372564558
0.4480954409
-0.01187210166
-0.01450664596
0.8927902915
0.01103699219
0.01054577154
-0.008334222223
0.8897236054
-0.005490355973
0.8889680777
0.8852346264
-0.0047007563
0.953706666
-0.009491625116
0.9536270856
-0.01445591535
0.9533493571
-0.009876893598
0.9528837336
-0.009815136372
-0.4735180705
0.4749307388
-0.01128956195
-0.4728860039
0.01277240896
0.474419628
-0.01430603307
-0.4722727099
0.0159051812
0.4739396877
-0.008830250726
-0.008741908295
-0.2325515656
0.009759236444
0.2355533222
-0.01277404958
-0.2171526235
0.02284369555
0.2198680253
-0.02567749199
-0.213362175
0.03210841196
0.214649865
-0.03354275482
-0.2188313383
0.03605207887
0.219161191
-0.03648706425
-0.2159888219
0.03567131012
0.2135677154
-0.03328360205
-0.2352647231
0.0383811017
0.2356339819
-0.03870690125
-0.2436768696
0.03882284335
0.2433760155
-0.03840641267
-0.2463846256
0.03523649721
0.244791258
-0.03349320691
-0.2395758493
0.02638554595
0.2367940548
-0.02349958377
-0.22532996
0.0142470593
0.2246127085
-0.01352923425
0.01181782361
-0.2243343157
0.2237730529
-0.01125656078
-0.4471692
0.01913962543
0.4451997222
-0.01717014763
-0.4462953413
0.01529351284
0.4444885303
-0.01348670177
-0.01353517557
0.8849320794
0.01155790705
0.00983548062
-0.007850613974
0.8840390438
-0.005083429755
0.8862008935
0.8801511966
-0.004593789466
0.9583004555
-0.009259505145
0.9582928013
-0.01405732638
0.9581471783
-0.00960169507
0.9578888607
-0.009460758379
-0.4762873334
0.4776223838
-0.01093674549
-0.4758936862
0.01232303971
0.4773092243
-0.01373857776
-0.475520352
0.01519309875
0.4770118921
-0.008401577573
-0.008283061295
-0.2373878637
0.009175901791
0.2377803483
-0.009568386375
-0.2309222467
0.01275648644
0.2353400852
-0.01719547393
-0.2216215636
0.02912161342
0.2248808112
-0.03245262637
-0.2225060446
0.04026603208
0.224328809
-0.04215401452
-0.2090316889
0.04175577067
0.2090135972
-0.04175815285
-0.2351524058
0.04582469946
0.2345314446
-0.04516817126
-0.2398305051
0.04115309665
0.237862254
-0.03910933759
-0.2372890377
0.03091527152
0.2340183173
-0.02757464854
-0.2262891873
0.01626707823
0.2237714123
-0.01374165479
-0.2231013336
0.01245652018
0.2226620639
-0.01201725045
0.0106796143
-0.2222833949
0.2218325257
-0.01022874506
-0.4433794398
0.01762290345
0.4417007783
-0.01594424196
-0.4428203579
0.01430948257
0.4412117779
-0.01270090259
-0.016156953
0.8791108716
0.01084483745
0.01113332331
-0.01061299687
0.8784950876
-0.00245433573
0.8780422324
0.8776968609
-0.004422950769
0.9627234063
-0.008898938816
0.9627687894
-0.01346570757
0.9627139471
-0.009185460389
0.9625988076
-0.008990194064
-0.4788932547
0.4801353235
-0.01042752921
-0.4786578357
0.0117031379
0.4799438276
-0.01298912988
-0.4784143703
0.01429231293
0.4797312677
-0.007873235279
-0.007735975063
-0.2388673911
0.008543498535
0.2392016878
-0.008877795128
-0.2380361001
0.009873336523
0.2383630574
-0.01020029381
-0.2363065416
0.01115384462
0.2369935215
-0.01184188718
-0.2311426158
0.02047108586
0.2336707059
-0.02301262589
-0.2125987509
0.02581384706
0.2142978953
-0.0275180705
-0.2317637307
0.02868592562
0.2306819955
-0.02759204414
-0.23037209
0.02165618501
0.2276316118
-0.01890209091
-0.2244697905
0.01318535166
0.2242585419
-0.01297410311
-0.2227522306
0.01220875726
0.2224600135
-0.01191654015
-0.2215031095
0.01095782839
0.2211628041
-0.010617523
0.009558694537
-0.2206358885
0.220268739
-0.009191545051
-0.4401559154
0.01600755735
0.4387355155
-0.0145871575
-0.4397397713
0.01317582738
0.4383261746
-0.01176223067
-0.01509454251
0.8738171602
0.01002600134
0.01036225254
-0.009963223291
0.8733637684
-0.004946857353
0.8730258665
0.8727500035
-0.004206382732
0.9669297891
-0.008448134426
0.9670105411
-0.0127431551
0.9670089677
-0.008676147002
0.9669798219
-0.008448022431
-0.4813092592
0.4824514778
-0.009818365569
-0.4811617337
0.01097916154
0.4823178368
-0.01213526463
-0.4809634141
0.013290686
0.4821140049
-0.007284534851
-0.007156741963
-0.2401249481
0.007869478897
0.2404087833
-0.008153314114
-0.2392484205
0.008981290769
0.2395148072
-0.009247677473
-0.2378199762
0.01001269599
0.2380649615
-0.01025768134
-0.2355082504
0.01089056334
0.2355415095
-0.01092382241
-0.2177360327
0.01054682943
0.2184709099
-0.0112817067
-0.2293665581
0.01192374568
0.2293854122
-0.01194259981
-0.2263618585
0.01182426382
0.2262753353
-0.01173774059
-0.2237021326
0.01135692002
0.2235381316
-0.01119291908
-0.2216907644
0.010602444
0.2214646826
-0.0103763622
-0.2202557093
0.009627124839
0.2199863597
-0.009357775298
0.008506177563
-0.2192974615
0.2189947986
-0.0082035147
-0.43742851
0.01441601105
0.4362254176
-0.01321291869
-0.4370386934
0.01199797503
0.4358027919
-0.01076207362
-0.01392414566
0.8690533179
0.009169995134
0.00951799283
-0.009231406179
0.868671029
-0.004595103714
0.868389564
0.8681548998
-0.003961045671
0.9708908347
-0.007942090312
0.9709915858
-0.01194445352
0.971011331
-0.008112147995
0.9710182081
-0.007870691747
-0.4835246155
0.4845691326
-0.009156665092
-0.4834087874
0.01020599511
0.4844420708
-0.0112392785
-0.4831876536
0.01225946757
0.4841891861
-0.006684969394
-0.006576030612
-0.2411924924
0.007197266783
0.2414337159
-0.007438490207
-0.2402389697
0.008130124677
0.2404579111
-0.008349066048
-0.2387209103
0.008970272401
0.2389163031
-0.009165665199
-0.2355334143
0.009612635903
0.2355015931
-0.009580814732
-0.2205024306
0.009395084973
0.2211213887
-0.0100140431
-0.2294050909
0.0103734697
0.2294012763
-0.01036965513
-0.2260326686
0.01024313946
0.2259563567
-0.01016682759
-0.2230968111
0.009849939723
0.2229640201
-0.009717148675
-0.2208598418
0.009244264344
0.2206792809
-0.009063703461
-0.2192609279
0.008462731521
0.2190432795
-0.008245083213
0.007549744305
-0.2181980708
0.2179477609
-0.007299434448
-0.4351150791
0.01291820275
0.4340894078
-0.01189253146
-0.4346802927
0.01084503946
0.4336012776
-0.009766024356
-0.01272605258
0.8647917396
0.008322297501
0.008665333407
-0.008468692736
0.8644136691
-0.004224606294
0.8641454776
0.8639302935
-0.003700543795
0.9745913785
-0.007408322954
0.9746993649
-0.01111218064
0.9747151886
-0.007526929228
0.9747185071
-0.007285550393
-0.4855431477
0.4864929265
-0.008476708018
-0.4854151725
0.009421051973
0.4863357982
-0.01034167769
-0.4851232697
0.01124106475
0.4859945213
-0.006101471117
-0.006010845144
-0.2421006252
0.006550730056
0.2423063681
-0.00675647293
-0.241056492
0.007338324896
0.2412385346
-0.007520367534
-0.2394429615
0.008032370708
0.239600731
-0.008190140196
-0.2353409921
0.008501449069
0.2352699229
-0.00843037983
-0.2227993469
0.008395479521
0.2232994115
-0.008895544057
-0.2293667229
0.009083547209
0.2293488898
-0.009065714066
-0.2257384105
0.0089327424
0.2256689784
-0.008863310294
-0.2226004256
0.008590472107
0.2224892972
-0.0084793437
-0.2201895833
0.008089103043
0.220041521
-0.007941040701
-0.2184514239
0.007448020153
0.218272203
-0.007268799299
0.006692284862
-0.2172869218
0.2170774745
-0.006482837485
-0.4331407029
0.01153625487
0.4322625108
-0.01065806278
-0.4326222373
0.009752182534
0.4316793431
-0.008809288358
-0.01155168294
0.8609934901
0.007512839641
0.007837092748
-0.007711509328
0.8605734955
-0.003854094496
0.8602880627
0.8600761991
-0.003436993373
0.9780283719
-0.006871027123
0.9781333987
-0.01028211999
0.9781262815
-0.006946785961
0.9780960687
-0.006712895572
-0.487373609
0.4882346888
-0.007807865729
-0.4872023962
0.008656329499
0.4880223511
-0.009476284386
-0.4868071785
0.01027053442
0.4875677281
-0.005556321849
-0.005474762155
-0.2428765282
0.00594784426
0.243052854
-0.006124170062
-0.2417394939
0.006617994849
0.2418928508
-0.006771351754
-0.2400280735
0.007199571359
0.2401566226
-0.007328120363
-0.2350187602
0.007538823111
0.2349253621
-0.007445425036
-0.2246289826
0.007528751756
0.2250177502
-0.007917519372
-0.2292809735
0.007998937484
0.2292543559
-0.007972319941
-0.2254689178
0.007835963711
0.2254047662
-0.00777181211
-0.2221809523
0.007531294717
0.2220855952
-0.007435937624
-0.2196353009
0.007106044245
0.2195111544
-0.006981897764
-0.2177804971
0.00656935169
0.217630344
-0.006419198631
0.005934111385
-0.2165220235
0.2163446174
-0.005756705271
-0.4314478181
0.01028732694
0.430691332
-0.009530840893
-0.4308237605
0.008743925133
0.4299978343
-0.007917998921
-0.01043824312
0.8576133451
0.006759350034
0.007059038119
-0.006986538663
0.857121791
-0.003497395694
0.8567989198
0.8565788034
-0.003178783589
0.9812071555
-0.006346740226
0.9813013553
-0.009478070851
0.9812576121
-0.006387595171
0.9811722875
-0.006166694501
-0.4890295205
0.4898090265
-0.007167101192
-0.488794382
0.007929287459
0.4895252772
-0.008660182658
-0.488279811
0.009362693952
0.48894704
-0.005053760529
-0.004976162454
-0.2435427873
0.005394777811
0.2436949089
-0.005546899432
-0.2423176225
0.005970178165
0.2424485671
-0.006101122744
-0.2405060743
0.006463929018
0.2406116049
-0.006569459522
-0.2346264224
0.006705741474
0.2345226021
-0.006601921217
-0.2260344308
0.006772080521
0.2263268937
-0.007064543343
-0.2291652334
0.007078597512
0.2291329396
-0.007046303721
-0.2252191286
0.006909038115
0.2251593957
-0.006849305225
-0.2218184829
0.006633939299
0.2217351517
-0.006550608111
-0.2191674013
0.006266482426
0.2190614098
-0.006160490895
-0.2172152877
0.005809486296
0.2170875915
-0.005681790083
0.005268240276
-0.2158721222
0.2157201812
-0.005116299199
-0.4299872382
0.009171438169
0.4293312835
-0.008515483487
-0.4292479283
0.00782856721
0.4285221871
-0.007102825966
-0.009405987921
0.8546052984
0.006071118668
0.006342915909
-0.006309159976
0.8540249631
-0.003162629166
0.853652389
0.8534161742
-0.002932321755
0.9841394773
-0.005847956105
0.9842169897
-0.008717603445
0.9841272595
-0.005860530686
0.9839720846
-0.005656869887
-0.4905261222
0.4912316159
-0.006566024476
-0.4902139226
0.00725124439
0.4908665766
-0.007903898407
-0.4895729723
0.008526782264
0.4901606988
-0.004592526062
-0.004521982715
-0.2441190002
0.00489114198
0.2442512193
-0.005023361155
-0.2428134928
0.005389905162
0.2429267135
-0.005503125776
-0.2408994525
0.005813850325
0.2409867359
-0.005901133772
-0.2342054655
0.005983411969
0.2340990984
-0.00587704485
-0.227080053
0.006106222907
0.2272933959
-0.006319565731
-0.2290300337
0.006290036349
0.22899405
-0.006254052621
-0.2249862466
0.006117791141
0.2249304482
-0.006061992754
-0.2215001782
0.005867226219
0.2214264093
-0.005793457292
-0.2187658311
0.005545294274
0.2186740463
-0.005453509417
-0.2167324383
0.005150803647
0.2166224802
-0.005040845549
0.004684343131
-0.2153139766
0.2151826133
-0.004552979865
-0.4287187074
0.008183606532
0.4281461207
-0.007611019819
-0.4278625057
0.007008289972
0.4272224013
-0.006368185619
-0.008466339226
0.8519249756
0.005452274379
0.005694387633
-0.005688736501
0.8512473604
-0.00285490953
0.850818562
0.8505612647
-0.002701432741
0.98684091
-0.005381969269
0.9868975262
-0.008010508723
0.9867557989
-0.005372592208
0.9865213114
-0.005187143275
-0.4918791477