/*--------------------------------*- C++ -*----------------------------------*\
| =========                 |                                                 |
| \\      /  F ield         | OpenFOAM: The Open Source CFD Toolbox           |
|  \\    /   O peration     | Version:  v1912                                 |
|   \\  /    A nd           | Website:  www.openfoam.com                      |
|    \\/     M anipulation  |                                                 |
\*---------------------------------------------------------------------------*/
FoamFile
{
    version     2.0;
    format      ascii;
    class       pointVectorField;
    location    "0.65";
    object      pointDisplacement;
}
// * * * * * * * * * * * * * * * * * * * * * * * * * * * * * * * * * * * * * //

dimensions      [0 1 0 0 0 0 0];


internalField   nonuniform List<vector> 
26316
(
(0 0 0)
(0 0 0)
(0 0 0)
(0 0 0)
(0 0 0)
(0 0 0)
(0 0 0)
(0 0 0)
(0 0 0)
(0 0 0)
(0 0 0)
(0 0 0)
(0 0 0)
(0 0 0)
(0 0 0)
(0 0 0)
(0 0 0)
(0 0 0)
(0 0 0)
(0 0 0)
(0 0 0)
(0 0 0)
(0 0 0)
(0 0 0)
(0 0 0)
(0 0 0)
(0 0 0)
(0 0 0)
(0 0 0)
(0 0 0)
(0 0 0)
(0 0 0)
(0 0 0)
(0 0 0)
(0 0 0)
(0 0 0)
(0 0 0)
(0 0 0)
(0 0 0)
(0 0 0)
(0 0 0)
(0 0 0)
(0 0 0)
(0 0 0)
(0 0 0)
(0 0 0)
(0 0 0)
(0 0 0)
(0 0 0)
(0 0 0)
(0 0 0)
(0 0 0)
(0 0 0)
(0 0 0)
(0 0 0)
(0 0 0)
(0 0 0)
(0 0 0)
(0 0 0)
(0 0 0)
(0 0 0)
(0 0 0)
(0 0 0)
(0 0 0)
(0 0 0)
(0 0 0)
(0 0 0)
(0 0 0)
(0 0 0)
(0 0 0)
(0 0 0)
(0 0 0)
(0 0 0)
(0 0 0)
(0 0 0)
(0 0 0)
(0 0 0)
(0 0 0)
(0 0 0)
(0 0 0)
(0 0 0)
(0 0 0)
(0 0 0)
(0 0 0)
(0 0 0)
(0 0 0)
(0 0 0)
(0 0 0)
(0 0 0)
(0 0 0)
(0 0 0)
(0 0 0)
(0 0 0)
(0 0 0)
(0 0 0)
(0 0 0)
(0 0 0)
(0 0 0)
(0 0 0)
(0 0 0)
(0 0 0)
(0 0 0)
(0 0 0)
(0 0 0)
(0 0 0)
(0 0 0)
(0 0 0)
(0 0 0)
(0 0 0)
(0 0 0)
(0 0 0)
(0 0 0)
(0 0 0)
(0 0 0)
(0 0 0)
(0 0 0)
(0 0 0)
(0 0 0)
(0 0 0)
(-1.023124008e-06 1.271240503e-05 2.775557562e-17)
(0 0 0)
(0 0 0)
(-5.629999278e-07 0.0001423980366 3.469446952e-16)
(2.60756809e-06 0.0001210481661 2.91433544e-16)
(0 0 0)
(0 0 0)
(0 0 0)
(0 0 0)
(0 0 0)
(0 0 0)
(0 0 0)
(0 0 0)
(0 0 0)
(0 0 0)
(0 0 0)
(0 0 0)
(0 0 0)
(0 0 0)
(0 0 0)
(0 0 0)
(0 0 0)
(0 0 0)
(0 0 0)
(0 0 0)
(0 0 0)
(0 0 0)
(0 0 0)
(0 0 0)
(0 0 0)
(0 0 0)
(0 0 0)
(0 0 0)
(0 0 0)
(0 0 0)
(0 0 0)
(0 0 0)
(0 0 0)
(0 0 0)
(0 0 0)
(0 0 0)
(0 0 0)
(0 0 0)
(0 0 0)
(0 0 0)
(0 0 0)
(0 0 0)
(0 0 0)
(0 0 0)
(0 0 0)
(0 0 0)
(0 0 0)
(0 0 0)
(0 0 0)
(0 0 0)
(0 0 0)
(0 0 0)
(0 0 0)
(0 0 0)
(0 0 0)
(0 0 0)
(0 0 0)
(0 0 0)
(0 0 0)
(0 0 0)
(0 0 0)
(-6.373729279e-05 0.0001860047197 4.996003611e-16)
(-0.0003666738655 0.001166849135 3.094746681e-15)
(-4.796761916e-06 1.565365873e-05 4.163336342e-17)
(-0.0006953911742 0.003113199354 8.021361353e-15)
(-0.001722882959 0.007546506971 1.994238108e-14)
(-0.002040173116 0.01022280001 2.702005286e-14)
(-0.0009544729492 0.004881165374 1.257327575e-14)
(-0.001153075802 0.01028630012 2.650657471e-14)
(-0.002005955431 0.01766189629 4.669875597e-14)
(-0.001659639691 0.01951445881 5.159761507e-14)
(-0.0009876018986 0.01170570851 3.015643291e-14)
(-2.217814588e-05 0.01368735354 3.527733661e-14)
(-7.695445405e-07 0.02205048463 5.832834216e-14)
(0.000611385625 0.0217628876 5.757894161e-14)
(0.0003472739282 0.01346206001 3.469446952e-14)
(0.001110048622 0.01031739457 2.660371923e-14)
(0.001979638312 0.01769308914 4.682365606e-14)
(0.002158709884 0.01545836047 4.092559625e-14)
(0.001163604584 0.008636657858 2.225997164e-14)
(0.0006808678158 0.003151629525 8.132383655e-15)
(0.001693175357 0.007604330026 2.012279232e-14)
(0.001271921613 0.005081101977 1.344757639e-14)
(0.0003974270147 0.001634245034 4.218847494e-15)
(0 0 0)
(6.687148109e-05 0.0002003071725 5.273559367e-16)
(0 0 0)
(0 0 0)
(0 0 0)
(0 0 0)
(0 0 0)
(0 0 0)
(0 0 0)
(0 0 0)
(0 0 0)
(0 0 0)
(0 0 0)
(0 0 0)
(0 0 0)
(0 0 0)
(0 0 0)
(0 0 0)
(0 0 0)
(0 0 0)
(0 0 0)
(0 0 0)
(0 0 0)
(0 0 0)
(0 0 0)
(0 0 0)
(0 0 0)
(0 0 0)
(0 0 0)
(0 0 0)
(0 0 0)
(0 0 0)
(0 0 0)
(0 0 0)
(0 0 0)
(0 0 0)
(0 0 0)
(0 0 0)
(0 0 0)
(0 0 0)
(0 0 0)
(0 0 0)
(0 0 0)
(0 0 0)
(0 0 0)
(0 0 0)
(0 0 0)
(0 0 0)
(-0.0001780049277 0.0003496421313 1.026956298e-15)
(-0.0009719325279 0.002037215006 6.022959909e-15)
(-0.0002303256678 0.0004965396834 1.429412144e-15)
(-0.003276486455 0.008858119976 2.542410726e-14)
(-0.005231474141 0.01378476235 4.068967385e-14)
(-0.006657439183 0.01920029478 5.664912983e-14)
(-0.004495537396 0.01329101344 3.812228311e-14)
(-0.006919745074 0.02845427539 8.151812558e-14)
(-0.009115843922 0.03668021641 1.080940892e-13)
(-0.009112784222 0.0421979673 1.243449788e-13)
(-0.007073193942 0.03342609445 9.577061366e-14)
(-0.005373770432 0.04572140521 1.310479503e-13)
(-0.006609049474 0.05551314204 1.637162628e-13)
(-0.00509303402 0.05850853819 1.726258025e-13)
(-0.004196234442 0.04854533275 1.391942117e-13)
(0.000312987413 0.05225626384 1.500605196e-13)
(0.0005045075946 0.06238882242 1.844080444e-13)
(0.002446104726 0.06191629742 1.831590435e-13)
(0.00189191756 0.05181744522 1.488809076e-13)
(0.005807585993 0.04564513007 1.31325506e-13)
(0.007356560353 0.05535215439 1.640215741e-13)
(0.008445183658 0.05157493182 1.528915883e-13)
(0.006621743372 0.04212342609 1.212224765e-13)
(0.007014582722 0.02846785261 8.194833701e-14)
(0.0093543878 0.03661719622 1.085936896e-13)
(0.008820352809 0.03086083164 9.15101328e-14)
(0.006444654123 0.02335306166 6.721012635e-14)
(0.00326445546 0.00895278345 2.574329638e-14)
(0.005228484878 0.01388281716 4.111988527e-14)
(0.00368969069 0.009066243938 2.683964162e-14)
(0.002046348034 0.005189287826 1.491862189e-14)
(0 0 0)
(0.0001767449531 0.000353424907 1.054711873e-15)
(0 0 0)
(0 0 0)
(0 0 0)
(0 0 0)
(0 0 0)
(0 0 0)
(0 0 0)
(0 0 0)
(0 0 0)
(0 0 0)
(0 0 0)
(0 0 0)
(0 0 0)
(0 0 0)
(0 0 0)
(0 0 0)
(0 0 0)
(0 0 0)
(0 0 0)
(0 0 0)
(0 0 0)
(0 0 0)
(0 0 0)
(0 0 0)
(0 0 0)
(0 0 0)
(0 0 0)
(0 0 0)
(0 0 0)
(0 0 0)
(0 0 0)
(0 0 0)
(0 0 0)
(0 0 0)
(0 0 0)
(0 0 0)
(0 0 0)
(0 0 0)
(0 0 0)
(-7.658914268e-05 0.0001113014854 3.747002708e-16)
(0 0 0)
(-0.003255385578 0.005845778848 1.894318036e-14)
(-0.004835648527 0.008399485561 2.81163981e-14)
(-0.007555287437 0.01405309618 4.697631173e-14)
(-0.005552009896 0.01066265135 3.451405828e-14)
(-0.01259644456 0.0306008391 9.878209362e-14)
(-0.01526339044 0.03600865841 1.199734756e-13)
(-0.01700106246 0.04400623296 1.464939281e-13)
(-0.01432800908 0.03817420017 1.231376112e-13)
(-0.01604180322 0.06001999457 1.934286065e-13)
(-0.01824208004 0.06637237263 2.207817262e-13)
(-0.01728754978 0.07260162668 2.415706524e-13)
(-0.015357527 0.06630377574 2.137040545e-13)
(-0.01010885163 0.08035811854 2.594591209e-13)
(-0.01111455532 0.08607837383 2.870204074e-13)
(-0.008265799621 0.08877304777 2.963185253e-13)
(-0.007566436059 0.0832844346 2.691458167e-13)
(0.001150182418 0.08684336836 2.81552559e-13)
(0.001314792746 0.09193111967 3.07975867e-13)
(0.004568007648 0.09145292485 3.067546217e-13)
(0.004121006172 0.08634323016 2.80248047e-13)
(0.01201243495 0.07980905303 2.598476989e-13)
(0.01335199318 0.08537580092 2.874089855e-13)
(0.01565819142 0.08169634879 2.75279799e-13)
(0.01400968359 0.07592892055 2.47413201e-13)
(0.0169846883 0.05948958573 1.941086181e-13)
(0.01944983781 0.06558007675 2.213784711e-13)
(0.01944421416 0.05872618608 1.982580766e-13)
(0.01679599906 0.05268574445 1.719180354e-13)
(0.0126974961 0.03031436419 9.880984919e-14)
(0.01584465504 0.03631152614 1.225547441e-13)
(0.01362446608 0.02891425288 9.758860386e-14)
(0.01078784344 0.02379962856 7.756295606e-14)
(0.003722399824 0.006726001664 2.188527137e-14)
(0.005566232683 0.009710587841 3.268219029e-14)
(0.003137972423 0.005165782982 1.737499034e-14)
(0.00179255283 0.003054490953 9.93649607e-15)
(0 0 0)
(0 0 0)
(0 0 0)
(0 0 0)
(0 0 0)
(0 0 0)
(0 0 0)
(0 0 0)
(0 0 0)
(0 0 0)
(0 0 0)
(0 0 0)
(0 0 0)
(0 0 0)
(0 0 0)
(0 0 0)
(0 0 0)
(0 0 0)
(0 0 0)
(0 0 0)
(0 0 0)
(0 0 0)
(0 0 0)
(0 0 0)
(0 0 0)
(0 0 0)
(0 0 0)
(0 0 0)
(0 0 0)
(0 0 0)
(0 0 0)
(0 0 0)
(0 0 0)
(0 0 0)
(0 0 0)
(-0.0003539709364 0.0004394842669 1.637578961e-15)
(-0.0008049179204 0.0009622043669 3.73312492e-15)
(-0.002857691651 0.003599494197 1.394717675e-14)
(-0.001921529801 0.002512802277 9.381384558e-15)
(-0.01125805205 0.01760150385 6.543376951e-14)
(-0.01331363564 0.02006828641 7.741030039e-14)
(-0.01713120559 0.02764689136 1.064703881e-13)
(-0.01485819889 0.02486684283 9.228728892e-14)
(-0.02327391352 0.04939953238 1.825067875e-13)
(-0.02569360359 0.05251423867 2.013805789e-13)
(-0.02698710989 0.06047738973 2.317035452e-13)
(-0.02467499467 0.05749276849 2.1216362e-13)
(-0.02402045636 0.07891802229 2.908090435e-13)
(-0.02552010713 0.08043184551 3.076289223e-13)
(-0.02340285769 0.08510118112 3.256284131e-13)
(-0.02210095368 0.08373849512 3.087530231e-13)
(-0.01339057976 0.09325198265 3.449185382e-13)
(-0.013894188 0.0923213646 3.544664562e-13)
(-0.01016256563 0.0930616645 3.578526364e-13)
(-0.009836908033 0.09462512285 3.505112867e-13)
(0.001407955802 0.09567545297 3.560762796e-13)
(0.001291987316 0.09309342304 3.597538933e-13)
(0.005123620763 0.09291925406 3.5971226e-13)
(0.005188262497 0.09538742506 3.55590557e-13)
(0.01612864919 0.09226401103 3.456540609e-13)
(0.01651714283 0.09119388389 3.549660565e-13)
(0.01995667899 0.08953334157 3.491096301e-13)
(0.01933196309 0.08994933329 3.375077995e-13)
(0.02588825511 0.07737967553 2.914474218e-13)
(0.02750704346 0.07874627623 3.08697512e-13)
(0.02871405898 0.07343281918 2.883110417e-13)
(0.02673602825 0.07128917016 2.688960166e-13)
(0.02444446617 0.04974699986 1.876970801e-13)
(0.02694313439 0.05266803532 2.067235272e-13)
(0.02461752051 0.04468191752 1.752209489e-13)
(0.02207555029 0.04171725405 1.572492137e-13)
(0.01195456064 0.01863578084 6.994405055e-14)
(0.01409489105 0.02111043007 8.2406304e-14)
(0.01014849468 0.01436473143 5.598299602e-14)
(0.008312719761 0.01224397321 4.587996649e-14)
(0.0005476767636 0.0006901818952 2.581268532e-15)
(0.000940924037 0.00114029391 4.427014311e-15)
(2.388266151e-05 2.757707238e-05 1.110223025e-16)
(0 0 0)
(0 0 0)
(0 0 0)
(0 0 0)
(0 0 0)
(0 0 0)
(0 0 0)
(0 0 0)
(0 0 0)
(0 0 0)
(0 0 0)
(0 0 0)
(0 0 0)
(0 0 0)
(0 0 0)
(0 0 0)
(0 0 0)
(0 0 0)
(0 0 0)
(0 0 0)
(0 0 0)
(0 0 0)
(0 0 0)
(0 0 0)
(0 0 0)
(0 0 0)
(0 0 0)
(0 0 0)
(0 0 0)
(-3.369349424e-05 2.949442878e-05 1.387778781e-16)
(-9.19405464e-07 8.439035863e-07 0)
(0 0 0)
(-0.002526460007 0.00267036829 1.171285291e-14)
(-0.003188651797 0.003223333484 1.47937218e-14)
(-0.006611861034 0.007049586026 3.227973444e-14)
(-0.005641297169 0.006287545225 2.75474088e-14)
(-0.0182626758 0.02439563948 1.061650767e-13)
(-0.01987936647 0.02541074487 1.155187057e-13)
(-0.02411024358 0.03299685228 1.496580637e-13)
(-0.0228378561 0.03268080904 1.418865025e-13)
(-0.03135680591 0.05673820325 2.45192755e-13)
(-0.03267258441 0.05650333697 2.550459843e-13)
(-0.03344686894 0.0632780732 2.854660952e-13)
(-0.03225039518 0.06386952775 2.758487883e-13)
(-0.02878396004 0.07901481629 3.416156247e-13)
(-0.02944279524 0.07695890336 3.477773625e-13)
(-0.02638234735 0.07885222271 3.567979245e-13)
(-0.02594765069 0.08164367241 3.532729664e-13)
(-0.01476140351 0.08289750152 0)
(-0.01506950515 0.07918771199 0)
(-0.01313772797 0.07914019097 0)
(-0.01109868907 0.07917228069 0)
(-0.01092908151 0.0810079894 0)
(-0.01083635381 0.08280222955 0)
(0.0008401358997 0.08238656956 0)
(0.0007653250371 0.08060170507 0)
(0.002720777328 0.08052131133 0)
(0.002784991016 0.08230645184 0)
(0.01655782085 0.0815812446 0)
(0.01653934474 0.07974565592 0)
(0.01653354694 0.0778810855 0)
(0.01847636642 0.07774348098 0)
(0.02039242984 0.07764239266 0)
(0.02046208472 0.08132718051 0)
(0.03052663079 0.0772157395 3.439887264e-13)
(0.0309400234 0.07501455355 3.498590306e-13)
(0.03321737018 0.07190542012 3.358147094e-13)
(0.03254931635 0.07358256279 3.281819261e-13)
(0.03268658056 0.05624464903 2.510214259e-13)
(0.03383619711 0.0556065493 2.600974991e-13)
(0.03207273068 0.0488641363 2.284145095e-13)
(0.03063528113 0.04889494781 2.18047802e-13)
(0.01968725228 0.02589272493 1.149358386e-13)
(0.02152919101 0.02702818508 1.256911242e-13)
(0.01694747741 0.02011724744 9.331424522e-14)
(0.01526410614 0.0189791964 8.405776075e-14)
(0.003392312539 0.003622229765 1.594557819e-14)
(0.004240456061 0.004325516562 1.992850329e-14)
(0.001518752831 0.001478482412 6.800116026e-15)
(0.001033305968 0.001052664568 4.635181128e-15)
(0 0 0)
(0 0 0)
(0 0 0)
(0 0 0)
(0 0 0)
(0 0 0)
(0 0 0)
(0 0 0)
(0 0 0)
(0 0 0)
(0 0 0)
(0 0 0)
(0 0 0)
(0 0 0)
(0 0 0)
(0 0 0)
(0 0 0)
(0 0 0)
(0 0 0)
(0 0 0)
(0 0 0)
(0 0 0)
(0 0 0)
(0 0 0)
(0 0 0)
(0 0 0)
(0 0 0)
(0 0 0)
(-0.0003035932289 0.0002142466142 1.276756478e-15)
(-0.000173009703 0.0001294265701 7.21644966e-16)
(-0.0001415370275 0.0001118668202 5.967448757e-16)
(-0.004581681456 0.003991703164 2.123301535e-14)
(-0.004751884901 0.003918695955 2.201017146e-14)
(-0.00879546306 0.007653681344 4.289624211e-14)
(-0.008562312062 0.007871096259 4.17721413e-14)
(-0.02298336824 0.02533613154 1.332545185e-13)
(-0.02335968379 0.02437523283 1.353084311e-13)
(-0.02778759793 0.03102904204 1.717515019e-13)
(-0.02738150617 0.03230421899 1.694477891e-13)
(-0.03539641036 0.05258456272 2.744471317e-13)
(-0.03580284585 0.05029660945 2.769451335e-13)
(-0.03622457095 0.05554175088 3.057276654e-13)
(-0.03584558985 0.05815422625 3.033961971e-13)
(-0.0305870144 0.06803405325 3.559097461e-13)
(-0.03081226161 0.064605756 3.567979245e-13)
(-0.02725072374 0.06500025567 0)
(-0.0270935705 0.0686321782 3.597677711e-13)
(-0.01565829035 0.06819743995 0)
(-0.01574604022 0.06635617247 0)
(-0.01384117108 0.06628753508 0)
(-0.01375370966 0.06812590843 0)
(0.01620184651 0.0669192729 0)
(0.01613639586 0.06509496825 0)
(0.01803998684 0.06500778224 0)
(0.01810732935 0.06682930319 0)
(0.03129464882 0.06587764484 3.579914143e-13)
(0.03122379083 0.0624304627 3.588657149e-13)
(0.03430213969 0.06102531936 3.515798763e-13)
(0.034245016 0.06419653258 3.495814749e-13)
(0.03700415448 0.05241126983 2.859656956e-13)
(0.03739500314 0.05017067624 2.897126983e-13)
(0.03607537167 0.04480804011 2.585293091e-13)
(0.03560602365 0.04670876377 2.546435285e-13)
(0.02524839993 0.02724987821 1.476180289e-13)
(0.02580483404 0.0263494306 1.510180869e-13)
(0.02094320155 0.02021462955 1.155048279e-13)
(0.02041205087 0.02082761027 1.12493348e-13)
(0.006152305368 0.005399023917 2.8907432e-14)
(0.006947162728 0.00576416917 3.264055692e-14)
(0.003312600617 0.002625076642 1.483535517e-14)
(0.002726990459 0.002285125519 1.221245327e-14)
(0 0 0)
(0 0 0)
(0 0 0)
(0 0 0)
(0 0 0)
(0 0 0)
(0 0 0)
(0 0 0)
(0 0 0)
(0 0 0)
(0 0 0)
(0 0 0)
(0 0 0)
(0 0 0)
(0 0 0)
(0 0 0)
(0 0 0)
(0 0 0)
(0 0 0)
(0 0 0)
(0 0 0)
(0 0 0)
(0 0 0)
(0 0 0)
(0 0 0)
(0 0 0)
(0 0 0)
(0 0 0)
(-0.0004983731237 0.0002674631161 2.109423747e-15)
(-0.0004501283322 0.0002605727237 1.90125693e-15)
(-0.0003948888835 0.0002452771415 1.665334537e-15)
(-0.005647001612 0.003869345158 2.615963002e-14)
(-0.005839633133 0.003730410664 2.704780844e-14)
(-0.01018297963 0.006868010599 4.961309141e-14)
(-0.009941116776 0.007190702524 4.846123502e-14)
(-0.02485038994 0.02156139038 1.435934704e-13)
(-0.02516253629 0.02036162367 1.45258805e-13)
(-0.02957908324 0.0256018278 1.819794315e-13)
(-0.02926589435 0.02716241302 1.802724636e-13)
(-0.03698865833 0.04306128649 2.840783164e-13)
(-0.03726008944 0.04041796552 2.854660952e-13)
(-0.03750840274 0.04431369869 3.129163595e-13)
(-0.03726084883 0.04726780223 3.117506253e-13)
(-0.03137195003 0.05406386582 3.581718255e-13)
(-0.0315357988 0.05050733511 3.583938701e-13)
(-0.02784573169 0.05054725655 0)
(-0.02769961136 0.05415160827 0)
(-0.01628407298 0.05367690987 0)
(-0.01635827151 0.05187352644 0)
(-0.0144585944 0.05179479689 0)
(-0.01438414527 0.05359816983 0)
(0.01563622534 0.05236663299 0)
(0.0155607476 0.05055267569 0)
(0.01746001368 0.05047212238 0)
(0.01753578711 0.05228514682 0)
(0.03084462895 0.05171005957 3.5971226e-13)
(0.03069254009 0.04809711742 3.597538933e-13)
(0.03410403415 0.04740238415 3.556321904e-13)
(0.03420418257 0.05090231231 3.550770789e-13)
(0.03835303795 0.04278679065 2.994965387e-13)
(0.03847820603 0.0400118421 3.013422845e-13)
(0.03758708189 0.03611459126 2.717825964e-13)
(0.03738058221 0.03855027592 2.696454171e-13)
(0.02780018985 0.02351295725 1.632027846e-13)
(0.02818575142 0.02219413726 1.656730308e-13)
(0.02339483555 0.01741194629 1.294381269e-13)
(0.02298630544 0.01837606017 1.270650252e-13)
(0.007964169026 0.005481710244 3.745614929e-14)
(0.008287050328 0.005312237508 3.898270595e-14)
(0.004273488642 0.002618016711 1.915134717e-14)
(0.004028968441 0.002649716366 1.804112415e-14)
(0 0 0)
(0 0 0)
(0 0 0)
(0 0 0)
(0 0 0)
(0 0 0)
(0 0 0)
(0 0 0)
(0 0 0)
(0 0 0)
(0 0 0)
(0 0 0)
(0 0 0)
(0 0 0)
(0 0 0)
(0 0 0)
(0 0 0)
(0 0 0)
(0 0 0)
(0 0 0)
(0 0 0)
(0 0 0)
(0 0 0)
(0 0 0)
(0 0 0)
(0 0 0)
(0 0 0)
(0 0 0)
(-0.0007351937252 0.0002705563199 3.094746681e-15)
(-0.0006628187248 0.0002718633291 2.803313137e-15)
(-0.0005983811467 0.0002706615061 2.525757381e-15)
(-0.006319726126 0.003158705889 2.92543767e-14)
(-0.006514214542 0.002954465531 3.015643291e-14)
(-0.0110227637 0.005284300759 5.365152767e-14)
(-0.0107822971 0.005694143407 5.249967128e-14)
(-0.02594089847 0.0164619229 1.493527524e-13)
(-0.0262467193 0.01513499089 1.509625758e-13)
(-0.03067374727 0.01892253506 1.877803468e-13)
(-0.03036701488 0.02061305942 1.861288901e-13)
(-0.03797412626 0.03224004262 2.888245199e-13)
(-0.03824009991 0.02949139741 2.901290319e-13)
(-0.03841521091 0.03220574084 3.167743845e-13)
(-0.03817288981 0.03524696364 3.156919171e-13)
(-0.03200795989 0.03980978883 3.588657149e-13)
(-0.03216533437 0.03624032194 3.590183706e-13)
(-0.02842343104 0.03615994184 0)
(-0.02827963043 0.03975485107 0)
(-0.01687151259 0.03928079787 0)
(-0.01694433159 0.03748438585 0)
(-0.01504722656 0.03740618232 0)
(-0.0150106465 0.03830446487 0)
(-0.01497409789 0.03920199562 0)
(0.01501218397 0.03787171986 0)
(0.01493147958 0.03606484303 0)
(0.0168286996 0.03598738781 0)
(0.01690963013 0.03779366942 0)
(0.03020917859 0.03724532064 3.597400156e-13)
(0.03004072869 0.03363476587 3.596567488e-13)
(0.03339620319 0.03304231884 3.547995231e-13)
(0.03359907162 0.03664413181 3.552713679e-13)
(0.03798222799 0.03080623189 3.001071613e-13)
(0.03773159133 0.02770273989 2.990108161e-13)
(0.03686288447 0.02497024448 2.692013279e-13)
(0.0371124735 0.02778120827 2.703670621e-13)
(0.02779761253 0.01703337862 1.640076963e-13)
(0.02758753853 0.01529719256 1.6298074e-13)
(0.02285112032 0.01198239182 1.269262473e-13)
(0.0230395886 0.01334757278 1.278421813e-13)
(0.008060093653 0.004028753642 3.795574965e-14)
(0.007953839434 0.003602133482 3.747002708e-14)
(0.004030230437 0.001745815393 1.806887973e-14)
(0.00410487032 0.001961946094 1.840194663e-14)
(0 0 0)
(0 0 0)
(0 0 0)
(0 0 0)
(0 0 0)
(0 0 0)
(0 0 0)
(0 0 0)
(0 0 0)
(0 0 0)
(0 0 0)
(0 0 0)
(0 0 0)
(0 0 0)
(0 0 0)
(0 0 0)
(0 0 0)
(0 0 0)
(0 0 0)
(0 0 0)
(0 0 0)
(0 0 0)
(0 0 0)
(0 0 0)
(0 0 0)
(0 0 0)
(0 0 0)
(0 0 0)
(-0.001052925564 0.0002099303492 4.440892099e-15)
(-0.0009668489911 0.0002335203288 4.080069615e-15)
(-0.0008836000231 0.0002506630425 3.719247132e-15)
(-0.007122766139 0.002241653841 3.295974604e-14)
(-0.007337321933 0.001969844208 3.394506898e-14)
(-0.01203027765 0.003425603512 5.848099782e-14)
(-0.01176923874 0.003923508684 5.723199692e-14)
(-0.02718595725 0.01096510756 1.558891904e-13)
(-0.02751076235 0.009512959685 1.575822806e-13)
(-0.03193789616 0.01183887783 1.944833183e-13)
(-0.03161376387 0.01365721845 1.927624727e-13)
(-0.0390491344 0.02108540542 2.940703236e-13)
(-0.03932494034 0.01823236608 2.954025913e-13)
(-0.03939759716 0.0198188243 3.210764987e-13)
(-0.03914898797 0.02294729007 3.199940313e-13)
(-0.03262960185 0.02550081407 3.594208264e-13)
(-0.03278147631 0.02191388126 3.595179709e-13)
(-0.02899514041 0.02177179074 0)
(-0.02885283957 0.02536885473 0)
(-0.01745171761 0.02489559632 0)
(-0.01752352058 0.02309746819 0)
(-0.01562967686 0.02301931743 0)
(-0.01559356655 0.02391837276 0)
(-0.01555737969 0.02481725752 0)
(0.01435329839 0.02343801228 0)
(0.01426751975 0.02163385816 0)
(0.01616298241 0.02155840111 0)
(0.01624915776 0.02336203655 0)
(0.02947177532 0.0227730118 3.588240816e-13)
(0.02924555371 0.01914253958 3.581024366e-13)
(0.03226983735 0.01856346377 3.494843304e-13)
(0.0326138126 0.02218505541 3.515104874e-13)
(0.03624871053 0.01817551473 2.897820872e-13)
(0.03544637955 0.01499761575 2.841338276e-13)
(0.03450654209 0.0134586702 2.544076061e-13)
(0.03516745843 0.01625951823 2.586819647e-13)
(0.02552040282 0.009685081499 1.512956427e-13)
(0.02486521057 0.007979944618 1.475763955e-13)
(0.02018814463 0.006145603244 1.12493348e-13)
(0.02079550685 0.007476768297 1.157962615e-13)
(0.006499771638 0.002029784777 3.064215548e-14)
(0.006150493484 0.001632196174 2.900457652e-14)
(0.00273558208 0.0006957192939 1.226796442e-14)
(0.002969749003 0.0008881136765 1.33226763e-14)
(0 0 0)
(0 0 0)
(0 0 0)
(0 0 0)
(0 0 0)
(0 0 0)
(0 0 0)
(0 0 0)
(0 0 0)
(0 0 0)
(0 0 0)
(0 0 0)
(0 0 0)
(0 0 0)
(0 0 0)
(0 0 0)
(0 0 0)
(0 0 0)
(0 0 0)
(0 0 0)
(0 0 0)
(0 0 0)
(0 0 0)
(0 0 0)
(0 0 0)
(0 0 0)
(0 0 0)
(0 0 0)
(-0.001330890041 4.096075986e-05 5.606626274e-15)
(-0.001376345102 0.0001004391428 5.800915304e-15)
(-0.001256364584 0.0001446167682 5.301314943e-15)
(-0.008039183112 0.001044176709 3.716471575e-14)
(-0.008313754752 0.0006962084932 3.842759444e-14)
(-0.01320492837 0.001197564405 6.410150188e-14)
(-0.01287677523 0.00179168337 6.253331186e-14)
(-0.02854859294 0.004965536116 1.629946178e-13)
(-0.0289429533 0.003383854605 1.650485304e-13)
(-0.03335828713 0.004242765736 2.019495682e-13)
(-0.03296924077 0.00619134142 1.998956556e-13)
(-0.04018662818 0.009523286232 2.995520498e-13)
(-0.04050074507 0.006568992986 3.010924843e-13)
(-0.04044261672 0.007100511043 3.256561687e-13)
(-0.04016697536 0.01031139448 3.244210456e-13)
(-0.03322786539 0.01114113727 3.5971226e-13)
(-0.03337372448 0.007545975779 3.597538933e-13)
(-0.0295614089 0.007387679692 0)
(-0.02941989482 0.01098393979 0)
(-0.01802063821 0.01051209831 0)
(-0.01809084704 0.008714070845 0)
(-0.01620057781 0.008636488045 0)
(-0.01616529235 0.009535828925 0)
(-0.01612995132 0.01043449804 0)
(0.01365466705 0.009040360218 0)
(0.01356387392 0.007242357197 0)
(0.01545873123 0.007168431721 0)
(0.01555010909 0.008966410276 0)
(0.02844749917 0.008327370567 3.54410945e-13)
(0.02811772385 0.004765084975 3.523292769e-13)
(0.0306680679 0.004482404568 3.384792446e-13)
(0.03113686584 0.007935314467 3.420735917e-13)
(0.03319503121 0.006171013941 2.681327382e-13)
(0.03259484832 0.003450322453 2.639555241e-13)
(0.03099427332 0.003056299672 2.302880109e-13)
(0.03200228877 0.005499500409 2.373656827e-13)
(0.02194797904 0.003182698905 1.305899833e-13)
(0.02056869335 0.001777559662 1.224575996e-13)
(0.0159724331 0.001343475209 8.922029782e-14)
(0.01735557779 0.002414000738 9.689471447e-14)
(0.004363589194 0.0005443433179 2.059463711e-14)
(0.003810973668 0.0002966239258 1.7985613e-14)
(0.001238253763 9.339850413e-05 5.564992911e-15)
(0.001558513446 0.0001872953846 6.994405055e-15)
(0 0 0)
(0 0 0)
(0 0 0)
(0 0 0)
(0 0 0)
(0 0 0)
(0 0 0)
(0 0 0)
(0 0 0)
(0 0 0)
(0 0 0)
(0 0 0)
(0 0 0)
(0 0 0)
(0 0 0)
(0 0 0)
(0 0 0)
(0 0 0)
(0 0 0)
(0 0 0)
(0 0 0)
(0 0 0)
(0 0 0)
(0 0 0)
(0 0 0)
(0 0 0)
(0 0 0)
(0 0 0)
(-0.00236676789 -0.0003256530002 9.978129434e-15)
(-0.002157622217 -0.0002057042218 9.089951014e-15)
(-0.001846429591 -9.846028475e-05 7.78543896e-15)
(-0.009196961418 -0.0005010817873 4.247990848e-14)
(-0.009883795877 -0.0009911435891 4.563016631e-14)
(-0.0150084614 -0.001536053892 7.270573033e-14)
(-0.01416495731 -0.0007704503272 6.866729407e-14)
(-0.03027527944 -0.001610272098 1.719874243e-13)
(-0.03085910273 -0.003379004354 1.750544154e-13)
(-0.03515745167 -0.003977865701 2.114558528e-13)
(-0.0346628054 -0.001850520579 2.088329509e-13)
(-0.04152091707 -0.002477856198 3.061717546e-13)
(-0.04172225693 -0.00554754767 3.068378884e-13)
(-0.04163173347 -0.005991962053 3.310546282e-13)
(-0.04132322635 -0.002678216466 3.296529716e-13)
(-0.03380634858 -0.003240585384 0)
(-0.03395277719 -0.006836305142 0)
(-0.03013469738 -0.006994212998 0)
(-0.03006184343 -0.005196965643 0)
(-0.02998948369 -0.00339953025 0)
(-0.01857826426 -0.003871453857 0)
(-0.01861306914 -0.004769308601 0)
(-0.01766766994 -0.004807776351 0)
(-0.01763295908 -0.003910168713 0)
(-0.002185747008 -0.004770870168 0)
(-0.00221489893 -0.005218176258 0)
(-0.002241043783 -0.005665691845 0)
(-0.001315026308 -0.0056938928 0)
(-0.001258329062 -0.004799799161 0)
(0.01288728969 -0.005320357665 0)
(0.01278294448 -0.007110262449 0)
(0.01267786843 -0.008899634573 0)
(0.01647872416 -0.009049206875 0)
(0.01668412565 -0.005468004495 0)
(0.01478641072 -0.005394377856 0)
(0.02696114097 -0.005613936313 3.436695373e-13)
(0.02643687004 -0.008899677252 3.38784556e-13)
(0.02836066827 -0.008433603781 3.18509108e-13)
(0.02915526006 -0.005407687862 3.261418913e-13)
(0.02975129281 -0.00402456615 2.424033196e-13)
(0.02866421926 -0.006192021539 2.339239913e-13)
(0.02667824947 -0.005228387218 1.993960552e-13)
(0.02781323725 -0.003396691986 2.076117056e-13)
(0.0170422747 -0.001532339538 1.016131623e-13)
(0.01601581423 -0.002384069063 9.553469127e-14)
(0.0117357674 -0.00160459075 6.562805854e-14)
(0.01264056273 -0.001028891275 7.066569552e-14)
(0.001802472905 -0.0001130875527 8.507083926e-15)
(0.001465306567 -0.000160830793 6.911138328e-15)
(0.0001162089852 -1.205481188e-05 5.273559367e-16)
(0.0002220206105 -1.306795556e-05 9.992007222e-16)
(0 0 0)
(0 0 0)
(0 0 0)
(0 0 0)
(0 0 0)
(0 0 0)
(0 0 0)
(0 0 0)
(0 0 0)
(0 0 0)
(0 0 0)
(0 0 0)
(0 0 0)
(0 0 0)
(0 0 0)
(0 0 0)
(0 0 0)
(0 0 0)
(0 0 0)
(0 0 0)
(0 0 0)
(0 0 0)
(0 0 0)
(0 0 0)
(0 0 0)
(0 0 0)
(0 0 0)
(0 0 0)
(-0.002244663919 -0.0006910583534 9.506284648e-15)
(-0.002536760018 -0.0006730918841 1.074140776e-14)
(-0.002710702887 -0.0006041885655 1.147693052e-14)
(-0.01095368213 -0.002624591936 5.07649478e-14)
(-0.01060223502 -0.003033749603 4.912736884e-14)
(-0.01583974367 -0.004706820885 7.696621118e-14)
(-0.0162601375 -0.004038032677 7.903400157e-14)
(-0.03232344769 -0.009046549285 1.836863994e-13)
(-0.03181699345 -0.01071611462 1.806610417e-13)
(-0.03609551386 -0.01277237007 2.171041125e-13)
(-0.0365835116 -0.01074232144 2.202960037e-13)
(-0.0427370746 -0.0151051623 3.141098492e-13)
(-0.04244455113 -0.01809486023 3.112649027e-13)
(-0.04206003695 -0.01939430592 3.33288952e-13)
(-0.04224786747 -0.01616540002 3.356759315e-13)
(-0.03397110672 -0.01767639031 0)
(-0.03412156942 -0.02127252704 0)
(-0.03029287416 -0.02143272001 0)
(-0.03021766028 -0.01963506931 0)
(-0.03014241146 -0.01783658328 0)
(-0.01865649274 -0.0183171552 0)
(-0.01873174157 -0.02011564124 0)
(-0.01681747747 -0.02019573423 0)
(-0.01677983558 -0.01929607354 0)
(-0.01674222865 -0.01839724819 0)
(-0.01769936069 -0.0183572017 0)
(-0.003341965047 -0.01895791649 0)
(-0.003379570384 -0.0198567419 0)
(-0.003417211472 -0.02075640262 0)
(-0.001502888556 -0.02083649808 0)
(-0.001427639731 -0.01903801204 0)
(0.01197256814 -0.019598678 0)
(0.01182210544 -0.02319481473 0)
(0.01560217788 -0.02326335544 3.583938701e-13)
(0.01579097846 -0.01974275476 3.594902154e-13)
(0.02491583198 -0.01817978619 3.244904345e-13)
(0.02426070834 -0.020924962 3.175654184e-13)
(0.02566937581 -0.01935141259 2.930156118e-13)
(0.02644635849 -0.01689767478 3.007594174e-13)
(0.02493484698 -0.01143732275 2.042810365e-13)
(0.0239213226 -0.01292179464 1.962457974e-13)
(0.02141163238 -0.01052121703 1.60496616e-13)
(0.02287352928 -0.009554225396 1.71418435e-13)
(0.0120930263 -0.003931040875 7.21644966e-14)
(0.01054255035 -0.004042829196 6.289413435e-14)
(0.007174495913 -0.002563468104 4.013456234e-14)
(0.008173881883 -0.002469313388 4.571343304e-14)
(0.0003017454662 -7.567549715e-05 1.429412144e-15)
(0.0001363006795 -4.061274117e-05 6.383782392e-16)
(0 0 0)
(0 0 0)
(0 0 0)
(0 0 0)
(0 0 0)
(0 0 0)
(0 0 0)
(0 0 0)
(0 0 0)
(0 0 0)
(0 0 0)
(0 0 0)
(0 0 0)
(0 0 0)
(0 0 0)
(0 0 0)
(0 0 0)
(0 0 0)
(0 0 0)
(0 0 0)
(0 0 0)
(0 0 0)
(0 0 0)
(0 0 0)
(0 0 0)
(0 0 0)
(0 0 0)
(0 0 0)
(0 0 0)
(0 0 0)
(-0.0005241189151 -0.0002507905286 2.220446049e-15)
(-0.0009511044893 -0.0004145052843 4.024558464e-15)
(-0.001413166912 -0.0005555447361 5.981326545e-15)
(-0.008122066487 -0.003466932932 3.766431611e-14)
(-0.00693782018 -0.003289404571 3.218258993e-14)
(-0.01131745912 -0.005600023653 5.506706202e-14)
(-0.01280573544 -0.005698735268 6.225575611e-14)
(-0.02788755868 -0.0142144434 1.583039255e-13)
(-0.02584666802 -0.01468736714 1.468131172e-13)
(-0.03009267409 -0.01801474444 1.809524752e-13)
(-0.03217287273 -0.01726657491 1.93331462e-13)
(-0.0395031039 -0.02554222829 2.886024753e-13)
(-0.03776739399 -0.02723651312 2.759181772e-13)
(-0.03825064416 -0.02974027124 3.014116734e-13)
(-0.03973294606 -0.02771712365 3.132216708e-13)
(-0.03416449146 -0.03173219715 3.558819905e-13)
(-0.03369070384 -0.03473153714 3.499978085e-13)
(-0.0306042124 -0.03552759572 3.567285356e-13)
(-0.03072408503 -0.03220442289 3.595457265e-13)
(-0.01925841345 -0.03270337281 0)
(-0.0194089111 -0.03630034488 0)
(-0.01558029937 -0.03646053436 0)
(-0.01542980172 -0.03286356229 0)
(-0.01734414935 -0.0327834658 0)
(-0.003943883005 -0.03334413421 0)
(-0.004094380656 -0.03694110628 0)
(-0.0002657438691 -0.03710129681 0)
(-0.0001152462177 -0.03350432473 0)
(0.01129921932 -0.03367809985 3.565620021e-13)
(0.01103116943 -0.03665738732 3.51010887e-13)
(0.01441466861 -0.03566512504 3.402556015e-13)
(0.01482304637 -0.03304806258 3.484018629e-13)
(0.02216144361 -0.02790845278 2.917110997e-13)
(0.0212058344 -0.02946389354 2.790961906e-13)
(0.02187792539 -0.02643481036 2.502581475e-13)
(0.0230026059 -0.0252105454 2.632755125e-13)
(0.01980594147 -0.01548038094 1.623701174e-13)
(0.01840993573 -0.01585819072 1.507682867e-13)
(0.01568853409 -0.01230618012 1.173644515e-13)
(0.01706507985 -0.01214129467 1.277866701e-13)
(0.006753765738 -0.003775346766 4.024558464e-14)
(0.005804517905 -0.003584847586 3.456956943e-14)
(0.002973996051 -0.001716936281 1.661171201e-14)
(0.004038355162 -0.002110037737 2.256528298e-14)
(0 0 0)
(0 0 0)
(0 0 0)
(0 0 0)
(0 0 0)
(0 0 0)
(0 0 0)
(0 0 0)
(0 0 0)
(0 0 0)
(0 0 0)
(0 0 0)
(0 0 0)
(0 0 0)
(0 0 0)
(0 0 0)