/*--------------------------------*- C++ -*----------------------------------*\
| =========                 |                                                 |
| \\      /  F ield         | OpenFOAM: The Open Source CFD Toolbox           |
|  \\    /   O peration     | Version:  v1912                                 |
|   \\  /    A nd           | Website:  www.openfoam.com                      |
|    \\/     M anipulation  |                                                 |
\*---------------------------------------------------------------------------*/
FoamFile
{
    version     2.0;
    format      ascii;
    class       surfaceScalarField;
    location    "2.66";
    object      meshPhi;
}
// * * * * * * * * * * * * * * * * * * * * * * * * * * * * * * * * * * * * * //

dimensions      [0 3 -1 0 0 0 0];
oriented        oriented;


internalField   nonuniform List<scalar> 
25162
(
0
0
0
0
0
0
0
0
0
0
0
0
0
0
0
0
0
0
0
0
0
0
0
0
0
0
0
0
0
0
0
0
0
0
0
0
0
0
0
0
0
0
0
0
0
0
0
0
0
0
0
0
0
0
0
0
0
0
0
0
0
0
0
0
0
0
0
0
0
0
0
0
0
0
0
0
0
0
0
0
0
0
0
0
0
0
0
0
0
0
0
0
0
0
0
0
0
0
0
0
0
0
0
0
-2.590649837e-09
-1.038126666e-07
1.162506183e-06
0
3.599434764e-09
-9.882629874e-07
0
0
0
0
0
0
0
0
0
0
0
0
0
0
0
0
0
0
0
0
0
0
0
0
0
0
0
0
0
0
0
0
0
0
0
0
0
0
0
0
0
0
0
0
0
0
0
0
0
0
0
0
0
0
0
0
0
0
0
0
0
0
0
0
0
0
1.188369121e-08
1.72405861e-06
-1.103013087e-06
-1.092284651e-05
4.321270941e-06
9.688502995e-05
-1.009010117e-05
-0.0001370323249
5.40666455e-06
0.0002535899505
-9.121396403e-06
-0.0002836898779
-1.057015296e-06
0.0003268277322
2.343418014e-06
-0.0003229476289
-5.416764777e-06
0.0002585218918
9.942867283e-06
-0.000222769162
-2.521837471e-06
9.971171447e-05
6.742081095e-06
-6.228235637e-05
0
1.858728107e-06
1.634501829e-07
0
0
0
0
0
0
0
0
0
0
0
0
0
0
0
0
0
0
0
0
0
0
0
0
0
0
0
0
0
0
0
0
0
0
0
0
0
0
0
0
0
0
0
0
0
0
0
0
0
0
0
5.813081486e-07
3.716778738e-06
-3.037025722e-06
-2.660312339e-05
2.229046717e-05
0.0002330025199
-3.516253638e-05
-0.0003332367959
3.931304908e-05
0.0006657651418
-5.155739573e-05
-0.0007736146784
2.141505623e-05
0.001042515899
-2.468675933e-05
-0.001106057673
-1.199198438e-05
0.001197822143
1.748363061e-05
-0.001193017155
-3.188797285e-05
0.001071298971
4.186049666e-05
-0.0009970765899
-2.876790055e-05
0.0006970650117
3.849163758e-05
-0.000581120786
-1.140343541e-05
0.0002442059008
1.834987621e-05
-0.0001521435431
0
3.788221093e-06
4.9315045e-07
0
0
0
0
0
0
0
0
0
0
0
0
0
0
0
0
0
0
0
0
0
0
0
0
0
0
0
0
0
0
0
0
0
0
0
0
0
0
0
0
0
0
0
0
0
-1.934294073e-07
-1.417428772e-06
2.636257678e-05
0.0001730984298
-4.010737578e-05
-0.0002965503976
8.525618442e-05
0.0007857580421
-0.0001036916399
-0.0009680264566
8.786623756e-05
0.001491461141
-9.812370578e-05
-0.001642675326
2.924991499e-05
0.001986356466
-2.898065681e-05
-0.002060625321
-3.861098604e-05
0.002164258738
4.583071789e-05
-0.002160505219
-7.728014744e-05
0.002030867449
8.975766043e-05
-0.001945434885
-7.231775607e-05
0.00155893179
8.466688937e-05
-0.001391784576
-5.865702718e-05
0.0008575891052
7.181434918e-05
-0.0006779561697
-1.153710265e-05
0.0002050404889
1.722547974e-05
-0.0001021173262
0
0
0
0
0
0
0
0
0
0
0
0
0
0
0
0
0
0
0
0
0
0
0
0
0
0
0
0
0
0
0
0
0
0
0
0
0
0
0
0
0
0
6.143727467e-06
2.032128745e-05
-1.020682605e-05
-8.774725591e-05
8.51622597e-05
0.0005316470753
-0.0001007772837
-0.0007384547128
0.0001739081511
0.001451286458
-0.0001779927757
-0.001692381565
0.0001233409679
0.002261127512
-0.000146094627
-0.002382550633
2.603569105e-05
0.002628598034
-2.868444313e-05
-0.002661065087
-6.094993372e-05
0.002691762846
6.233808445e-05
-0.002690836893
-0.0001303949848
0.00265335889
0.0001401871229
-0.002606977118
-0.0001812491601
0.002359208835
0.000188910082
-0.002187876034
-7.968174691e-05
0.001524253217
8.811004246e-05
-0.001285494763
-3.516714824e-05
0.0005878264094
4.103451765e-05
-0.000392456926
2.69442017e-05
-1.328717277e-06
2.287533097e-06
-4.1139935e-07
0
0
0
0
0
0
0
0
0
0
0
0
0
0
0
0
0
0
0
0
0
0
0
0
0
0
0
0
0
0
0
0
0
0
0
-1.705026941e-07
-1.511481217e-08
-5.742700249e-07
2.409950564e-05
0.0001023871795
-2.940379985e-05
-0.0002304822749
0.0001451273712
0.0008503730224
-0.0001512741123
-0.001122947683
0.0001969670458
0.001923832329
-0.0002043227391
-0.002159572749
0.0001475815594
0.002683351805
-0.0001236006037
-0.002790558013
6.811630172e-05
0.002886020427
-9.678642119e-05
-3.602290421e-05
-0.00139119392
-0.001430133483
0.001383158414
-2.790148887e-05
2.793907066e-05
-0.001383195996
0.001422939251
-0.0002113737455
-0.002861573861
0.001449814234
8.820493669e-05
0.0001119891851
0.002703349528
-0.0001689336257
0.0001805245118
-0.00259563666
-0.0001182985336
0.002031260245
0.0001268928516
-0.001778257747
-5.509793086e-05
0.0009502441881
5.831169017e-05
-0.0006988671205
0.0001403213457
-9.210062595e-06
1.16643363e-05
-4.458749903e-05
0
0
0
0
0
0
0
0
0
0
0
0
0
0
0
0
0
0
0
0
0
0
0
0
0
0
0
0
0
0
0
0
0
7.115604008e-07
0
-1.510235227e-06
-5.283120971e-06
-8.076518751e-06
4.053191529e-05
0.0001721690355
-4.189013698e-05
-0.0003368241539
0.0001737828974
0.001067498575
-0.0001764504149
-0.001356108905
0.0002119312483
0.002192987214
-0.0002108033442
-0.002425885363
0.0001043319455
0.002856201529
-9.938798126e-05
-0.002888679174
1.679558462e-05
0.001462239555
-1.914801666e-05
-0.001459887123
0.001448206428
-7.519973675e-05
7.303050344e-05
-0.001446037195
0.002863456701
-0.0001984218835
0.0002026083678
-0.002804119892
-0.0001334788975
0.002306292612
0.0001360449575
-0.002056764153
-6.683450074e-05
0.001197404057
6.943448217e-05
-0.0009150653105
0.0002485738171
-1.70281624e-05
1.92652342e-05
-0.0001089896571
0
0
0
0
0
0
0
0
0
0
0
0
0
0
0
0
0
0
0
0
0
0
0
0
0
0
0
0
0
0
0
0
0
1.946604928e-06
0
-2.455271603e-06
-1.450891018e-05
-1.636429618e-05
4.876777572e-05
0.0002164091193
-5.02474037e-05
-0.0003987042147
0.0001857959005
0.001173989685
-0.0001876503419
-0.001472494645
0.0002113244979
0.002317014903
-0.0002114550951
-0.002542223622
9.393398899e-05
0.00291943098
-9.337098849e-05
-0.002932117216
1.097678827e-05
0.001465041611
-1.097441774e-05
-0.001465043981
0.001473636831
-6.859649077e-05
6.784241007e-05
-0.00147288275
0.002944011715
-0.0002034491087
0.0002032771097
-0.002907816883
-0.0001450392006
0.002460600769
0.0001467737258
-0.002218049221
-7.278327264e-05
0.001348189987
7.391108512e-05
-0.001051474094
0.0003129958792
-2.194560959e-05
2.28013698e-05
-0.0001521947212
0
0
0
0
0
0
0
0
0
0
0
0
0
0
0
0
0
0
0
0
0
0
0
0
0
0
0
0
0
0
0
0
0
2.958810073e-06
0
-3.651657191e-06
-2.209872929e-05
-2.463328457e-05
5.392656652e-05
0.0002466307826
-5.541716024e-05
-0.0004404358717
0.0001923439521
0.001245550079
-0.0001941755529
-0.001550977404
0.0002119951627
0.002403130527
-0.000212172805
-0.00262608085
9.234781468e-05
0.00298323307
-9.21601622e-05
-0.002990307829
1.080536357e-05
0.001492306876
-1.128608204e-05
-0.0007450866899
-0.0007467394679
0.001501286476
-6.573647242e-05
6.522541584e-05
-0.001500775419
0.002998641909
-0.0002002618515
0.0001987637503
-0.00295830499
-0.0001445507705
0.002493748728
0.0001434342165
-0.002245220099
-7.2760432e-05
0.001359081138
7.238102905e-05
-0.001058876397
0.0003135807939
-2.214827977e-05
2.187609015e-05
-0.0001516876323
0
0
0
0
0
0
0
0
0
0
0
0
0
0
0
0
0
0
0
0
0
0
0
0
0
0
0
0
0
0
0
0
0
4.40476604e-06
0
-5.272312992e-06
-3.314241873e-05
-3.636329135e-05
6.008101898e-05
0.0002839275928
-6.172354357e-05
-0.0004908982498
0.0001996843928
0.001329362131
-0.0002015734651
-0.001642300558
0.000212609884
0.002501893693
-0.0002127261561
-0.00272181306
9.127023304e-05
0.00305517349
-9.105104883e-05
-0.003058004891
1.10340787e-05
0.001526675705
-1.116785682e-05
-0.0007626849108
-0.000763857016
0.001532252155
-6.381794925e-05
6.334399393e-05
-0.0015317782
0.00305156855
-0.0001903506877
0.0001868517205
-0.002980875898
-0.0001341685187
0.00243007695
0.0001341301831
-0.002174338489
-6.688118238e-05
0.001264618737
6.546314053e-05
-0.0009661993839
0.0002526953111
-1.786281682e-05
1.694632128e-05
-0.0001085599953
0
0
0
0
0
0
0
0
0
0
0
0
0
0
0
0
0
0
0
0
0
0
0
0
0
0
0
0
0
0
0
0
0
6.334349674e-06
0
-6.732241383e-06
-4.814824605e-05
-4.981253421e-05
6.708836217e-05
0.0003275696765
-6.918541884e-05
-0.0005484431994
0.0002074934266
0.001420311891
-0.0002097340727
-0.001740092139
0.0002129777324
0.002603403631
-0.0002130183998
-0.002818741824
9.051315549e-05
0.003123139124
-9.065101052e-05
-0.003123244016
1.146287091e-05
0.001559501404
-1.145249443e-05
-0.0007789509151
-0.0007805608649
0.001560069864
-6.176897879e-05
6.16979754e-05
-0.001559998861
0.003062616338
-0.0001759015492
0.0001711830825
-0.002945610968
-0.0001219275346
0.002300989468
0.0001131023489
-0.002016243923
-5.80893875e-05
0.001087759642
5.40036274e-05
-0.0007997556676
0.0001667272863
-1.183584352e-05
1.024810105e-05
-5.434886806e-05
0
0
0
0
0
0
0
0
0
0
0
0
0
0
0
0
0
0
0
0
0
0
0
0
0
0
0
0
0
0
0
0
0
9.561125934e-06
0
-1.313273028e-05
-7.466053129e-05
-8.525566286e-05
7.531500632e-05
0.0003886199581
-8.082979904e-05
-0.0006228365215
0.0002171540407
0.001532264059
-0.0002192757849
-0.001857082216
0.0002128557083
0.00271521923
-0.0002154320458
-0.002924642619
9.040421857e-05
0.0031889957
-9.137846102e-05
-0.001592019687
-0.00159600177
6.33559605e-06
0.0007946865265
-6.555656064e-06
-0.0007944664664
-5.169954927e-06
0.0003961973153
4.523274782e-06
-0.0007921210588
0.0003965704236
0.001585898261
-6.132772544e-05
0.0001282819166
-0.003176796178
0.001589520166
-6.557643972e-05
-0.0001600300816
0.003010300881
0.0001499281187
-0.002836006994
-9.806609885e-05
0.002091056073
9.417085948e-05
-0.001786018453
-4.550261747e-05
0.0008658544771
4.338257738e-05
-0.0005991754525
6.809563011e-05
-4.420573026e-06
3.513681621e-06
-6.715868697e-06
0
0
0
0
0
0
0
0
0
0
0
0
0
0
0
0
0
0
0
0
0
0
0
0
0
0
0
0
0
0
0
0
0
1.422481937e-05
0
-1.163592551e-05
-0.0001006267909
-9.225008349e-05
8.914627882e-05
0.0004531530289
-8.628860748e-05
-0.000708120655
0.0002274342924
0.001655056259
-0.0002238953497
-0.001986704476
0.0002093318132
0.002837427757
-0.0002092734454
-0.003033349085
8.784790234e-05
0.003255747044
-8.784790234e-05
-0.001626189895
-0.001629557148
5.01838294e-06
0.001626189895
-8.868343503e-06
3.849960569e-06
-0.000812201611
-0.0008139882843
-2.852317244e-05
0.0008122016329
2.85231396e-05
-0.001626189895
0.0008139882953
0.003255747044
-0.0001361392537
0.0001347421113
-0.003246992471
-0.000133430759
0.0028717844
0.0001299499983
-0.002654837753
-8.334943931e-05
0.001791975818
7.621198626e-05
-0.0014818059
-3.368808076e-05
0.0006023865345
3.156596862e-05
-0.0003845439051
9.321598607e-06
-7.203033526e-07
3.296581134e-07
0
0
0
0
0
0
0
0
0
0
0
0
0
0
0
0
0
0
0
0
0
0
0
0
0
0
0
0
0
0
0
0
0
0
7.165223883e-06
0
-2.593914082e-06
-4.636213834e-05
-2.905645147e-05
6.640626298e-05
0.0003251346355
-5.704771766e-05
-0.0005473645352
0.0001969241824
0.001428732378
-0.0001827286481
-0.001752984476
0.0002046527393
0.002637653095
-0.0001998991979
-0.002866985009
9.491330715e-05
0.003271682802
-0.0001003674203
-0.003312710435
8.86834351e-06
0.003322504608
-1.306307857e-05
-0.003322504608
4.194735068e-06
-6.172008976e-05
0.003322504608
6.172008977e-05
-0.003322504608
-0.0001245959718
0.003262495249
0.0001186762682
-0.003171140449
-0.0001088151549
0.002616898733
0.0001017011541
-0.002351441189
-5.924922895e-05
0.001431245924
5.541759434e-05
-0.001120740137
-2.060869649e-05
0.0003431438571
1.659920942e-05
-0.0001795210287
0
0
0
0
0
0
0
0
0
0
0
0
0
0
0
0
0
0
0
0
0
0
0
0
0
0
0
0
0
0
0
0
0
0
0
0
0
6.280883449e-08
0
0
-2.562659538e-07
0
2.713932564e-05
0.000110706489
-1.830389235e-05
-0.0002486567379
0.0001282261811
0.0009160240453
-0.0001077797811
-0.00119147596
0.0001703473358
0.002028428464
-0.0001552156778
-0.002278900179
0.0001065150577
0.002855538326
-0.0001040944176
-0.002982362405
1.706168066e-05
0.003190163282
-1.922805566e-05
-0.003213921347
-5.647405673e-05
0.003179252892
5.139451054e-05
-0.003128990324
-9.380221275e-05
0.002819474924
8.368140016e-05
-0.0026555063
-7.654421167e-05
0.001992272498
6.755613983e-05
-0.001728954602
-4.086350072e-05
0.0009158732434
3.521000924e-05
-0.0006677283515
-7.489903227e-06
0.0001222281117
4.610197553e-06
-3.348280821e-05
0
0
0
0
0
0
0
0
0
0
0
0
0
0
0
0
0
0
0
0
0
0
0
0
0
0
0
0
0
0
0
0
0
0
0
0
0
0
0
0
0
0
1.780038645e-06
2.520749352e-07
-2.859609653e-07
-1.89528713e-05
4.939035667e-05
0.0003264594841
-3.337858974e-05
-0.0004968601513
9.928320924e-05
0.001105314303
-7.951562059e-05
-0.001313859576
8.320606682e-05
0.001862582602
-7.262635643e-05
-0.002004614618
2.369944067e-05
0.002275699665
-2.365793035e-05
-0.002312226249
-3.06653241e-05
0.002260692756
2.360051587e-05
-0.002190595914
-5.198936895e-05
0.001830814392
4.209206471e-05
-0.001666738981
-4.106084436e-05
0.001089626814
3.280815925e-05
-0.0008862983289
-1.731560722e-05
0.0003355077534
1.169754313e-05
-0.0001957872819
-7.178547229e-08
8.366974664e-07
0
0
0
0
0
0
0
0
0
0
0
0
0
0
0
0
0
0
0
0
0
0
0
0
0
0
0
0
0
0
0
0
0
0
0
0
0
0
0
0
0
0
0
0
0
0
0
0
3.566406805e-06
8.483526138e-06
-5.388194333e-07
-3.932044181e-05
2.823626847e-05
0.0002722780086
-1.613959265e-05
-0.0003786105686
3.710152997e-05
0.0007060318811
-2.608465206e-05
-0.0008018733668
1.75292321e-05
0.001000027848
-1.395439442e-05
-0.00102928424
-7.537771545e-06
0.0009959611591
4.412657052e-06
-0.0009460035174
-1.782385838e-05
0.0007022338503
1.192770039e-05
-0.0005989768867
-1.165477459e-05
0.0002779294508
6.447240873e-06
-0.0001832804166
-6.511764129e-07
1.051710656e-05
1.859533756e-09
-1.13229255e-07
0
0
0
0
0
0
0
0
0
0
0
0
0
0
0
0
0
0
0
0
0
0
0
0
0
0
0
0
0
0
0
0
0
0
0
0
0
0
0
0
0
0
0
0
0
0
0
0
0
0
0
0
0
0
8.217005555e-08
0
0
-1.405268922e-06
3.421187095e-06
3.839885802e-05
-5.330530085e-07
-5.946262511e-05
3.343010051e-06
0.0001157969844
-1.135427906e-06
-0.0001257418573
-3.885149527e-07
0.0001168821358
9.211177879e-08
-0.0001019566532
-1.239665195e-06
4.052458095e-05
1.050007083e-07
-2.233267856e-05
0
0
0
0
0
0
0
0
0
0
0
0
0
0
0
0
0
0
0
0
0
0
0
0
0
0
0
0
0
0
0
0
0
0
0
0
0
0
0
0
0
0
0
0
0
0
0
0
0
0
0
0
0
0
0
0
0
0
0
0
0
0
0
0
0
0
0
0
0
0
0
0
0
0
0
0
0
0
0
0
0
0
0
0
0
0
0
0
0
0
0
0
0
0
0
0
0
0
0
0
0
0
0
0
0
0
0
0
0
0
0
0
0
0
0
0
0
0
0
0
0
0
0
0
0
0
0
0
0
0
0
0
0
0
0
0
0
0
0
0
0
0
0
0
0
0
0
0
0
0
0
0
0
0
0
0
0
0
0
0
0
0
0
0
0
0
0
0
0
0
0
0
0
0
0
0
0
0
0
0
0
0
0
0
0
0
0
0
0
0
0
0
0
0
0
0
0
0
0
0
0
0
0
0
0
0
0
0
0
0
0
0
0
0
0
0
0
0
0
0
0
0
0
0
0
0
0
0
0
0
0
0
0
0
0
0
0
0
0
0
0
0
0
0
0
0
0
0
0
0
0
0
0
0
0
0
0
0
0
0
0
0
0
0
0
0
0
0
0
0
0
0
0
0
0
0
0
0
0
0
0
0
0
0
0
0
0
0
0
0
0
0
0
0
0
0
0
0
0
0
0
0
0
0
0
0
0
0
0
0
0
0
0
0
0
0
0
0
0
0
0
0
0
0
0
0
0
0
0
0
0
0
0
0
0
0
0
0
0
0
0
0
0
0
0
0
0
0
0
0
0
0
0
0
0
0
0
0
0
0
0
0
0
0
0
0
0
0
0
0
0
0
0
0
0
0
0
0
0
0
0
0
0
0
0
0
0
0
0
0
0
0
0
0
0
0
0
0
0
0
0
0
0
0
0
0
0
0
0
0
0
0
0
0
0
0
0
0
0
0
0
0
0
0
0
0
0
0
0
0
0
0
0
0
0
0
0
0
0
0
0
0
0
0
0
0
0
0
0
0
0
0
0
0
0
0
0
0
0
0
0
0
0
0
0
0
0
0
0
0
0
0
0
0
0
0
0
0
0
0
0
0
0
0
0
0
0
0
0
0
0
0
0
0
0
0
0
0
0
0
0
0
0
0
0
0
0
0
0
0
0
0
0
0
0
0
0
0
0
0
0
0
0
0
0
0
0
0
0
0
0
0
0
0
0
0
0
0
0
0
0
0
0
0
0
0
0
0
0
0
0
0
0
0
0
0
0
0
0
0
0
0
0
0
0
0
0
0
0
0
0
0
0
0
0
0
0
0
0
0
0
0
0
0
0
0
0
0
0
0
0
0
0
0
0
0
0
0
0
0
0
0
0
0
0
0
0
0
0
0
0
0
0
0
0
0
0
0
0
0
0
0
0
0
0
0
0
0
0
0
0
0
0
0
0
0
0
0
0
0
0
0
0
0
0
0
0
0
0
0
0
0
0
0
0
0
0
0
0
0
0
0
0
0
0
0
0
0
0
0
0
0
0
0
0
0
0
0
0
0
0
0
0
0
0
0
0
0
0
0
0
0
0
0
0
0
0
0
0
0
0
0
0
0
0
0
0
0
0
0
0
0
0
0
0
0
0
0
0
0
0
0
0
0
0
0
0
0
0
0
0
0
0
0
0
0
0
0
0
0
0
0
0
0
0
0
0
0
0
0
0
0
0
0
0
0
0
0
0
0
0
0
0
0
0
0
0
0
0
0
0
0
0
0
0
0
0
0
0
0
0
0
0
0
0
0
0
0
0
0
0
0
0
0
0
0
0
0
0
0
0
0
0
0
0
0
0
0
0
0
0
0
0
0
0
0
0
0
0
0
0
0
0
0
0
0
0
0
0
0
0
0
0
0
0
0
0
0
0
0
0
0
0
0
0
0
0
0
0
0
0
0
0
0
0
0
0
0
0
0
0
0
0
0
0
0
0
0
0
0
0
0
0
0
0
0
0
0
0
0
0
0
0
0
0
0
0
0
0
0
0
0
0
0
0
0
0
0
0
0
0
0
0
0
0
0
0
0
0
0
0
0
0
0
0
0
0
0
0
0
0
0
0
0
0
0
0
0
0
0
0
0
0
0
0
0
0
0
0
0
0
0
0
0
0
0
0
0
0
0
0
0
0
0
0
0
0
0
0
0
0
0
0
0
0
0
0
0
0
0
0
0
0
0
0
0
0
0
0
0
0
0
0
0
0
0
0
0
0
0
0
0
0
0
0
0
0
0
0
0
0
0
0
0
0
0
0
0
0
0
0
0
0
0
0
0
0
0
0
0
0
0
0
0
0
0
0
0
0
0
0
0
0
0
0
0
0
0
0
0
0
0
0
0
0
0
0
0
0
0
0
0
0
0
0
0
0
0
0
0
0
0
0
0
0
0
0
0
0
0
0
0
0
0
0
0
0
0
0
0
0
0
0
0
0
0
0
0
0
0
0
0
0
0
0
0
0
0
0
0
0
0
0
0
0
0
0
0
0
0
0
0
0
0
0
0
0
0
0
0
0
0
0
0
0
0
0
0
0
0
0
0
0
0
0
0
0
0
0
0
0
0
0
0
0
0
0
0
0
0
0
0
0
0
0
0
0
0
0
0
0
0
0
0
0
0
0
0
0
0
0
0
0
0
0
0
0
0
0
0
0
0
0
0
0
0
0
0
0
0
0
0
0
0
0
0
0
0
0
0
0
0
0
0
0
0
0
0
0
0
0
0
0
0
0
0
0
0
0
0
0
0
0
0
0
0
0
0
0
0
0
0
0
0
0
0
0
0
0
0
0
0
0
0
0
0
0
0
0
0
0
0
0
0
0
0
0
0
0
0
0
0
0
0
0
0
0
0
0
0
0
0
0
0
0
0
0
0
0
0
0
0
0
0
0
0
0
0
0
0
0
0
0
0
0
0
0
0
0
0
0
0
0
0
0
0
0
0
0
0
0
0
0
0
0
0
0
0
0
0
0
0
0
0
0
0
0
0
0
0
0
0
0
0
0
0
0
0
0
0
0
0
0
0
0
0
0
0
0
0
0
0
0
0
0
0
0
0
0
0
0
0
0
0
0
0
0
0
0
0
0
0
0
0
0
0
0
0
0
0
0
0
0
0
0
0
0
0
0
0
0
0
0
0
0
0
0
0
0
0
0
0
0
0
0
0
0
0
0
0
0
0
0
0
0
0
0
0
0
0.001463126697
-0.001463195629
1.104572018e-05
6.587283616e-05
-0.001467154108
-6.668505016e-05
0.0007357664655
0.000732199856
-7.915585781e-05
0.001454259051
7.310323522e-05
0.001488260497
1.046554655e-05
-0.0007438613318
-0.0007440593485
6.040947746e-05
-0.001498929849
-6.112773656e-05
0.000750238637
0.0007494094714
6.341362553e-05
0.0007386734929
0.0007374225484
0.00152241237
1.082967301e-05
-0.0007607656739
-0.0007614422908
5.913453723e-05
-0.00152675637
-5.811025981e-05
0.0007630939631
0.0007626381293
5.990035292e-05
0.0007504483983
0.0007513472021
0.001554947047
1.118415079e-05
-0.0007768917869
-0.0007777765396
5.573226332e-05
-0.001555293635
-5.676245097e-05
0.001556323822
0.001532932131
5.845456083e-05
0.0007943960889
-0.0007943981112
6.337618334e-06
-0.0003966429018
2.338651913e-06
-2.432878297e-06
0.0003967371282
0.0003963812648
-0.0007921642545
-6.029867e-06
5.553238783e-05
-0.001583570615
-5.543728223e-05
0.001583475509
0.001560280003
5.552212436e-05
0.0008119246062
-0.0008119246062
5.018382947e-06
-0.000811924667
1.250894534e-05
-1.250909261e-05
0.0008119248143
0.0003966037753
1.932191953e-06
-0.001622064455
0.0007443892554
2.545867579e-05
1.176868455e-05
8.976883887e-05
-0.003203749574
0.001618252687
0.001605150517
-5.314911246e-05
-5.627335652e-05
0.001585754233
5.567641559e-05
0.00145785678
-0.001457237213
1.617601765e-05
-2.278901535e-05
0.001383685116
2.2262314e-05
-0.001450925942
-7.684299002e-05
0.001448613074
-8.818600467e-05
0.001412189396
9.893585912e-05
1.151923845e-05
-0.0003674057253
-1.173452345e-05
0.0003676210103
-0.0007343032968
-3.332309253e-05
0.0007363123217
3.131406758e-05
-0.001466595611
-6.915498776e-05
0.0001964685799
-0.002922341954
-0.0002003394967
0.002926985063
-0.0002073650506
0.002881994122
0.0001996976466
0.00296579445
-0.002974108457
9.257232549e-05
-1.547844564e-05
1.541574227e-05
0.001488323201
1.558741868e-05
0.001464902863
-1.544867119e-05
1.267964198e-05
-0.0003714298895
-1.241104116e-05
0.0003711612886
-1.043470448e-05
-0.0003684027634
0.0003680128618
1.0824606e-05
-0.001498563569
-6.610275245e-05
0.0001920063378
-0.002988494438
-0.0001931795491
0.002989835421
0.002945796263
0.0001949482773
0.003037979248
-0.003041725542
9.151208883e-05
-1.555807711e-05
1.549566482e-05
0.001522474783
0.001492369206
-1.554077585e-05
-1.11310712e-05
0.001506549824
1.106727326e-05
-0.0007525872124
-0.0007538988139
1.814644842e-06
-0.0003771189167
-1.803680136e-06
0.0007539033593
-0.0003767954074
-1.945714792e-06
-0.0003718608667
0.0007448115
1.665931906e-06
-0.0003726708504
1.057226091e-05
-0.0003791223828
-1.063496366e-05
0.0003791850856
-1.2332723e-05
-0.0003753893702
0.000374821373
1.290072021e-05
-0.001526916548
-6.365777109e-05
0.0001854941385
-0.003037619578
-0.0001880825606
0.003046180649
0.003000433058
0.0001907552742
0.003105659003
-0.003106318447
9.044922713e-05
-1.576317517e-05
1.570227911e-05
0.001555007943
0.001526666318
-1.554869015e-05
-1.071288929e-05
0.00153911483
1.100861388e-05
-0.0007692970753
-0.0007701134792
1.155554529e-06
-0.0003851451996
-1.231897258e-06
0.0003852215423
-1.498642363e-06
-0.0003811410337
0.0007626884425
1.566849121e-06
-0.0003816156156
1.919807352e-05
-0.0007710136159
-1.944710739e-05
0.0007712626498
-2.048747224e-05
-0.0007658105173
1.884766042e-05
0.000384223255
0.0003832270742
0.003172766327
9.076619653e-05
-0.001584505714
-0.001588622591
-1.612595322e-05
-0.0007940285255
1.590616111e-05
0.001588644407
0.001559563034
-1.582480554e-05
-6.281849377e-06
0.0007868849773
-0.0007869610225
6.357894536e-06
2.723058804e-06
-0.0003942305284
-2.339634302e-06
0.0003938471039
-1.934113043e-06
-0.0003887170905
0.0003888728091
1.778394446e-06
0.0003961388918
4.92069603e-06
-0.0003950503493
-6.009238532e-06
1.780041467e-05
-0.0007864046901
-1.754359653e-05
0.000786147872
-1.872012046e-05
-0.0007797049365
0.0007797091084
1.871594853e-05
0.003190214236
8.480418112e-05
-0.001565106059
-0.001622064455
-1.354272593e-05
-0.000810139849
1.354272592e-05
0.001622064455
-0.0007972725217
0.001591953348
-1.61202532e-05
-6.326614513e-06
0.0008027215783
-0.0008026475634
6.252599615e-06
1.294802459e-06
-0.0003988619402
-2.308796544e-06
0.0003998759343
-3.307773181e-06
-0.0003952127536
0.000395684078
2.836448824e-06
0.001655064144
-0.001655064144
8.868343509e-06
-0.001655064144
2.384915986e-05
-2.384915985e-05
0.001655064144
0.0008122017151
1.250886317e-05
-3.026399759e-06
0.000727026386
2.443333632e-06
-0.0003626564292
-0.0003637868906
3.53086924e-06
0.0007315108628
-3.452006406e-06
-0.0003661782358
-0.0003654114898
0.0007353986733
1.078665942e-05
-1.230564549e-05
-0.0007338796872
0.0007280381238
-0.0007285974182
-2.467105379e-06
-0.0003684718228
-1.012225973e-05
0.0003681593781
-0.0003666324326
0.0003669379551
1.121371589e-05
-6.918206605e-05
-0.001460919131
6.763402223e-05
0.0007330869995
0.0007293801753
-2.738277096e-05
0.000365841659
2.609528675e-05
-0.0007311866074
1.12667904e-05
-0.0003686290508
-1.11095624e-05
-0.0003714650261
-2.293434081e-06
0.0007437849247
-0.0003719721793
-0.0007378176468
-2.009503869e-06
0.0007378871142
1.940036426e-06
1.075739583e-05
0.001477688596
-1.082155852e-05
-0.001477624433
-3.281585178e-06
2.796569836e-06
-0.000368637838
-0.0003686947934
1.515340737e-06
-0.0003714637843
-1.516582495e-06
0.0007315967081
3.191110908e-06
-0.0003654037025
-0.0003658532472
0.0007375392021
-3.150515741e-06
-0.0003689442785
-0.0003687259931
-0.0003744968408
-1.169367203e-05
0.0003738577898
-0.0003726363869
0.0003721021792
1.321384968e-05
-3.178991154e-05
-0.0007445987901
0.0007447429634
3.164573828e-05
-1.286228815e-05
1.303977605e-05
-0.0003728138748
1.215527564e-05
-0.000374869024
-1.178309243e-05
1.145084931e-05
-0.0003685868223
-0.0003716519629
-1.264021475e-05
-0.0007425316335
-3.179377048e-05
0.0007425354924
-0.0003806719275
-1.787443086e-06
0.0007612326991
-0.0003802719709
-0.0003777304213
0.0007555652066
2.099389603e-06
-0.00037811953
0.001511237178
-1.077420221e-05
-0.0007554209988
-0.000756173048
-1.750891659e-06
1.825802376e-06
-0.000377805332
1.127646687e-06
-0.000380595548
-1.204026176e-06
1.443457444e-06
-0.0003717889834
-0.0003772731891
-1.596619271e-06
-0.0007637906302
-2.029842115e-05
0.0003819294428
0.0003816721363
-0.0003793150818
0.000379194438
1.069290469e-05
-5.807938745e-05
-0.001514921139
5.831898046e-05
0.0007572600599
0.0007574214866
-2.220799582e-05
0.000378502272
2.163096685e-05
-0.0007572403247
2.153408236e-05
-0.0007637059623
-2.161875021e-05
1.252402241e-05
-0.000375758117
0.0003783477254
-0.0007569214765
-1.098336295e-05
-1.177326467e-05
-0.001511508019
-5.940920478e-05
0.000756789726
0.0007560481105
-0.0003884633739
-2.015415499e-06
0.0003885446763
-0.0003853312791
0.000385336445
1.150388615e-06
0.001542088048
-1.120474243e-05
-0.0007706425863
-0.0007709536082
-1.674222083e-06
1.447668939e-06
-0.0003851047259
2.865212426e-06
-0.0003882270411
-3.101545188e-06
1.124323942e-06
-0.0003811377109
-0.0003850620684
-1.757353208e-06
-0.0007792318336
-1.875118753e-05
0.0007792629007
-0.0007725140827
0.0007725164935
1.919566278e-05
-0.0003966146149
-3.617033488e-06
0.0003969238752
-0.0003937974775
0.0003939463628
2.574173472e-06
0.0007876970454
-6.279287703e-06
-0.0007876996071
-2.397075331e-06
-0.0003937678433
0.0003925287321
3.636186492e-06
-3.672322953e-06
3.439476223e-06
-0.0003935646307
3.169855286e-06
-0.0003959852105
-3.799259696e-06
2.553513086e-06
-0.0003884053912
-0.0003944740472
-3.428804132e-06
-4.479402339e-06
0.0003982212188
3.495585023e-05
-0.00158269801
-3.462345674e-05
0.0007912055833
0.000791160033
-0.0007867512763
0.0007864788639
1.807282709e-05
4.916085589e-06
-0.0003937632329
-0.0008187062338
8.904521119e-07
0.0008149301252
2.335425149e-06
5.502313146e-07
-0.0003991118151
0.0003996743102
7.323073778e-07
0.0008034547293
-6.476426384e-06
-0.0008033049174
1.278282084e-06
-0.0007938037576
0.0007942525351
-1.727059501e-06
-4.01475953e-09
-3.239758921e-07
-0.0003987838244
4.315341433e-06
-0.0008187388036
2.744791348e-07
-4.557250781e-06
2.534626773e-06
-0.0003945775251
-7.190295143e-07
-0.0003981469255
-0.0007933818197
3.658172139e-07
0.0007942942846
0.002903796665
-0.002919346013
9.521374376e-05
1.572514208e-05
0.001462988974
2.091280991e-05
0.001460204645
-1.887790034e-05
-1.273487788e-05
0.001456066031
-0.001455948173
1.261702023e-05
1.593352392e-06
-1.495915585e-06
0.000727940687
2.374614847e-06
0.0007375321325
-4.5080741e-06
5.261675487e-05
-0.0003602636508
1.201192163e-05
0.0002956349743
-0.0003775531803
-1.775738801e-05
0.0003829003294
1.241023893e-05
0.00147438345
-0.001474524855
1.089880012e-05
-2.011449377e-06
0.0007375411477
-1.956354436e-06
0.0007315970868
1.955975641e-06
0.0001054256728
-0.0003870922066
-3.857032247e-05
0.0003202368563
-0.001554837942
-6.222467173e-05
0.0001778459
-0.003066289306
-0.0001808099355
0.003107580873
0.003062795761
0.000185190485
0.0001040920654
-0.0003928554662
-3.546771184e-05
0.0003242311127
1.30197738e-05
-0.0007825541877
-1.344173598e-05
0.0003915548099
0.00039142134
-7.022510514e-06
-0.0003897886234
0.0003897190994
7.092034518e-06
2.699892877e-06
-0.0007929549909
-3.126721624e-06
4.221088443e-05
-0.001593498757
-3.903705337e-05
0.001590324926
-0.00158524605
3.542792049e-05
0.000792560221
0.0007922137588
-1.954513003e-06
0.0007315090213
0.0007270621091
1.557629284e-06
0.001451223846
-1.178522029e-05
-0.001452173503
-2.236371057e-06
0.0003646226752
2.992940832e-06
-0.0003653792449
0.0003797902265
1.111468168e-05
-5.919653146e-06
-0.000384985255
0.0003677641108
-1.056430344e-06
-0.0003683485762
1.640895782e-06
-3.88225231e-05
3.287311264e-05
-0.0007283538863
0.0003659354182
-0.0007317709249
-2.895298954e-05
-0.001456002874
-6.650210973e-05
0.0007275711839
0.0007257517336
-0.0003901980331
-7.321965493e-06
0.0003904974881
-1.096126016e-05
-0.0003886708411
0.0003896933601
9.938741226e-06
-5.777675531e-05
-0.001543889948
0.001544372096
5.729460687e-05
-2.087107014e-05
2.062690646e-05
-0.0007722699191
2.016540013e-05
-0.0007790628964
-2.033433737e-05
2.1030753e-05
-0.000765307188
-0.000771015081
-2.086960498e-05
-0.001542062125
-5.789849841e-05
0.001542183868
-6.237879787e-06
-0.0003962340157
0.0003975463769
4.925518561e-06
0.0003955075499
6.429934264e-06
-0.000395460891
-6.476593113e-06
9.308979326e-07
-0.000793130339
-1.142613861e-06
0.0003963553527
0.0003969867022
-0.0006997965038
-6.700984548e-06
0.0006997451232
6.752365063e-06
0.001505647302
2.86091547e-05
-3.640472256e-05
-1.722996176e-05
-0.0007339798881
-0.0007466418842
0.0007279158445
-0.0007429957405
2.586655534e-05
-0.0007317014746
-3.434080283e-05
0.0007327191849
-0.001468552875
-9.203339574e-05
0.0007359759733
0.0007083202276
4.640790081e-05
6.988216878e-05
-2.071850832e-05
2.151276102e-05
-0.0007005907565
-0.0004633495162
0.0005159662711
-2.750734961e-05
-0.0007334948536
2.592335624e-05
0.0003673687164
0.0003677101305
-1.74639831e-05
-7.455631632e-05
-0.0003713292168
-1.414328388e-05
1.139242298e-05
-0.0003748023194
-0.0003697268337
-8.000800125e-06
-0.0007300081789
-2.535319049e-05
0.0003645688989
0.0003632851209
-1.194894386e-05
-0.0003702217223
0.0003702833355
1.188733064e-05
-0.0003703121869
-1.19489452e-05
0.0003703121882
-1.027252309e-05
-0.0003783151152
0.0003782567541
1.033088422e-05
-0.0003790580662
-1.073927055e-05
0.0003795248136
-0.0003851385805
1.087742699e-05
-8.483564021e-06
0.0003827447175
-0.0003925461656
0.0004951699472
2.801891287e-06
-1.984800168e-05
-0.0007677393499
0.0007677365938
1.98507578e-05
-1.419533432e-05
9.407752404e-06
-0.0003877585837
1.104858193e-05
-0.0003857892832
-1.039787915e-05
-1.286594932e-05
3.791613513e-05
-0.0003794923274
0.0003544421416
-0.0003851954691
-1.609207186e-05
-0.0007673446338
-1.992709436e-05
0.0003837049897
0.0003837187368
-0.0003914307214
-4.607737425e-07
0.0003915867448
3.047503695e-07
1.956876727e-06
0.0007830035956
-2.02798197e-06
-0.0007829324904
-2.023222707e-06
0.0007868222152
-0.0007868969999
2.098007373e-06
1.185104992e-05
-0.000785963462
-1.203972708e-05
0.0007861521391
-0.0007832858718
1.253551121e-05
0.0003921265569
0.0003916435775
0.0005032306335
6.914617665e-08
-0.0003992077143
1.256262552e-06
-0.0003986100648
0.000399156968
-1.803165684e-06
2.446167378e-06
0.0007992583468
-2.519784901e-06
-0.0007991847293
-2.519933485e-06
0.0008025735793
2.146681855e-06
-0.0004009340197
-0.0004012663079
2.229548331e-06
0.0007943255553
-2.449673182e-06
-0.0007941054305
0.0007981552347
-0.0007980822208
2.37315347e-06
-0.0003972174496
5.554450671e-07
0.0003979182671
0.0003724967653
1.0731103e-06
9.370948427e-05
-0.0004672793598
0.0003628577942
-2.49090698e-06
-0.0003626032582
2.696789492e-06
0.0007293632655
-2.972059662e-06
-0.0003638753311
-0.0003652126642
2.864692594e-06
-3.488127064e-06
0.0003634812286
-2.98150691e-06
0.0003690825641
6.395708047e-06
7.482687435e-06
-2.900096485e-05
0.0003662341973
-0.0003447159199
0.0003650411769
2.446190904e-06
0.0007310158248
3.50187814e-06
-0.0003662165726
-0.0003656043408
7.401992497e-07
0.0007380963807
-0.0007385958779
-2.407020457e-07
1.411854463e-06
-1.832766205e-06
0.0003681850225
1.940549784e-05
0.0003681131517
-7.728423054e-06
-0.0003685121156
-1.701989802e-06
0.0003672325985
-0.0003673548196
0.0003674750944
1.291579676e-06
0.0007331230072
1.22501921e-06
-0.0007336078272
1.246267624e-06
-0.0003696575176
-0.0003680101351
5.711298119e-07
-1.206020514e-05
-0.0003679609321
0.0003670226448
1.299849245e-05
-0.0003668573487