/*--------------------------------*- C++ -*----------------------------------*\
| =========                 |                                                 |
| \\      /  F ield         | OpenFOAM: The Open Source CFD Toolbox           |
|  \\    /   O peration     | Version:  v1912                                 |
|   \\  /    A nd           | Website:  www.openfoam.com                      |
|    \\/     M anipulation  |                                                 |
\*---------------------------------------------------------------------------*/
FoamFile
{
    version     2.0;
    format      ascii;
    class       volVectorField;
    location    "2.66";
    object      U;
}
// * * * * * * * * * * * * * * * * * * * * * * * * * * * * * * * * * * * * * //

dimensions      [0 1 -1 0 0 0 0];


internalField   nonuniform List<vector> 
12556
(
(99.9992438 0.001845867249 -3.777108592e-21)
(99.99887691 0.006480766399 -8.442920519e-26)
(99.99797444 0.01441340614 -3.774557879e-21)
(99.99634352 0.02805868548 -3.757665483e-21)
(99.99972089 0.02283982781 3.636467729e-21)
(99.9981107 0.03869759162 0)
(99.99703745 0.06396101041 0)
(99.99662424 0.09959443086 -6.52450828e-21)
(99.99549166 0.1482626982 7.688448759e-22)
(99.99450237 0.2104888642 -5.159271457e-21)
(99.99413937 0.2817654714 5.876429509e-22)
(99.99515555 0.3505096116 0)
(99.99763733 0.3995142676 0)
(100.0006371 0.4138382867 6.834905586e-22)
(100.0036003 0.3901498341 -1.286753028e-21)
(100.0051631 0.3376817619 8.737730987e-22)
(100.0054923 0.2724246149 0)
(100.0052589 0.2079668764 1.530153722e-21)
(100.0050593 0.1502983062 6.305625232e-21)
(100.0027283 0.107164741 -1.796462802e-21)
(100.0113854 0.1240969012 -1.567821692e-20)
(100.0079419 0.07704501157 0)
(100.0059451 0.04139836486 -1.978806251e-21)
(100.0057391 0.01314365355 -1.394514591e-20)
(99.99329306 0.004601641039 1.511641017e-20)
(99.98941437 0.01662280035 3.779712121e-21)
(99.98101547 0.03774293972 2.643069305e-20)
(99.96654292 0.07551552551 -1.132128613e-20)
(99.96782255 0.1064134532 3.661273599e-21)
(99.94474466 0.1828108773 -3.477629791e-23)
(99.91407245 0.302741274 0)
(99.89625688 0.4155129822 -6.51450118e-21)
(99.85773983 0.625906132 -6.108158991e-21)
(99.82103885 0.901067631 -1.085876112e-20)
(99.79976738 1.226308329 -4.603899556e-21)
(99.8148625 1.553720618 -4.743630276e-21)
(99.87893472 1.797821154 -6.247874e-21)
(99.96772602 1.883572872 -1.86454066e-22)
(100.0589026 1.79369052 -4.395645887e-22)
(100.1211425 1.561459545 4.481511665e-21)
(100.1428289 1.260270064 -9.06889221e-21)
(100.1325502 0.9648358585 0)
(100.1465292 0.7392180906 -2.693714769e-20)
(100.1068238 0.5106675254 5.212249246e-20)
(100.1070841 0.3562576293 1.518212496e-20)
(100.0762533 0.2204148731 3.142576861e-20)
(100.0579759 0.1187603091 -3.151877927e-20)
(100.0509827 0.03771178383 1.592474499e-20)
(99.98284349 0.004861940851 -1.50827455e-20)
(99.97201518 0.01899780976 -3.026532844e-20)
(99.94894864 0.04680202876 -6.799575366e-20)
(99.91068441 0.09760948934 9.050779582e-20)
(99.88747414 0.1615592808 -7.479445072e-21)
(99.82067181 0.2894932548 -7.319641025e-21)
(99.72710733 0.4907537064 -1.27247627e-20)
(99.66849755 0.7185423771 0)
(99.54569763 1.109005569 2.524306398e-20)
(99.42513692 1.635322808 1.12916672e-20)
(99.35433757 2.298694616 5.824929709e-19)
(99.42146676 2.996390082 1.059998966e-22)
(99.66092295 3.518490765 7.167438709e-21)
(100.0107608 3.705248859 3.606808164e-22)
(100.3339117 3.500427195 -2.008243897e-21)
(100.534221 3.006356601 1.733453343e-20)
(100.5908254 2.390317671 -9.780386687e-21)
(100.5388407 1.78446445 -2.364644965e-20)
(100.488057 1.273292739 -1.615731238e-19)
(100.3650017 0.8662677457 -3.617206929e-20)
(100.2981989 0.5435468608 -1.562844765e-20)
(100.214844 0.33451268 3.55522785e-20)
(100.1640466 0.1801087948 -4.002227409e-21)
(100.141744 0.05686750299 0)
(99.97343139 0.001137569038 -7.591046178e-21)
(99.95284201 0.008823766327 5.317130451e-20)
(99.90932319 0.03376562538 -1.520899533e-20)
(99.8379122 0.08447063184 0)
(99.77872165 0.1716485343 0)
(99.64658269 0.3319478384 -5.894939496e-20)
(99.45997657 0.5922278688 -1.180865574e-19)
(99.29999618 0.9200468567 2.795988671e-20)
(99.02317363 1.4726585 0)
(98.71960855 2.298795265 -6.666796758e-19)
(98.52777718 3.419758177 -8.973204379e-20)
(98.6543711 4.691842399 -9.758021242e-19)
(99.29020855 5.651403705 5.49206264e-19)
(100.1975905 5.879525584 2.448549131e-19)
(100.9266629 5.384858934 3.187307686e-21)
(101.2969769 4.491805465 5.950523898e-19)
(101.3547693 3.458953288 2.629903275e-19)
(101.2147152 2.512066854 0)
(101.0233328 1.702605155 5.929220662e-20)
(100.7588315 1.130107547 -4.6114754e-20)
(100.5679954 0.6604989451 -4.011757049e-20)
(100.4106039 0.4010164718 2.035146844e-20)
(100.312395 0.2137182122 -4.08843754e-21)
(100.2673574 0.06692950625 0)
(99.97440632 -0.007469267487 0)
(99.94256432 -0.01682324204 0)
(99.87595739 -0.007327477333 7.64663021e-21)
(99.76550788 0.03001845173 1.157592951e-20)
(99.66111678 0.1255793857 1.91582958e-20)
(99.44633874 0.2897781043 0)
(99.14285833 0.5621753732 0)
(98.83659078 0.9581719982 1.745721348e-19)
(98.31209957 1.660284141 0)
(97.68265454 2.809580609 -1.630656565e-18)
(97.1486365 4.584243455 -1.567495533e-18)
(97.33885902 6.822117115 0)
(98.79848444 8.60800117 0)
(100.8739313 8.701394344 3.390731951e-19)
(102.2120328 7.476356934 -2.492237268e-18)
(102.6698831 5.870354181 9.961822293e-20)
(102.5634902 4.355986954 -1.222946316e-19)
(102.1655796 3.03081649 -6.4657275e-22)
(101.7290162 1.949220906 -9.940256437e-20)
(101.263193 1.258076124 8.292390488e-21)
(100.8849281 0.675500007 0)
(100.634485 0.4044856236 4.183475306e-21)
(100.4776117 0.210975596 -3.141546038e-21)
(100.4044679 0.06522111726 -1.042162125e-21)
(99.99624338 -0.02123403527 0)
(99.95303029 -0.05861843479 0)
(99.86380288 -0.07816184611 -1.533460196e-20)
(99.71387197 -0.07067645794 3.114781663e-20)
(99.55419726 0.01519281784 0)
(99.25438557 0.1501559687 0)
(98.81889483 0.3923196711 2.433973299e-20)
(98.33453508 0.7998493477 0)
(97.48270971 1.546264702 -2.297615503e-19)
(96.2698417 2.918715638 9.689837797e-21)
(94.92104656 5.398411267 1.492712109e-18)
(94.60013417 9.361416648 1.213494511e-19)
(97.78585834 13.25937623 7.316263764e-20)
(102.70418 12.70481027 0)
(104.7868309 9.576025706 -1.295511665e-18)
(104.885144 6.856492895 1.539153994e-19)
(104.2565096 4.814846851 0)
(103.4018105 3.226551134 2.740419732e-19)
(102.5413037 1.92581727 2.566885894e-20)
(101.8219076 1.202795443 -1.725267504e-20)
(101.2117993 0.5714964126 0)
(100.8527385 0.3330486855 0)
(100.6309118 0.1656552454 -1.06031186e-21)
(100.5269999 0.05005303603 -3.186541354e-21)
(100.0489646 -0.03978588644 3.742459774e-21)
(99.99563175 -0.1152708621 -3.768809747e-21)
(99.88684499 -0.176576607 7.682040998e-21)
(99.70244905 -0.215054857 -2.812377771e-20)
(99.4874287 -0.1595489045 7.085857084e-23)
(99.10962436 -0.08667978615 2.394137754e-20)
(98.55444683 0.07806661909 -3.261490367e-20)
(97.87821861 0.421676857 3.670835836e-19)
(96.67363617 1.044889702 -4.828307459e-19)
(94.70363629 2.286985563 -1.187570448e-18)
(91.82833971 4.718413796 1.826750286e-19)
(88.25597415 10.40830054 -1.413219965e-21)
(93.49832354 21.98530551 -8.637229554e-20)
(108.030916 18.62658572 9.746365127e-20)
(109.3394403 10.97821789 0)
(107.961367 6.897305764 8.579969732e-19)
(106.3395323 4.499710602 8.200371984e-19)
(104.7830054 2.879670772 1.684288167e-19)
(103.3627717 1.557091172 0)
(102.3576576 0.9102997368 9.552587969e-21)
(101.4948993 0.3451892578 2.804190807e-21)
(101.0258152 0.1789808666 -3.312400829e-21)
(100.7421975 0.07639090198 -3.766515708e-21)
(100.6082633 0.02126378024 9.052077113e-21)
(100.1411298 -0.06214906854 -3.742858305e-21)
(100.080152 -0.1837123556 3.770169845e-21)
(99.95719492 -0.2965742555 -4.779140416e-21)
(99.74804795 -0.3937292616 -3.206375101e-21)
(99.48496247 -0.387150892 1.365524438e-20)
(99.04901164 -0.4029241569 8.106850908e-21)
(98.40621563 -0.3616839053 -3.926067189e-20)
(97.58879274 -0.1654258808 1.565165929e-20)
(96.11668304 0.1496895184 3.185360762e-20)
(93.60988923 0.760714168 3.920474272e-20)
(89.60532711 1.649624418 0)
(82.34996762 2.945122963 0)
(122.0662326 22.14025706 0)
(115.7482197 9.40340746 6.428912101e-19)
(111.350423 5.19605586 0)
(108.3734827 3.145225042 0)
(106.05601 1.864661371 -3.99223648e-19)
(104.034292 0.815802139 -5.128020122e-21)
(102.7637258 0.3933547626 2.163012883e-20)
(101.671635 0.002871138959 -3.433336034e-21)
(101.1132891 -0.04731978694 2.804487006e-21)
(100.7811184 -0.05102357971 -5.401988958e-22)
(100.6219953 -0.01973445048 -8.523377473e-21)
(100.2789617 -0.08685487921 -1.804227287e-21)
(100.2137205 -0.2593691019 -1.35550184e-21)
(100.0836868 -0.4295743309 -4.641260126e-22)
(99.86230224 -0.5927417579 1.403604871e-21)
(99.56442292 -0.6482644773 -2.524617313e-23)
(99.09840124 -0.7682786486 0)
(98.41446325 -0.874075257 -1.489373479e-20)
(97.53653098 -0.8718905251 2.504143886e-19)
(95.97623281 -0.9435831908 2.317672762e-19)
(93.43792147 -1.078042938 2.343624901e-20)
(89.92983299 -1.673844755 2.136737893e-19)
(85.98099071 -3.640927389 -1.035717934e-20)
(135.0085862 7.818795164 3.289967416e-20)
(120.4248007 3.287703569 -3.642754627e-19)
(113.6885311 1.611633736 8.210396303e-20)
(109.7128426 0.783941845 -7.090985371e-20)
(106.8600563 0.2844793141 -4.789570731e-19)
(104.3896405 -0.2133772934 -5.274444576e-21)
(102.9416985 -0.2988201613 1.223063714e-20)
(101.6937214 -0.4218387925 1.186367844e-21)
(101.0828585 -0.3240173333 0)
(100.7220326 -0.2048400039 4.308330042e-21)
(100.5467052 -0.06940591268 4.253067086e-21)
(100.4655157 -0.1121379845 3.556429103e-21)
(100.399782 -0.3367841863 5.270491289e-23)
(100.2704437 -0.5654733398 0)
(100.0504796 -0.7966021451 1.84808137e-22)
(99.73358164 -0.9208432858 -1.875729976e-21)
(99.26778157 -1.147529719 1.989821363e-21)
(98.59176106 -1.40105468 1.672734591e-20)
(97.7264997 -1.595228072 -6.021948362e-20)
(96.23279691 -2.011114376 -2.595605645e-19)
(93.94702841 -2.658780102 -2.655582092e-21)
(91.18502751 -3.745867285 -4.083049557e-19)
(88.70898275 -5.306321537 -4.534174584e-20)
(133.0584694 -7.893993555 1.125785033e-18)
(120.4473293 -4.162859129 -1.159531822e-18)
(113.8990403 -2.732755016 5.151870597e-19)
(109.8688511 -2.01688122 8.488708015e-19)
(106.9348235 -1.570846695 -3.24679931e-19)
(104.314516 -1.373474749 4.471293157e-20)
(102.8323361 -1.073005506 0)
(101.5324227 -0.8789394589 -1.161547286e-21)
(100.9157162 -0.6202142289 -4.776107999e-21)
(100.5499784 -0.3693090607 5.329780106e-22)
(100.3698344 -0.1226587797 0)
(100.7003636 -0.1362875692 -1.752050126e-21)
(100.6377168 -0.4105582599 1.766624761e-21)
(100.5162044 -0.6943020631 1.72448559e-21)
(100.3119189 -0.9901999474 -1.608018344e-21)
(99.98990288 -1.183064406 -1.851008449e-21)
(99.55178878 -1.506685332 0)
(98.92458105 -1.892481501 3.019287111e-20)
(98.12286705 -2.259047934 1.770139732e-19)
(96.77762867 -2.938549003 0)
(94.78464502 -3.89325315 7.261093002e-20)
(92.47059954 -5.123733485 -1.856207467e-19)
(90.4072737 -6.384472856 -4.338845304e-21)
(124.824363 -16.80629369 8.0634827e-19)
(116.9601978 -9.791236637 3.201417084e-19)
(112.1517278 -6.453725071 0)
(108.840355 -4.572004467 0)
(106.25327 -3.3244614 0)
(103.7978758 -2.466013255 0)
(102.4344767 -1.814151526 -2.904140933e-20)
(101.1850313 -1.31249442 -1.443028904e-20)
(100.6101754 -0.9021518525 1.089321559e-21)
(100.2630291 -0.5271312436 -3.432245117e-21)
(100.0894483 -0.1739624548 5.033366228e-22)
(100.9796958 -0.1577703447 6.446735521e-21)
(100.9233278 -0.4757855705 0)
(100.815089 -0.8057203707 -1.721124201e-21)
(100.6362682 -1.165294632 0)
(100.3185824 -1.416788642 0)
(99.93461038 -1.818224595 -5.509982739e-21)
(99.38585167 -2.311211461 -3.728067029e-21)
(98.67943513 -2.816075805 5.457561918e-20)
(97.52406639 -3.685396125 -2.857802669e-20)
(95.80853165 -4.848505282 -8.498772878e-21)
(93.75630274 -6.223098179 -3.291400235e-19)
(91.75536412 -7.510676669 -3.727185847e-19)
(115.8501167 -20.17967233 -8.224680052e-19)
(112.0686501 -12.7413954 -1.265395279e-18)
(109.2679015 -8.834808765 1.205278724e-18)
(106.9864606 -6.404437057 -4.211298423e-19)
(104.9882523 -4.666631919 5.809917609e-21)
(102.9302549 -3.334274739 2.303586961e-21)
(101.7948511 -2.430080298 -3.508649677e-20)
(100.6817913 -1.681806584 8.555618669e-21)
(100.1825049 -1.140449848 0)
(99.8719311 -0.6633279476 3.955382398e-21)
(99.71416501 -0.2184887536 0)
(101.2972113 -0.176064932 6.43852101e-21)
(101.2491673 -0.5317782498 1.017221942e-19)
(101.1570417 -0.90000396 -2.049181899e-19)
(101.0065033 -1.308696173 -5.404763941e-22)
(100.7247646 -1.604378225 -1.620698862e-21)
(100.397132 -2.063915903 0)
(99.94530017 -2.63536572 2.080322339e-20)
(99.34810189 -3.239058369 -3.007569059e-19)
(98.4094811 -4.233232146 -4.449838096e-19)
(96.99295089 -5.548766846 1.200341552e-19)
(95.23963903 -7.150956545 2.450826375e-19)
(93.36849362 -8.744879415 -2.3759055e-19)
(103.7634294 -29.44514149 -1.066840013e-19)
(107.482791 -18.86502269 -4.210324603e-20)
(107.2608888 -13.30030413 0)
(106.099919 -9.779425175 0)
(104.7962916 -7.345008929 1.053269084e-18)
(103.4287799 -5.458568392 0)
(101.8625171 -3.89381042 -6.945791301e-20)
(100.9910617 -2.861573787 0)
(100.0723799 -1.953717297 0)
(99.6612566 -1.318492332 1.229406473e-20)
(99.39709547 -0.7682947322 2.271966867e-21)
(99.26108543 -0.252975895 -7.350296058e-21)
(101.6443739 -0.1893886985 0)
(101.6059242 -0.5731350975 0)
(101.5327877 -0.9687875168 0)
(101.4126774 -1.40655932 0)
(101.1676235 -1.746617393 0)
(100.8993531 -2.250396259 0)
(100.5429872 -2.873935719 0)
(100.0718691 -3.53186696 0)
(99.3600987 -4.585274488 -3.695473237e-19)
(98.28064359 -5.976137213 -1.533984867e-21)
(97.00177197 -7.768190957 5.157215871e-19)
(95.74326379 -10.21577454 2.805290876e-19)
(96.72037776 -19.16048511 1.295763124e-19)
(102.3762978 -15.53362569 2.538125997e-20)
(103.4778935 -12.17668531 0)
(103.3077861 -9.580388204 -4.036871975e-19)
(102.696923 -7.507507779 0)
(101.8293703 -5.727787851 -4.420884492e-20)
(100.7342749 -4.159396697 -9.518859665e-20)
(100.1126192 -3.10415321 -3.596735986e-20)
(99.40346288 -2.113312724 -1.997857608e-20)
(99.07878386 -1.43325283 1.960455511e-20)
(98.86416153 -0.8379744964 0)
(98.75224226 -0.2758808429 1.964906303e-20)
(102.0124314 -0.1976688261 0)
(101.9843718 -0.5990853229 0)
(101.932324 -1.011616482 0)
(101.84442 -1.461426468 0)
(101.636067 -1.826902196 0)
(101.437042 -2.349791236 0)
(101.1789352 -2.974952259 -3.538616727e-22)
(100.839655 -3.640302172 1.633820581e-19)
(100.3780408 -4.641228489 -4.736886069e-19)
(99.64725704 -5.954128798 6.442844483e-19)
(98.9201702 -7.61307261 0)
(98.56884422 -9.852405878 -1.363352353e-19)
(98.10457937 -12.3492929 3.05469409e-20)
(100.241611 -11.93409106 -1.456237579e-19)
(101.077988 -10.3705339 -5.449157912e-19)
(101.1926405 -8.71132934 0)
(100.925971 -7.12485268 4.123437573e-21)
(100.3960227 -5.618799415 -2.482538966e-20)
(99.64825196 -4.18232767 0)
(99.23863335 -3.183669277 0)
(98.71345173 -2.172572884 -3.683693969e-20)
(98.46665328 -1.486698391 1.8177207e-20)
(98.29946392 -0.8722484815 7.641989665e-22)
(98.21081191 -0.287236289 -1.351064614e-20)
(102.3919659 -0.2010830594 0)
(102.3738691 -0.6097378984 0)
(102.3420866 -1.028716258 0)
(102.2849221 -1.477621225 0)
(102.1121488 -1.855018557 0)
(101.9753145 -2.374976351 0)
(101.8035609 -2.976489066 0)
(101.5779927 -3.606550595 -2.315120587e-21)
(101.3125221 -4.485549402 1.344083442e-19)
(100.8536646 -5.58801984 3.357422346e-20)
(100.4343364 -6.889623691 4.924105073e-19)
(98.82170359 -8.168184084 7.456963697e-21)
(98.87721658 -9.39764092 1.560769037e-19)
(99.47657509 -9.371865952 -1.709687741e-20)
(99.74148467 -8.661448166 3.049196445e-21)
(99.74536689 -7.638994105 2.100648639e-19)
(99.55536222 -6.466051146 1.118763276e-19)
(99.19692723 -5.265501118 0)
(98.67605659 -4.029137798 -3.029943654e-20)
(98.42341459 -3.136220857 4.663539998e-20)
(98.03551182 -2.152004145 1.139525295e-20)
(97.85364044 -1.487661376 1.95079856e-20)
(97.72687272 -0.8754594885 -2.214899207e-20)
(97.65816996 -0.2883701664 0)
(102.7739989 -0.2001928217 0)
(102.7646997 -0.6067996119 0)
(102.7504005 -1.022854949 0)
(102.719898 -1.46057801 0)
(102.5792798 -1.838251945 0)
(102.4948422 -2.338502017 0)
(102.391169 -2.899035658 0)
(102.2468986 -3.478441617 1.619793942e-20)
(102.1067965 -4.212459106 7.860970653e-19)
(101.8144077 -5.070806256 2.774717226e-20)
(101.4699388 -5.998933378 7.633398642e-19)
(100.2435504 -6.693442941 -6.303725605e-19)
(99.30519724 -7.460219624 -2.136983102e-19)
(99.22932446 -7.58850519 -4.284062445e-21)
(99.03074084 -7.238408527 3.278752151e-20)
(98.80666591 -6.582318759 0)
(98.53775113 -5.722140737 9.083975378e-22)
(98.23364109 -4.800997791 0)
(97.8446128 -3.775661864 0)
(97.68331764 -2.995801816 0)
(97.39379776 -2.071597533 3.921296682e-20)
(97.26145346 -1.447058339 -3.667089653e-20)
(97.1656048 -0.8534044465 -2.49080813e-21)
(97.11229549 -0.2815969743 2.499097237e-21)
(103.1506023 -0.1957191034 0)
(103.1486631 -0.5926094312 0)
(103.1484614 -0.9979626083 0)
(103.1394584 -1.416251121 0)
(103.0266152 -1.784322599 0)
(102.9822818 -2.253766459 0)
(102.9282061 -2.763975264 0)
(102.8347606 -3.289419342 0)
(102.7574073 -3.891153121 2.769449339e-20)
(102.5390266 -4.540287347 -1.895398929e-19)
(102.1972946 -5.197268723 0)
(101.3837308 -5.652427501 1.357710951e-20)
(99.22320482 -6.143717004 0)
(99.19691206 -6.285382351 2.419254188e-22)
(98.64277443 -6.085659458 1.634148048e-19)
(98.17809336 -5.631971307 -8.195348547e-24)
(97.79256017 -5.002413735 0)
(97.47616674 -4.302139532 0)
(97.14235351 -3.461949507 0)
(97.02598355 -2.792465886 0)
(96.80091038 -1.948532657 0)
(96.70299842 -1.374139545 0)
(96.62946962 -0.8132947862 0)
(96.58723998 -0.2695468261 0)
(103.5154319 -0.1884063245 0)
(103.519335 -0.5695769087 0)
(103.5297945 -0.9582144302 0)
(103.5368781 -1.351412467 0)
(103.4461392 -1.70249547 0)
(103.4297745 -2.135014769 0)
(103.4073172 -2.591660994 0)
(103.3429519 -3.05809871 0)
(103.282591 -3.561118368 0)
(103.0759934 -4.060473316 0)
(102.70943 -4.530523957 -2.046940874e-21)
(101.8253923 -4.872115395 9.553467043e-20)
(99.10556259 -5.221651466 4.974611388e-20)
(99.20435177 -5.287481505 2.21574657e-21)
(98.38404266 -5.146892602 0)
(97.73128281 -4.819451338 0)
(97.23928758 -4.356663431 0)
(96.87941805 -3.815100749 0)
(96.55782144 -3.126640345 0)
(96.45373283 -2.558964348 0)
(96.26364044 -1.801849689 0)
(96.18637216 -1.281349238 0)
(96.12655964 -0.7605630366 0)
(96.09248636 -0.2527711041 0)
(103.8637186 -0.1790006863 0)
(103.8719357 -0.5400940015 0)
(103.8897299 -0.907747584 0)
(103.907713 -1.27264317 0)
(103.8334294 -1.601943807 0)
(103.8342325 -1.995007414 0)
(103.8287529 -2.399751513 0)
(103.7760511 -2.807503132 0)
(103.7097996 -3.225848429 0)
(103.4809683 -3.621856076 0)
(103.062891 -3.974778786 0)
(101.6209241 -4.19912589 0)
(99.28685777 -4.490417256 0)
(99.17721233 -4.496615847 0)
(98.18843606 -4.386976264 0)
(97.40331324 -4.142703452 0)
(96.81823371 -3.791249648 0)
(96.40461695 -3.365547819 0)
(96.07078165 -2.79754645 0)
(95.95935481 -2.317152913 0)
(95.78329562 -1.645254838 0)
(95.71561123 -1.17843369 0)
(95.66260037 -0.7012128764 0)
(95.63319901 -0.2335755762 0)
(104.1921587 -0.1682152316 0)
(104.203252 -0.5064192971 0)
(104.2253486 -0.8503846525 0)
(104.2496226 -1.185756574 0)
(104.1867272 -1.490593925 0)
(104.1957968 -1.844247904 0)
(104.1958746 -2.202119644 0)
(104.142918 -2.554082762 0)
(104.0573925 -2.901699372 0)
(103.7955502 -3.217796611 0)
(103.3278761 -3.489693152 0)
(101.417115 -3.62875558 0)
(99.41983937 -3.871140367 -5.208292899e-35)
(99.14288556 -3.858871974 0)
(98.03749425 -3.766948452 0)
(97.15292022 -3.576359165 0)
(96.48985133 -3.301368085 0)
(96.02321698 -2.960958631 0)
(95.66284738 -2.488818251 0)
(95.53327668 -2.080834686 0)
(95.35720233 -1.488258609 0)
(95.29092745 -1.07259237 0)
(95.23954911 -0.6395643163 0)
(95.2122832 -0.2135163346 0)
(104.4987449 -0.1566772 0)
(104.5114616 -0.4705352999 0)
(104.5352773 -0.7894299965 0)
(104.561957 -1.095479753 0)
(104.5063544 -1.374823299 0)
(104.5167393 -1.691014839 0)
(104.5135977 -2.006856127 0)
(104.4531911 -2.308767854 0)
(104.341157 -2.598167333 0)
(104.0430454 -2.852503253 0)
(103.5307364 -3.065453349 0)
(101.2821822 -3.151318242 0)
(99.49368636 -3.355938572 0)
(99.10517492 -3.333063188 0)
(97.91555985 -3.253337418 0)
(96.95517324 -3.099397941 0)
(96.22779531 -2.878632564 0)
(95.71222726 -2.601619553 0)
(95.31977746 -2.206062355 0)
(95.16595451 -1.858087491 0)
(94.98086549 -1.337217004 0)
(94.9104261 -0.9688184856 0)
(94.85709054 -0.5786701099 0)
(94.83007345 -0.1936210476 0)
(104.7826006 -0.1448995363 0)
(104.7959087 -0.4340654904 0)
(104.8193836 -0.7276097344 0)
(104.8453418 -1.00542277 0)
(104.7939155 -1.259508752 0)
(104.8004708 -1.541143363 0)
(104.7881659 -1.81936628 0)
(104.7157772 -2.077933742 0)
(104.5740011 -2.319734695 0)
(104.2401989 -2.52616982 0)
(103.6865696 -2.695208076 0)
(101.1982098 -2.74838118 0)
(99.53000503 -2.924234326 -6.356355871e-35)
(99.06551916 -2.893794377 0)
(97.81385985 -2.82312206 0)
(96.79465778 -2.695465727 0)
(96.01443256 -2.514392344 0)
(95.45514477 -2.285436225 0)
(95.0294386 -1.951420747 0)
(94.84866184 -1.653197848 0)
(94.64922079 -1.196034491 0)
(94.57107328 -0.8703469551 0)
(94.51344517 -0.5205602812 0)
(94.48535234 -0.1745670078 0)
(105.0437704 -0.1332821982 0)
(105.0568497 -0.3982583224 0)
(105.078439 -0.6670287771 0)
(105.1013111 -0.9182799987 0)
(105.0515893 -1.148153923 0)
(105.0508073 -1.398537563 0)
(105.0254177 -1.642983285 0)
(104.9385294 -1.86505511 0)
(104.7662182 -2.067935444 0)
(104.399242 -2.236993536 0)
(103.8063664 -2.372568355 0)
(101.1515014 -2.405663602 0)
(99.54259987 -2.559161951 0)
(99.02490038 -2.523535954 0)
(97.72704882 -2.459902475 0)
(96.66145761 -2.351882177 0)
(95.83772455 -2.200724736 0)
(95.24000918 -2.008962139 0)
(94.7820302 -1.724828727 0)
(94.57377567 -1.467961621 0)
(94.35717975 -1.066807503 0)
(94.26925951 -0.7791119276 0)
(94.20593422 -0.4664923638 0)
(94.17588417 -0.1567771987 0)
(105.2829743 -0.12212613 0)
(105.2951912 -0.3640288979 0)
(105.313792 -0.6092166383 0)
(105.3318998 -0.8359607556 0)
(105.2820093 -1.043172005 0)
(105.2716221 -1.265637165 0)
(105.2310537 -1.479887281 0)
(105.1279682 -1.671647826 0)
(104.9258899 -1.842681862 0)
(104.529077 -1.982383032 0)
(103.8985258 -2.091989397 0)
(101.1321883 -2.112824639 0)
(99.54010394 -2.248639258 1.987841536e-35)
(98.98402438 -2.209683771 0)
(97.65164976 -2.151713961 0)
(96.54896946 -2.058834899 0)
(95.68928044 -1.930801941 0)
(95.05808879 -1.768363513 0)
(94.5698108 -1.525031106 0)
(94.33480676 -1.302658047 0)
(94.09988596 -0.9504106529 0)
(94.00116512 -0.6961233238 0)
(93.93140978 -0.4171605147 0)
(93.8988551 -0.1404909062 0)
(105.501405 -0.1116494285 0)
(105.512285 -0.3320210771 0)
(105.527145 -0.5552299612 0)
(105.5393644 -0.7597411259 0)
(105.4879307 -0.9460974374 0)
(105.4665633 -1.143810092 0)
(105.4099111 -1.331790977 0)
(105.2897422 -1.497960355 0)
(105.0594394 -1.642974508 0)
(104.6362267 -1.75947732 0)
(103.9695746 -1.848694255 0)
(101.1328398 -1.862065146 0)
(99.5279045 -1.983809455 0)
(98.94337588 -1.942820287 0)
(97.58524113 -1.88951623 0)
(96.45258996 -1.808588864 0)
(95.56305829 -1.698805519 0)
(94.90282951 -1.559852554 0)
(94.38661515 -1.350184488 0)
(94.12625065 -1.156674664 0)
(93.87285369 -0.8469355573 0)
(93.76299866 -0.6217550162 0)
(93.6865441 -0.372860825 0)
(93.65117977 -0.1258174472 0)
(105.7005873 -0.1020014986 0)
(105.7097871 -0.3026632315 0)
(105.7204234 -0.5057573293 0)
(105.7260533 -0.6904107978 0)
(105.6720547 -0.8578543818 0)
(105.6389669 -1.033837075 0)
(105.5659138 -1.199251662 0)
(105.428575 -1.343705368 0)
(105.1719732 -1.467444206 0)
(104.7254941 -1.565503842 0)
(104.0245252 -1.638598782 0)
(101.1478462 -1.647400687 0)
(99.50946806 -1.757856098 0)
(98.90327803 -1.715781008 0)
(97.52605552 -1.666367947 0)
(96.36900038 -1.595026492 0)
(95.45460974 -1.499878295 0)
(94.76923426 -1.379963514 0)
(94.22751823 -1.198268843 0)
(93.94347736 -1.028956105 0)
(93.67200863 -0.7560054155 0)
(93.55112338 -0.5559671047 0)
(93.46799835 -0.3336222046 0)
(93.4296859 -0.1127778861 0)
(105.8822746 -0.09327681407 0)
(105.8895551 -0.2762162934 0)
(105.8956857 -0.4612067925 0)
(105.8943357 -0.628390428 0)
(105.837032 -0.7788897923 0)
(105.7919227 -0.93598167 0)
(105.7025676 -1.082143537 0)
(105.5484206 -1.208188409 0)
(105.2675961 -1.31455778 0)
(104.800515 -1.397885997 0)
(104.0671679 -1.458165523 0)
(101.1729453 -1.46409494 0)
(99.48716327 -1.565421232 0)
(98.86391227 -1.52297444 0)
(97.47271719 -1.476781284 0)
(96.29570736 -1.413204008 0)
(95.36054587 -1.329937245 0)
(94.65337457 -1.225588178 0)
(94.08847256 -1.067241586 0)
(93.78251255 -0.9182168345 0)
(93.49366935 -0.6769777221 0)
(93.36211331 -0.4984662264 0)
(93.27252143 -0.2993066786 0)
(93.23122994 -0.1013372907 0)
(106.0483238 -0.08552956256 0)
(106.0535258 -0.2528197559 0)
(106.0550151 -0.4217865428 0)
(106.0465169 -0.5738552984 0)
(105.9853666 -0.7093467137 0)
(105.9282223 -0.8501901936 0)
(105.8228488 -0.979931629 0)
(105.6526043 -1.090548836 0)
(105.3496206 -1.182794799 0)
(104.8641249 -1.254360294 0)
(104.1003409 -1.304473739 0)
(101.2049081 -1.308493925 0)
(99.46271215 -1.402379139 0)
(98.8252871 -1.359994637 0)
(97.42411639 -1.316381232 0)
(96.2308079 -1.25914515 0)
(95.27823559 -1.185609987 0)
(94.55210994 -1.094035592 0)
(93.96612945 -0.955197381 0)
(93.63995161 -0.8231367735 0)
(93.3345448 -0.6091072362 0)
(93.19280755 -0.4488298425 0)
(93.0970426 -0.2696873091 0)
(93.05280743 -0.09143023788 0)
(106.2007022 -0.07878348966 0)
(106.2037195 -0.2325241216 0)
(106.2005275 -0.3875616959 0)
(106.1848684 -0.5268025172 0)
(106.1194155 -0.6491682141 0)
(106.0504189 -0.7762058076 0)
(105.9294042 -0.8917272037 0)
(105.7439027 -0.9898766776 0)
(105.4207596 -1.070663894 0)
(104.9186489 -1.132891897 0)
(104.1262736 -1.175052902 0)
(101.2412436 -1.177792292 0)
(99.4372409 -1.265437789 0)
(98.78723002 -1.223229918 0)
(97.37936229 -1.18164924 0)
(96.17281388 -1.129650731 0)
(95.2055547 -1.064114718 0)
(94.46282809 -0.9829843215 0)
(93.8576626 -0.860418979 0)
(93.51283233 -0.7424561937 0)
(93.19163265 -0.5516195428 0)
(93.04025557 -0.4065798394 0)
(92.9386411 -0.2444941697 0)
(92.89152897 -0.08297516604 0)
(106.3412008 -0.0730479906 0)
(106.3419777 -0.2153323444 0)
(106.3341304 -0.3585040248 0)
(106.3114053 -0.4871842111 0)
(106.2413635 -0.5981621347 0)
(106.1608288 -0.7135899908 0)
(106.0247846 -0.8169884214 0)
(105.8246379 -0.9051352513 0)
(105.4832323 -0.9767086931 0)
(104.9660124 -1.031567299 0)
(104.1468303 -1.067611079 0)
(101.2797026 -1.069916381 0)
(99.41128501 -1.151813292 -2.471694664e-36)
(98.74957394 -1.109673468 0)
(97.33779247 -1.069793258 0)
(96.12052911 -1.022165375 0)
(95.14073853 -0.9631838137 0)
(94.38326403 -0.890603455 0)
(93.76063496 -0.7814787227 0)
(93.39854118 -0.6750140504 0)
(93.06235773 -0.5038222284 0)
(92.90187907 -0.3712359455 0)
(92.79473881 -0.223458598 0)
(92.74484212 -0.07589154302 0)
(106.4722844 -0.06830608397 0)
(106.4707429 -0.2011920643 0)
(106.458254 -0.3345206195 0)
(106.4285758 -0.4547388483 0)
(106.3532915 -0.5560843279 0)
(106.2615409 -0.6618754005 0)
(106.1112885 -0.755475536 0)
(105.8967835 -0.835328775 0)
(105.5388415 -0.8995704986 0)
(105.0077543 -0.9486298059 0)
(104.1636543 -0.9800691248 0)
(101.3180322 -0.9831350077 0)
(99.38510073 -1.059034793 0)
(98.71232828 -1.016866453 0)
(97.29894698 -0.9785627376 0)
(96.07295012 -0.9345922805 0)
(95.08231577 -0.8809196141 0)
(94.3117557 -0.8154622097 0)
(93.6727295 -0.717263747 0)
(93.29474026 -0.619820774 0)
(92.94388408 -0.4649569871 0)
(92.77480011 -0.3423449247 0)
(92.66239359 -0.2063047903 0)
(92.60975803 -0.07008849585 0)
(106.5938045 -0.06458891712 0)
(106.5900198 -0.1901365689 0)
(106.5730016 -0.3155587535 0)
(106.536574 -0.4297296487 0)
(106.4571376 -0.5225868333 0)
(106.3544479 -0.6206329757 0)
(106.1907083 -0.7073691945 0)
(105.9622139 -0.779473013 0)
(105.5890873 -0.8381121521 0)
(105.0451176 -0.8826795992 0)
(104.1783044 -0.9108593899 0)
(101.3541891 -0.9156370879 0)
(99.35907654 -0.9850695822 0)
(98.67559671 -0.9429433177 0)
(97.26247212 -0.906118753 0)
(96.02918585 -0.8651668594 0)
(95.0289693 -0.8156636545 0)
(94.24674639 -0.7555991038 0)
(93.59203675 -0.6663789539 0)
(93.19923261 -0.5757672518 0)
(92.83552536 -0.434863658 0)
(92.65833359 -0.3195310401 0)
(92.54095798 -0.1928789233 0)
(92.48576069 -0.06553686832 0)
(106.7152553 -0.06175201816 0)
(106.7088393 -0.1818968745 0)
(106.68706 -0.3014042888 0)
(106.6431533 -0.4100774713 0)
(106.5552607 -0.4975884763 0)
(106.4412359 -0.5898621591 0)
(106.2642042 -0.671615923 0)
(106.0225216 -0.7371638233 0)
(105.6352502 -0.7915609302 0)
(105.0792117 -0.8328360348 0)
(104.1921248 -0.8590042997 0)
(101.3866 -0.8656832806 0)
(99.33384027 -0.928580635 0)
(98.63937666 -0.8866957956 0)
(97.22800396 -0.8510926597 0)
(95.98842057 -0.8125143563 0)
(94.9794655 -0.7661423584 0)
(94.18626914 -0.7098868407 0)
(93.51715226 -0.6276902162 0)
(93.11025167 -0.5428149373 0)
(92.72984355 -0.4112380238 0)
(92.54413538 -0.3023386318 0)
(92.4216937 -0.1827628072 0)
(92.36360491 -0.06204014216 0)
(106.8089231 -0.06023698657 0)
(106.800833 -0.177218478 0)
(106.7753827 -0.2929463392 0)
(106.726818 -0.4008390266 0)
(106.6471303 -0.4804634725 0)
(106.523347 -0.5689597782 0)
(106.333391 -0.6476854611 0)
(106.0790381 -0.7079022692 0)
(105.6785028 -0.7593798659 0)
(105.1111503 -0.7985280375 0)
(104.206117 -0.8238327543 0)
(101.4145162 -0.832014074 0)
(99.30998606 -0.8888914009 0)
(98.60346213 -0.8474115365 0)
(97.19506027 -0.8125749837 0)
(95.94986181 -0.7756543443 0)
(94.93273101 -0.7314381024 0)
(94.12920395 -0.677787306 0)
(93.4465075 -0.6007089167 0)
(93.02637759 -0.5199567863 0)
(92.64668139 -0.3987260694 0)
(92.45519989 -0.2915920612 0)
(92.32887744 -0.1767086291 0)
(92.26898235 -0.06005229963 0)
(106.9876079 -0.05864027929 0)
(106.9758443 -0.1734211152 0)
(106.9432205 -0.2864303911 0)
(106.8815491 -0.3893573512 0)
(106.7326571 -0.4720521447 0)
(106.5983866 -0.5581759141 0)
(106.3968457 -0.6358726595 0)
(106.1330306 -0.6913554762 0)
(105.7199138 -0.7411754118 0)
(105.141918 -0.7791909647 0)