/*--------------------------------*- C++ -*----------------------------------*\
| =========                 |                                                 |
| \\      /  F ield         | OpenFOAM: The Open Source CFD Toolbox           |
|  \\    /   O peration     | Version:  v1912                                 |
|   \\  /    A nd           | Website:  www.openfoam.com                      |
|    \\/     M anipulation  |                                                 |
\*---------------------------------------------------------------------------*/
FoamFile
{
    version     2.0;
    format      ascii;
    class       volScalarField;
    location    "0.97";
    object      p;
}
// * * * * * * * * * * * * * * * * * * * * * * * * * * * * * * * * * * * * * //

dimensions      [0 2 -2 0 0 0 0];


internalField   nonuniform List<scalar> 
12556
(
946.7851529
944.8505861
940.406273
931.8033943
920.3489784
896.8093384
859.8276046
802.8805141
720.2906904
606.0254336
457.5868848
278.6886425
81.62596116
-114.9416158
-292.9860227
-441.7161572
-558.2424001
-644.9771381
-706.8677187
-748.9667906
-783.1817403
-798.2271234
-806.7254364
-810.5813004
947.9954654
946.5571955
943.0908241
936.2530233
924.6737107
904.177774
870.8192782
824.132473
748.4954548
640.3504115
494.6872108
312.7360118
108.6014644
-98.27845974
-286.9078914
-442.2824586
-561.846997
-649.4602382
-717.4582506
-756.3603997
-789.5525283
-802.4390725
-809.7546343
-813.0587392
950.8941998
950.5390968
949.3512731
946.3814322
937.425973
923.8120276
899.3340599
857.6314946
791.4833452
689.0784072
540.1010608
343.8320989
113.1275271
-121.9314783
-327.8102446
-488.1701484
-603.6952702
-683.1027793
-746.2541572
-777.098374
-804.0974906
-812.4320954
-817.0948394
-819.1189443
954.6254048
955.8024474
957.8626124
960.0390435
956.6338185
952.7469699
942.417682
913.2609806
865.8365316
779.0067067
635.5653298
418.7325865
133.8204725
-164.895855
-408.8585273
-574.645491
-678.9346666
-742.9348394
-790.0755459
-808.0229509
-824.5576191
-826.8664495
-827.6138853
-827.7578002
957.5509769
960.4903817
966.3793999
974.5741383
978.3858005
987.288199
995.3503889
988.6034777
970.9894835
918.5119905
802.8526375
569.6630315
180.6558193
-251.292935
-558.0842432
-720.5584337
-792.8868974
-824.7014669
-845.9922292
-846.4474419
-847.9991205
-842.9135084
-838.9316338
-836.856313
957.9308294
962.6364488
972.3814002
987.2995922
998.082504
1022.050807
1051.58977
1073.115036
1098.664603
1108.347741
1071.350364
870.1281401
261.3245844
-478.7480178
-849.0810432
-946.9274372
-945.1514295
-924.399435
-909.1990529
-887.5360919
-870.9952313
-857.7191898
-848.6138231
-844.2134131
954.0840928
960.3581225
973.3706968
994.0754514
1013.561654
1050.551286
1101.217601
1151.243485
1222.890053
1312.602237
1440.347148
1538.750992
478.7316836
-1213.023658
-1381.30766
-1261.811109
-1127.146528
-1030.677011
-970.7769749
-925.3479413
-889.9990655
-868.1608641
-854.269116
-847.7081838
944.5577909
951.9546552
967.2764857
992.0354117
1018.923279
1065.822411
1131.57238
1204.931774
1310.601402
1462.103337
1737.751356
2323.473489
-3088.445463
-2131.939734
-1610.764577
-1302.445526
-1125.386226
-1018.837939
-953.0536645
-899.5853667
-871.1045082
-853.5793072
-845.2401938
928.2465977
936.1769701
952.5690281
979.1740997
1011.501648
1063.038941
1135.6382
1221.656901
1339.198749
1497.074337
1743.783599
2077.869826
-4489.594972
-2642.506711
-1844.96969
-1416.280401
-1183.364218
-1042.714
-962.8644386
-896.4336959
-864.1577879
-844.5481652
-835.1663171
904.5656402
912.3880418
928.4928198
954.5389377
989.7813515
1040.478239
1111.288148
1196.767675
1304.664788
1438.922121
1613.259784
1790.120189
-4071.331467
-2595.831253
-1851.417518
-1423.859144
-1185.88376
-1034.482163
-951.3304845
-878.6613516
-845.9176507
-826.031794
-816.4881577
873.5238735
880.6489947
895.2098849
918.4451943
954.2798247
999.5699845
1061.642211
1139.013871
1229.073123
1334.061176
1459.819585
1584.701159
-3021.042299
-2165.565364
-1657.713882
-1329.808266
-1132.445105
-993.6678949
-917.8554658
-846.204651
-816.2845071
-797.9228665
-789.060425
835.6724889
841.6228373
853.7427402
872.0356407
907.4241049
943.2848279
992.0570162
1056.661475
1125.901485
1203.599766
1296.293654
1412.490749
-1953.993701
-1602.701954
-1360.059864
-1169.438065
-1036.240857
-925.9844066
-865.4889405
-800.70965
-776.5142504
-761.0817161
-753.5815271
792.0387699
796.5084656
805.7570104
818.8615104
849.4596342
875.2942607
907.9756755
957.9065051
1004.680307
1053.922789
1108.536643
1204.604535
-755.2880822
-991.3779903
-1074.25768
-1051.112187
-984.8885844
-916.9732234
-841.0368033
-799.1269484
-746.4461301
-728.8962288
-717.1266304
-711.4246961
743.8869282
746.7693052
752.9320993
761.1816373
785.7069217
801.1433972
817.9448322
850.8229384
874.9929844
893.5213026
898.1455967
910.5505348
284.8060903
-397.8587724
-677.6826752
-789.024213
-808.9994433
-791.1949866
-749.2589523
-725.4691942
-687.0044497
-675.906238
-668.0907039
-664.3645638
692.6302761
693.8628818
696.6059036
699.8190676
718.5905995
723.1373327
725.3866374
739.9298758
742.314618
732.5660934
690.1397028
567.0838272
258.3206266
-154.152181
-438.0289685
-593.992415
-658.0153726
-672.5666419
-657.6566863
-650.3007241
-625.0712938
-620.0128956
-616.10054
-614.2855026
639.6786291
639.4139129
638.950287
637.542113
650.9389253
646.4399556
637.0257474
633.8993594
615.722063
583.8490197
519.2766813
404.6244461
188.8210281
-87.77708044
-314.4936645
-460.3569342
-535.821573
-567.5257349
-572.2095899
-577.3973111
-563.4473738
-563.5748947
-563.1188545
-562.9683276
586.3863711
584.8959983
581.8037097
576.6460035
585.0443134
573.5389974
555.3155702
539.1893386
502.3685587
452.7377803
379.4942516
272.4132956
108.0053277
-80.99408926
-249.2029883
-368.2428986
-438.086432
-478.1597462
-495.3083624
-509.2076435
-504.2682144
-508.4923371
-510.8074789
-511.9457109
533.9373493
531.5054401
526.393996
518.4196338
522.6722111
506.186494
482.1998386
459.1625855
410.6256423
349.3089754
270.701782
179.0384188
50.36003713
-85.1858347
-205.9518338
-296.5033072
-358.9788932
-402.8378291
-427.674585
-446.968906
-448.8304312
-455.986113
-460.3775597
-462.4529089
483.2465555
480.1399273
473.5813304
463.6597819
464.8068408
445.2485631
418.0340744
392.0684657
343.052594
280.5210277
202.6851896
122.1916783
21.11410126
-78.87476736
-166.8551053
-239.9195539
-297.4896464
-341.0721496
-369.2615979
-391.3305625
-397.7765814
-406.8182135
-412.6071208
-415.3662858
434.9751874
431.4431534
423.9720639
412.8733453
411.8870264
390.8020758
362.2999839
335.8488532
289.0959805
232.2851921
165.2089247
96.95796051
15.81842727
-62.93295319
-135.0780321
-197.5670354
-249.1636396
-290.3124737
-319.1945833
-342.1331794
-351.3762355
-361.4428276
-368.0503916
-371.1987214
389.5622773
385.8215083
377.9072734
366.2873069
363.90927
342.4899095
314.2094001
288.5594911
245.3057136
194.7850349
137.6551157
79.06730834
13.18989699
-51.4466929
-111.5706116
-164.9945198
-210.5742725
-248.2809762
-276.3475674
-298.8714104
-309.5625157
-319.9936371
-326.9508324
-330.2692017
347.2549928
343.4767151
335.4909708
323.8693743
320.6592499
299.7519818
272.8017891
248.5275316
209.2806212
164.7117133
115.4354276
65.64055834
10.84326594
-42.97253852
-93.53791519
-139.2838732
-179.2332379
-213.133988
-239.5580262
-260.9017889
-272.0866628
-282.3937247
-289.3498099
-292.6724131
308.1362972
304.447399
296.6607555
285.4131605
281.8091408
261.9639847
236.8809207
214.4292633
179.242036
140.0879788
97.47661547
54.95768959
8.848197698
-36.43585059
-79.26671306
-118.5118055
-153.3708849
-183.5319897
-207.7775198
-227.5607773
-238.5837505
-248.4342835
-255.1467829
-258.3573231
272.1628524
268.6537371
261.2543943
250.6346356
246.9631714
228.5210208
205.5626154
185.1551289
153.8825112
119.5863981
82.70941743
46.25771033
7.176351264
-31.2014841
-67.66392213
-101.3793817
-131.7050794
-158.3309035
-180.1995641
-198.2197442
-208.6510986
-217.8378123
-224.1487149
-227.1699139
239.2044895
235.9364371
229.0497359
219.2189415
215.7126423
198.8564859
178.1231193
159.8246181
132.2295408
102.2765472
70.36651997
39.05132872
5.784498767
-26.87990634
-58.01284994
-86.99147251
-113.3018514
-136.6600745
-156.1283036
-172.3180291
-181.891345
-190.2969103
-196.1096926
-198.8935092
209.0740431
206.0850619
199.787784
190.8382618
187.6543663
172.4601874
153.9496367
137.7354151
113.5442385
87.47812239
59.90434017
32.9975653
4.63074015
-23.21997867
-49.82642557
-74.71326449
-97.46855226
-117.8422909
-134.9811438
-149.3595451
-157.9261225
-165.4955605
-170.758301
-173.2785445
181.545059
178.8554463
173.1879107
165.162521
162.4101491
148.884105
132.5333724
118.3276419
97.26156913
74.68454293
50.92839393
27.85069804
3.67803132
-20.05366846
-42.76445978
-64.08578813
-83.68605578
-101.3499723
-116.2796308
-128.9153981
-136.4000204
-143.120329
-147.8127144
-150.0588382
156.3668249
153.9843993
148.9613025
141.8693667
139.6216501
127.7273078
113.4404684
101.1438894
82.93828159
63.50660022
43.14149117
23.42665721
2.894256738
-17.26372871
-36.5803386
-54.76639706
-71.55428187
-86.76180311
-99.62161092
-110.6085434
-116.9842491
-122.8689838
-126.9916892
-128.9635639
133.2785222
131.2029614
126.8222351
120.6515784
118.959315
108.6364882
96.3031122
85.80781606
70.22217349
53.64124921
36.31456519
19.5843011
2.251849598
-14.76603997
-31.09101257
-46.4944558
-60.76025721
-73.73771004
-84.67123708
-94.11170418
-99.37888747
-104.4571506
-108.0236503
-109.7274422
112.0172639
110.2431603
106.492475
101.2184802
100.1178759
91.29677187
80.80932018
71.99838431
58.82472412
44.84607683
30.26350118
16.21180992
1.726837676
-12.49777908
-26.15565271
-39.06531788
-51.05165259
-61.98799319
-71.14509141
-79.1372683
-83.31075929
-87.61932606
-90.65014022
-92.09558141
92.31918237
90.8390519
87.70106889
83.29062247
82.82113454
75.42371249
66.72290047
59.44219603
48.50730054
36.92214572
24.83995081
13.21926815
1.298969834
-10.41054515
-21.6632401
-32.31563141
-42.22576989
-51.27885469
-58.78819247
-65.43033743
-68.52622601
-72.1064221
-74.62475323
-75.82251085
73.94280109
72.74672883
70.20216758
66.62202239
66.79844807
60.75396215
53.76096869
47.92580797
39.07067331
29.70150505
19.92368318
10.53304092
0.9511019284
-8.465731481
-17.52359778
-26.11148818
-34.11799448
-41.44706734
-47.36300454
-52.75882486
-54.80832253
-57.69880279
-59.72807393
-60.69030405
56.58515683
55.67026399
53.70623147
50.91579536
51.84485031
47.04854805
41.59991639
37.2624003
30.33768009
23.03764251
15.40977971
8.089992501
0.6681705884
-6.630949659
-13.65982066
-20.33636781
-26.57836216
-32.32389289
-36.69189337
-40.91443831
-41.9011724
-44.14586701
-45.70303415
-46.4345715
40.20603903
39.54982494
38.14646963
36.16189616
37.55488517
34.09215248
30.09657918
27.23355824
22.14286648
16.80067897
11.20307271
5.834796333
0.4367387037
-4.878563453
-10.00518651
-14.88718481
-19.46833081
-23.70602189
-26.62367921
-29.69328829
-29.80836944
-31.39761502
-32.50374898
-33.02795987
23.84908071
23.50829212
22.6772854
21.48309272
23.94270548
21.68618153
19.09165788
17.6669063
14.33449496
10.86921198
7.217226038
3.718454959
0.2446789791
-3.184154148
-6.499995549
-9.67112919
-12.66554852
-15.46231214
-16.97662001
-18.98811737
-17.75779024
-18.71050397
-19.36224014
-19.62400706
10.44128513
10.19820754
9.810483257
9.256296364
10.64920357
9.549961063
8.323409835
8.402327572
6.77036873
5.121046846
3.36675479
1.703203234
0.08010780014
-1.525692066
-3.090148582
-4.603895902
-6.05569812
-7.460423764
-7.542442078
-8.474290097
-7.964113501
-8.407516366
-8.719717254
-8.935000661
2125.606471
-4827.253147
-3291.416416
1819.74039
-4441.70098
-4868.601326
1607.362074
-3288.545028
-4318.280653
1434.826445
-2129.384776
-3137.413466
1220.915634
-808.7935896
-852.0871123
-1107.573655
-1992.72832
941.679451
371.5676164
-759.9918122
231.3701845
-408.1248849
-994.0746707
2271.266255
730.6515297
-2913.446732
-1013.891524
-6558.079158
-4367.585055
-4440.308774
-2847.876713
-2312.486256
1649.826049
1799.933131
2035.76771
-6340.25367
-6789.44516
-4176.014258
-2927.723159
-2936.47317
1498.846713
1594.347873
1771.570318
1706.677274
1747.598748
1855.982893
-4585.772408
-5480.517302
-3158.724537
-2477.123865
-2850.264677
1338.842487
1419.528166
1571.687107
1520.096546
1566.505857
1635.447955
-2990.958288
-3663.21581
1158.190493
1216.613066
1396.979765
1330.793577
1400.301947
1483.955221
-1637.192624
-1603.168591
-2190.531319
951.4817336
946.7206403
1186.567888
1089.528555
1139.321109
1278.915217
637.2806603
374.7284615
385.7536238
2640.931892
2225.750337
3082.263439
2720.97471
-6810.073819
-6607.954745
-4457.528115
-6308.868381
-6634.737901
1870.799684
1979.716347
1916.650509
1985.557761
1875.233401
2186.754721
2003.665619
-5535.302928
-6300.104369
-4678.185181
-6164.532904
-5442.365436
-6617.63501
-6202.999763
-4719.313313
1646.43249
1733.138737
1680.527242
1741.669167
1648.603978
1867.433595
1749.538205
-3763.331135
-4523.153944
-3742.183974
-4414.705534
-3689.993295
-5388.660271
-4528.746298
-3892.025975
1489.578219
1562.293804
1499.100911
1566.473763
1494.71698
1642.847722
1570.454024
-2276.957878
-2898.751065
1286.938377
1394.285056
1317.463784
-1589.909955
1400.507679
1293.044756
1488.964449
1406.588984
-1632.677384
-1012.671929
-1522.456145
-1585.198648
1052.289188
1128.287746
1069.991033
-15.28726823
1134.534024
968.7067613
1285.01088
1144.677367
-91.68007241
1763.417783
2075.462472
2202.48963
2310.636663
2666.355163
2931.25908
-8511.642751
-5637.861613
1952.775369
1998.454475
2184.735233
-3579.548372
-2082.460768
-1833.268363
-2323.879348
-2058.275928
-2007.082432
-2316.106782
-148.5885746
-475.5076903
-866.1402773
2222.338921
2598.485307
2271.304122
2358.357559
3958.920076
3545.44294
-4132.604114
-6178.313323
-4236.463443
-2366.855603
-2701.10035
-2551.574556
-2854.191379
-2251.132965
-3593.627918
-2943.54689
-2695.708818
-1169.353572
-272.1776498
-438.7077405
1109.723585
2136.101366
3025.020181
-3858.633208
-1267.347386
755.6075981
-8603.434414
-6002.16455
-8254.02511
-5344.979761
-8103.084068
-5667.632796
-6550.390528
-6582.833991
-5007.107193
-5067.839989
-3156.726916
-3501.938014
-3272.448324
-3482.282431
-3128.438501
-3926.431411
-3535.68729
-3368.652008
1439.913534
1404.680634
1368.31196
-1631.091053
-1913.199534
-1974.789819
1211.012161
1172.103146
1113.897213
1239.849519
1189.882116
1219.540946
2710.319625
2395.842742
2428.605022
2402.332518
2728.408231
2192.696981
2367.489878
2369.949408
3033.666267
3474.647593
3808.738192
2793.546128
3381.19677
2965.381438
3432.187552
2788.252713
-6831.665268
-6825.673365
1932.199621
2002.935438
1924.599609
2092.576635
2077.998025
2177.424236
2008.506023
2067.483028
2067.11558
-5891.531249
-5939.500879
-5837.342141
-5224.350632
-5410.977641
-4922.887899
-5153.96814
-5790.248966
-6446.464435
-5624.227273
-5668.764592
-5463.926214
-5593.388492
-6415.657784
1694.887122
1688.298934
1812.787432
1804.248568
-4076.560671
-3969.325512
-4131.57284
1534.051836
1528.994667
1605.93319
1601.15536
-3074.741033
-2728.443668
-2627.773886
-2748.26382
-3096.675243
1335.633303
1300.194116
1255.401149
1355.459393
1314.62352
1344.034249
-1220.776901
1349.005611
1340.095993
1449.774
1444.837936
-1981.294925
-1223.361904
-1261.829649
-1538.207092
1092.477205
1026.03492
973.7305886
996.868638
506.3575834
211.6163458
1226.284162
-259.5557807
169.0295548
-172.7014001
1218.385095
-346.0229559
-207.9885033
136.1144316
-7229.115549
-2216.4581
-2378.443873
738.7034578
677.2367124
908.4734462
787.509213
801.3614613
1002.244383
270.2817755
-93.34507495
-289.7256511
4803.500541
-2413.032005
-2591.445183
-909.1745296
-1171.036683
-1173.415659
-111.9718073
-366.8653345
-75.52630991
1672.616177
2815.703722
3889.694822
-4967.545955
-1633.313702
717.6431452
-6440.740295
-7338.370074
-7199.460951
-6710.07967
-4764.052293
-4962.145463
-4753.005994
-5754.330646
-5572.753645
-5309.539174
1597.943989
1572.752961
1542.775507
1615.149535
1583.051508
1603.026609
1449.995565
1416.238334
1445.102746
1171.514098
1155.211187
1122.803021
915.4764302
699.3883627
428.9661146
-6831.018917
-7380.257843
-7392.162733
-6630.435886
-5528.539027
-5260.674888
-5664.759665
-5582.786782
-6631.411291
-5694.131726
-5983.943229
-5817.362998
-6157.993546
1680.852257
1661.000558
1626.279343
1657.475664
1672.664596
1664.824369
-4687.536225
-4493.584055
-4351.395832
-4091.272247
-3838.007526
-4112.918876
-4993.843399
-4575.711921
-4839.427352
-4205.797326
-4484.400312
-4935.671902
1524.654548
1492.618152
1460.931791
1532.913878
1502.907775
1529.670136
1553.921259
1569.999847
1579.085961
1509.781946
1531.263321
1510.941451
1626.673784
1634.371514
1651.925598
1581.722976
1591.629717
1582.798735
-2539.316725
-2681.161249
-2361.250132
-1420.801608
-1430.653016
1381.102498
1306.322579
1471.213706
1481.6013
1504.576899
1444.392948
1423.236151
-1773.012876
821.3964029
1006.111907
957.6333765
1111.161561
1071.793045
1084.48305
178.652431
415.3377088
181.1059971
1092.715789
459.4408911
738.00587
544.4254998
611.6198371
1255.765694
1176.794383
-7835.833855
-6960.315769
-7471.665747
-3726.989401
-3794.585938
-2022.408952
-2167.334193
-2176.572888
2279.47807
2254.503882
3931.135506
4446.285214
4553.670371
4285.700154
3859.737467
-2777.078165
-2597.096192
-2554.441469
-2598.261472
-2794.948714
-1176.262888
-995.6544419
-1012.584425
-998.3633806
-1177.329057
-771.0958148
-948.2393878
-524.2297285
-554.7202884
-720.9481647
-342.0513587
-500.7542479
-422.7200746
-8509.862538
-7388.325502
-6949.94999
-7674.307817
-7487.308747
-6766.26138
-6040.977867
-7288.399688
-6945.568733
-6830.590664
-6466.468725
-6680.017718
-7146.578501
-6994.264206
-5228.892346
-5030.536447
-4825.306068
-5089.577832
-5297.334545
-4816.262271
-5026.826497
-5363.468682
-5250.004721
-5514.138718
-5297.96057
-3302.324688
-3367.415098
-3336.155805
-3252.059313
-3399.032174
-3768.332708
-3656.345442
-3813.809759
-3448.116417
-3604.438492
-3710.559765
-1843.082925
-1822.234137
-1970.213547
1193.778195
1165.623439
1178.383643
1242.428531
1228.308025
1203.087993
2554.930455
2511.413295
2518.440832
2533.869458
2420.499662
2719.542774
2576.363083
2564.866391
2258.403949
2274.786273
2209.409893
2387.012052
2299.886647
2283.830125
3018.815658
2947.120761
2776.50457
3127.80319
3029.727501
-7482.92449
-7392.931813
-6834.826045
-7577.545831
-7717.22833
-7532.203342
-7722.517783
-7734.690014
-7772.896866
-7708.73049
-6769.737816
-7467.20395
-7516.13124
1967.865531
1965.396972
1945.42761
1998.100563
1973.401938
1977.738846
1916.533175
1898.678819
1940.18468
1922.285335
2114.936681
2126.244293
2086.821374
2191.007504
2141.031379
2128.153872
2034.628954
2033.997289
2006.446238
2075.111494
2043.859476
2044.937793
-6187.300368
-6037.577206
-5745.070295
-6101.316701
-6411.402295
-6229.846511
1723.202366
1704.408138
1752.317623
1728.762142
1674.793627
1660.659231
1697.356327
1679.325287
1857.219059
1830.002665
1891.824658
1866.283689
1784.696926
1759.400709
1820.940532
1793.874511
-4076.773115
-4250.699781
-3868.376419
-4025.840643
-4121.192887
-4544.969119
-4744.180955
-4306.000506
-4485.084845
1546.44039
1564.98995
1549.259574
1571.202494
1549.54129
1582.791085
1576.735122
1544.897034
1515.149405
1533.134698
1541.325913
1615.721663
1628.717656
1621.041797
1632.361456
1618.951969
1654.996913
1637.332507
1593.32072
1584.601373
1611.411463
1597.049167
1587.173595
1595.56297
1610.169054
-2800.39454
-2900.171537
-2966.534195
-2788.587879
-3020.418066
-2946.753297
-1188.167502
-1382.2522
-1407.436564
-1188.958136
1374.424337
1315.514478
1461.512527
1475.348967
1465.481704
1429.080589
1450.843831
1458.422965
-1860.555912
1064.464015
1057.191088
1012.395236
643.5826573
555.3046117
1074.524799
290.100358
440.0690907
341.6522786
1245.56023
-414.4317747
19.73683932
236.5499052
-24.38710397
1177.720924
-2777.528318
-2072.470381
-1387.989022
-2361.9152
-2417.534205
-1130.232545
-1204.333179
-1668.772238
-2425.594085
-962.2703583
-946.8872749
-778.4800956
-2167.155
-1631.849527
-1594.727945
1843.774538
3382.168243
4498.857294
-5922.563239
-2096.801717
730.5414684
-1893.418355
-1563.704274
-3707.439855
-6311.781958
-7140.683824
-7357.667195
1793.676428
1767.423449
1724.956014
1826.853314
1782.065497
1809.451165
-1624.888634
-1772.191326
-1779.776386
-2267.64206
-1989.002832
-1934.183179
1261.320995
1237.167849
1251.806755
-7410.402279
-7464.495105
-6753.265543
1711.447587
1673.147441
1693.178409
1720.882565
1727.463517
1750.010318
1757.391109
1781.934769
1772.137709
1304.554882
1291.115921
1269.470633
-1602.581642
-1554.23422
-1543.856752
1298.619772
1307.215381
1300.082058
-1705.598677
-1716.369304
-1615.383346
-1430.521749
-1425.43029
-1575.105473
1122.736414
1276.927218
1284.409858
1291.186936
1151.93009
-8421.433745
-3617.643287
-2039.600212
-2111.486079
-2116.798962
-2360.366451
-2207.613104
-2174.133709
2326.23476
-5129.697398
-4606.302458
-5557.75479
-2507.666431
-2562.412507
-2405.689398
-769.0975888
-784.4710117
-601.2381795
-607.8316034
-710.3649415
-2473.341841
-1988.063749
-4790.270364
-8412.577542
-7955.458988
-7804.866809
-8257.421372
-8262.892808
-3205.787176
-3239.159239
-3187.797039
-3517.62917
-3516.119592
-3487.197289
-3054.351405
-3200.137368
-3277.62151
-3888.531602
-3832.866589
-3887.401238
-1968.796062
-1946.053687
-1979.561762
2650.912281
2724.179503
2433.471128
2438.976351
2446.942629
2410.435456
2207.924282
2218.689358
2199.659279
2376.257292
2344.892202
2336.042625
3196.577944
3011.918341
3106.575623
3324.256527
3339.501792
3483.726704
2787.283063
2853.909064
2860.52973
1953.364475
1951.068299
1951.514695
2000.992442
1993.372925
1995.740632
1917.701843
1913.443333
1948.153525
1941.41151
2091.041767
2093.817645
2081.700455
2182.063738
2165.154083
2160.905883
2014.507357
2015.362673
2007.949678
2070.798986
2061.619467
2060.202646
1702.145527
1721.148271
1713.743862
1670.802296
1677.749909
1695.581377
1825.808448
1852.064487
1836.492994
1847.290863
1837.639312
1908.00828
1898.835002
1769.462577
1828.085953
1818.625558
1780.568546
1790.694364
1817.008669
-4256.765087
-4326.693686
-3942.318559
-4006.998202
-4031.935616
-4393.408564
-4411.252004
-4292.961537
-4434.313446
-4261.392758
1321.009237
1298.904975
1311.854234
1367.865761
1350.273817
1328.941548
1353.710678
1364.095871
1358.13995
1331.654035
1335.864861
1344.228413
-1981.224017
997.6183096
1009.254889
982.7181376
693.0561751
1005.961976
383.1516635
506.0484155
623.6749881
1233.050075
1237.326021
1232.539018
-324.7249396
-165.1025132
-143.2813614
-159.3811243
1208.306119
1215.728748
1225.958596
-60.1200286
-142.8171797
-289.5651129
-2252.584144
-2298.347548
-2403.876194
-2354.590033
-2332.771817
4920.4548
5068.018906
4820.756693
-2471.702942
-2497.59324
-2413.215534
-2609.411783
-2552.11582
-2540.948311
-3243.003325
-2504.808473
-5605.29547
-6703.439344
-6714.05757
-6619.668231
-6666.148619
-7289.336275
-7111.399082
-7152.083328
-7032.111178
-7072.376743
-7245.093673
-5698.174728
-5612.831433
-5671.296894
-5487.532184
-5552.959133
-5639.072729
-7430.255632
-7222.847216
-7207.828534
-7190.961652
-7216.794436
-7429.91818
-5925.169154
-5838.036885
-5892.288616
-5729.213652
-5784.100667
-5873.650581
-6539.969722
-6579.437785
-6426.293849
-6485.504752
1573.586002
1568.100113
1564.085184
1515.424939
1511.216137
1505.215299
1523.439475
1517.879434
1523.10536
-1555.552213
-1610.607836
-1416.344026
-1499.590924
1398.139815
1394.54805
1409.462508
1402.479561
1310.527049
1303.562149
1310.423169
1304.789107
1489.232943
1485.942412
1479.090029
1499.47945
1493.048512
1497.582404
1422.492896
1418.272788
1436.360006
1419.368
1427.323917
-1779.051402
-1772.201372
-1762.523756
-1615.736532
996.2945256
1020.130072
1112.362736
1101.190495
1094.30123
1078.12713
1109.472273
406.1779079
393.0910747
1078.341478
965.4791989
743.4147088
1257.605625
1272.941229
1267.183096
1164.202622
-8275.873043
-8580.574107
-8158.837555
-7776.076265
-7357.734449
-6496.867809
-8153.286679
-7822.038016
-3665.521709
-3817.64427
-2174.513928
-2163.979141
-2171.685027
2301.504393
2226.192054
4547.789167
4360.122294
4276.152355
3798.321461
3659.664014
4134.387418
3949.361934
4087.176804
-2681.862523
-2611.009031
-2736.372038
-1014.478832
-1010.151024
-998.1446756
-1118.072685
-810.3064829
-787.5430219
-774.2011582
-936.481812
-875.3317086
-875.154491
-532.009743
-588.7659961
-583.9989609
-403.52717
-410.7145943
-458.4735717
-8165.396391
-8069.323338
-8470.203845
-7615.684588
-7949.132114
-7990.323661
-8290.779383
-8273.02886
-6895.141594
-6777.862133
-6815.832403
-6729.031145
-6744.30781
-6850.388132
-7091.147482
-6942.964082
-6988.655454
-6856.953941
-6898.854973
-7041.615461
-5164.692623
-5088.322367
-5152.089454
-5155.617477
-5229.087669
-4867.987126
-4898.031269
-4864.261087
-4964.239558
-5436.419457
-5477.870523
-5433.209109
-5347.652948
-5418.413624
-5218.361035
-5284.716831
-5370.694548
-3342.327896
-3253.842217
-3244.21319
-3268.312652
-3200.955442
-3258.793261
-3435.686766
-3461.63815
-3395.809184
-3726.766118
-3772.459148
-3798.774134
2601.713001
2470.809385
2265.057759
2239.866309
2227.743701
2308.75862
2316.580854
2290.447167
3123.956039
3221.993169
3227.41478
3522.443293
3392.652885
2938.992512
2932.855943
3025.859862
-7445.216739
-7237.193412
-7255.736786
-7212.537041
-7221.318121
-7414.585706
-7623.322815
-7666.985703
-7752.768531
-8042.857142
-7981.937678
-8082.969068
-8094.683028
-7760.592524
-7784.290194
-7950.69078
-7945.407077
-7720.051876
1967.623034
1960.353454
1960.686216
1987.266712
1985.046527
1976.348319
1925.846352
1921.670499
1935.191383
1930.261054
2118.939609
2106.168126
2103.229261
2143.696665
2148.536295
2132.951146
2034.170192
2024.264862
2023.50475
2053.278331
2053.022456
2043.933555
-6142.756047
-6047.001627
-6094.26781
-5944.375964
-5995.944423
-6088.039369
-6352.499271
-6261.42893
-6348.428958
-6138.635621
-6192.029722
-6285.992287
1717.503936
1719.817993
1724.574763
1706.601675
1713.859861
1711.230428
1743.550637
1742.728247
1753.375321
1728.633746
1734.063522
1735.310981
1670.423439
1673.030201
1676.552888
1664.118599
1668.961865
1665.769118
1690.630667
1691.402296
1698.724205
1680.173622
1685.030897
1684.560956
1866.751911
1857.101133
1848.185689
1853.043604
1862.417946
1834.142117
1843.568615
1839.099403
1887.227008
1876.397054
1790.918908
1782.517668
1775.730529
1779.068898
1787.842255
1760.869547
1763.695423
1765.904592
1811.907754
1815.536334
1824.806717
1797.206556
1806.347478
1802.897681
1809.380696
1800.215946
-4167.103729
-4203.563367
-4100.707092
-4066.724085
-4096.341238
-4602.441375
-4635.034562
-4584.564655
-4783.635767
-4700.079517
-4667.718073
-4354.625444
-4389.192738
-4357.058045
-4530.64213
-4476.848032
-4419.87173
1552.043561
1547.939842
1542.390934
1559.30527
1553.75505
1558.57369
1563.044999
1555.307906
1581.212448
1579.371026
1541.730837
1532.144254
1526.57491
1526.286791
1525.336773
1537.008976
1532.284837
1537.679053
1619.971175
1624.819072
1635.752449
1622.530709
1648.990553
1651.697602
1658.168825
1640.403992
1645.814108
1643.150696
1589.8428
1586.89908
1605.19059
1600.828156
-2908.132518
-2890.786747
-2955.29342
-2780.549206
-2832.513575
-2868.411581
-3091.689696
-3137.713788
-3003.218968
-3010.417624
-3022.147409
-1341.055957
-1346.984648
-1403.020798
-1205.435162
-1270.902082
-1278.208845
1369.725274
1357.316846
1389.882913
1381.709912
1320.791498
1327.630625
1323.264
1330.945019
1324.446637
1347.091507
1338.81091
1465.499918
1462.820261
1458.404365
1473.030947
1467.674435
1470.099531
1454.1561
1447.195203
1442.257485
1454.467357
1450.888985
1456.246629
-1922.063186
1059.346855
1038.559793
1042.03399
602.960626
613.7890425
669.0399003
558.4838612
564.7131143
550.5652631
1054.556647
384.7979739
334.9302066
269.0968035
1238.225429
1240.422095
1245.76843
-392.3926049
109.5903004
51.88008119
220.2238429
209.747738
220.9724611
34.04758784
-99.5344126
-79.93869782
22.22494015
1191.210725
1206.357201
1198.411244
846.9195177
798.1048415
770.8546708
777.6357876
703.4387656
671.3692823
673.1746267
566.3595347
534.8152804
524.481145
384.5358337
360.205664
332.4999191
168.0316564
158.817633
110.5749911
-59.29895984
-48.94845152
-114.6552957
-267.4727121
-242.8683307
-314.2636921
-437.2169479
-406.5746816
-473.2637767
-564.1655461
-534.5850906
-590.0922958
-654.1364751
-629.4892656
897.418595
860.5892736
811.0748553
844.3007354
779.6258425
718.9187602
752.0603768
648.3609536
582.0694222
605.9802798
453.707066
397.172206
394.5647649
196.9970841
172.797965
126.6200307
-84.48484121
-64.56848295
-151.5816534
-331.9290698
-280.1663614
-383.7874935
-513.2965395
-452.2572478
-548.4568302
-633.7579869
-578.4638957
-656.5942571
-711.4630386
-665.9648644
968.3036835
951.2383832
880.7090795
941.9527435
899.2355587
805.3153573
878.8088132
792.2425037
677.7804944
752.7775116
591.8993815
480.2970157
521.9385189
263.9030004
209.2962371
165.9530988
-130.9813327
-93.18912393
-222.6238481
-451.9644734
-355.1951844
-511.5407167
-644.5609073
-539.9586006
-676.6235854
-745.2706483
-657.0717456
-760.9915717
-794.3626909
-730.0785483
1051.940357
1063.74519
978.1037778
1065.56183
1062.928403
936.0759648
1057.522239
1017.672079
840.1902371
993.1336837
853.1392559
642.592161
773.4950155
400.519098
289.6661239
238.2521999
-256.6749012
-150.4614981
-396.9212837
-693.9505865
-496.7645867
-756.8616931
-865.9313214
-690.0650982
-882.3106127
-902.6514755
-780.2590793
-903.7585178
-900.1629502
-818.8251428
1133.385742
1178.124731
1093.648413
1193.772598
1244.898312
1108.144047
1263.800804
1324.713681
1088.886876
1343.688797
1354.85004
949.6674246
1313.242013
659.7698075
452.8364485
453.6655124
-735.3980474
-322.1968442
-939.3870822
-1203.154656
-788.7785502
-1221.409998
-1197.657288
-937.4235699
-1175.534221
-1103.317749
-949.8154194
-1080.189214
-1020.874243
-929.425522
1194.719811
1266.519513
1203.962349
1293.75927
1392.808851
1287.335043
1434.539302
1606.32833
1404.898254
1688.172744
2158.700921
1535.129459
1851.109541
1894.552264
1359.864604
554.5227178
-893.0600969
-309.5489553
-1678.545194
-1624.627312
-1320.32074
-1942.086783
-1616.005217
-1297.636933
-1527.81681
-1316.836798
-1157.799622
-1262.253919
-1136.20714
-1051.231352
1220.611184
1304.753526
1281.445615
1336.737803
1451.712914