/*--------------------------------*- C++ -*----------------------------------*\
| =========                 |                                                 |
| \\      /  F ield         | OpenFOAM: The Open Source CFD Toolbox           |
|  \\    /   O peration     | Version:  v1912                                 |
|   \\  /    A nd           | Website:  www.openfoam.com                      |
|    \\/     M anipulation  |                                                 |
\*---------------------------------------------------------------------------*/
FoamFile
{
    version     2.0;
    format      ascii;
    class       pointVectorField;
    location    "0.97";
    object      pointDisplacement;
}
// * * * * * * * * * * * * * * * * * * * * * * * * * * * * * * * * * * * * * //

dimensions      [0 1 0 0 0 0 0];


internalField   nonuniform List<vector> 
26316
(
(0 0 0)
(0 0 0)
(0 0 0)
(0 0 0)
(0 0 0)
(0 0 0)
(0 0 0)
(0 0 0)
(0 0 0)
(0 0 0)
(0 0 0)
(0 0 0)
(0 0 0)
(0 0 0)
(0 0 0)
(0 0 0)
(0 0 0)
(0 0 0)
(0 0 0)
(0 0 0)
(0 0 0)
(0 0 0)
(0 0 0)
(0 0 0)
(0 0 0)
(0 0 0)
(0 0 0)
(0 0 0)
(0 0 0)
(0 0 0)
(0 0 0)
(0 0 0)
(0 0 0)
(0 0 0)
(0 0 0)
(0 0 0)
(0 0 0)
(0 0 0)
(0 0 0)
(0 0 0)
(0 0 0)
(0 0 0)
(0 0 0)
(0 0 0)
(0 0 0)
(0 0 0)
(0 0 0)
(0 0 0)
(0 0 0)
(0 0 0)
(0 0 0)
(0 0 0)
(0 0 0)
(0 0 0)
(0 0 0)
(0 0 0)
(0 0 0)
(0 0 0)
(0 0 0)
(0 0 0)
(0 0 0)
(0 0 0)
(0 0 0)
(0 0 0)
(0 0 0)
(0 0 0)
(0 0 0)
(0 0 0)
(0 0 0)
(0 0 0)
(0 0 0)
(0 0 0)
(0 0 0)
(0 0 0)
(0 0 0)
(0 0 0)
(0 0 0)
(0 0 0)
(0 0 0)
(0 0 0)
(0 0 0)
(0 0 0)
(0 0 0)
(0 0 0)
(0 0 0)
(0 0 0)
(0 0 0)
(0 0 0)
(0 0 0)
(0 0 0)
(0 0 0)
(0 0 0)
(0 0 0)
(0 0 0)
(0 0 0)
(0 0 0)
(0 0 0)
(0 0 0)
(0 0 0)
(0 0 0)
(0 0 0)
(0 0 0)
(0 0 0)
(0 0 0)
(0 0 0)
(0 0 0)
(0 0 0)
(0 0 0)
(0 0 0)
(0 0 0)
(0 0 0)
(0 0 0)
(0 0 0)
(0 0 0)
(0 0 0)
(0 0 0)
(0 0 0)
(0 0 0)
(0 0 0)
(-6.216259112e-07 -1.111180049e-06 2.775557562e-17)
(0 0 0)
(0 0 0)
(-3.429865252e-07 -1.244783043e-05 3.330669074e-16)
(1.58360928e-06 -1.058025377e-05 2.91433544e-16)
(0 0 0)
(0 0 0)
(0 0 0)
(0 0 0)
(0 0 0)
(0 0 0)
(0 0 0)
(0 0 0)
(0 0 0)
(0 0 0)
(0 0 0)
(0 0 0)
(0 0 0)
(0 0 0)
(0 0 0)
(0 0 0)
(0 0 0)
(0 0 0)
(0 0 0)
(0 0 0)
(0 0 0)
(0 0 0)
(0 0 0)
(0 0 0)
(0 0 0)
(0 0 0)
(0 0 0)
(0 0 0)
(0 0 0)
(0 0 0)
(0 0 0)
(0 0 0)
(0 0 0)
(0 0 0)
(0 0 0)
(0 0 0)
(0 0 0)
(0 0 0)
(0 0 0)
(0 0 0)
(0 0 0)
(0 0 0)
(0 0 0)
(0 0 0)
(0 0 0)
(0 0 0)
(0 0 0)
(0 0 0)
(0 0 0)
(0 0 0)
(0 0 0)
(0 0 0)
(0 0 0)
(0 0 0)
(0 0 0)
(0 0 0)
(0 0 0)
(0 0 0)
(0 0 0)
(0 0 0)
(0 0 0)
(-3.872647141e-05 -2.98768572e-05 4.996003611e-16)
(-0.0002228450923 -0.0001873340744 3.080868893e-15)
(-2.914375967e-06 -2.20578606e-06 4.163336342e-17)
(-0.0004229577566 -0.0004382237434 8.007483565e-15)
(-0.00104950463 -0.001209478828 1.992850329e-14)
(-0.001244563242 -0.00163762651 2.69784195e-14)
(-0.0005810379651 -0.0006867889637 1.255939797e-14)
(-0.0007055898659 -0.001446690272 2.647881914e-14)
(-0.001233731936 -0.00282870813 4.662936703e-14)
(-0.001026628023 -0.003126175739 5.151434834e-14)
(-0.0006065331096 -0.001646436126 3.012867733e-14)
(-2.235825886e-05 -0.001927117228 3.522182546e-14)
(-2.381454538e-05 -0.003538209446 5.824507543e-14)
(0.0003487155739 -0.003494133084 5.749567489e-14)
(0.0002023991111 -0.001896079582 3.463895837e-14)
(0.0006693829213 -0.001454630398 2.656208586e-14)
(0.001187732044 -0.002845185803 4.676814491e-14)
(0.001300088279 -0.002486382529 4.085620731e-14)
(0.0007034326483 -0.001217764766 2.223221607e-14)
(0.0004132031964 -0.0004442946062 8.118505868e-15)
(0.001025943745 -0.001222973065 2.010891453e-14)
(0.000771540343 -0.0008168937785 1.34336986e-14)
(0.0002413377208 -0.0002303284429 4.204969706e-15)
(0 0 0)
(4.062711917e-05 -3.217834441e-05 5.273559367e-16)
(0 0 0)
(0 0 0)
(0 0 0)
(0 0 0)
(0 0 0)
(0 0 0)
(0 0 0)
(0 0 0)
(0 0 0)
(0 0 0)
(0 0 0)
(0 0 0)
(0 0 0)
(0 0 0)
(0 0 0)
(0 0 0)
(0 0 0)
(0 0 0)
(0 0 0)
(0 0 0)
(0 0 0)
(0 0 0)
(0 0 0)
(0 0 0)
(0 0 0)
(0 0 0)
(0 0 0)
(0 0 0)
(0 0 0)
(0 0 0)
(0 0 0)
(0 0 0)
(0 0 0)
(0 0 0)
(0 0 0)
(0 0 0)
(0 0 0)
(0 0 0)
(0 0 0)
(0 0 0)
(0 0 0)
(0 0 0)
(0 0 0)
(0 0 0)
(0 0 0)
(0 0 0)
(-0.0001081564499 -8.782090292e-05 1.040834086e-15)
(-0.000590725119 -0.000511253678 6.009082121e-15)
(-0.0001399510348 -0.0001124943077 1.429412144e-15)
(-0.001994597116 -0.002000529039 2.53824739e-14)
(-0.003188044394 -0.003445067008 4.06341627e-14)
(-0.004063403217 -0.004791696183 5.65658631e-14)
(-0.002740140131 -0.00299785779 3.806677196e-14)
(-0.004244501467 -0.006401091296 8.142098107e-14)
(-0.005606183056 -0.009129697189 1.079414336e-13)
(-0.005626215293 -0.01050090757 1.241784453e-13)
(-0.004353035781 -0.007517124995 9.563183578e-14)
(-0.003368942079 -0.01029333555 1.30867539e-13)
(-0.004170495354 -0.01383727801 1.634803404e-13)
(-0.003266615348 -0.01460077337 1.723898801e-13)
(-0.002666763832 -0.01093904265 1.389999227e-13)
(5.422982778e-05 -0.01182058432 1.49838475e-13)
(0.0001105791261 -0.01564110227 1.841582442e-13)
(0.001293157615 -0.01554826262 1.828953655e-13)
(0.001015792336 -0.01173751986 1.486727408e-13)
(0.003424740437 -0.01037756377 1.311450948e-13)
(0.004315286247 -0.01396177413 1.637856517e-13)
(0.00499703072 -0.01302269743 1.526834215e-13)
(0.003934784436 -0.009584757585 1.21055943e-13)
(0.00422147339 -0.006482995134 8.18373147e-14)
(0.00561588188 -0.009258081685 1.084549117e-13)
(0.005310990562 -0.007800542815 9.138523271e-14)
(0.003888406883 -0.005316350841 6.712685963e-14)
(0.001979390708 -0.002033547824 2.570166302e-14)
(0.003166958115 -0.0035005153 4.106437412e-14)
(0.00223760238 -0.002283433266 2.681188604e-14)
(0.001241956932 -0.00117762219 1.489086632e-14)
(0 0 0)
(0.0001073784837 -8.881801838e-05 1.054711873e-15)
(0 0 0)
(0 0 0)
(0 0 0)
(0 0 0)
(0 0 0)
(0 0 0)
(0 0 0)
(0 0 0)
(0 0 0)
(0 0 0)
(0 0 0)
(0 0 0)
(0 0 0)
(0 0 0)
(0 0 0)
(0 0 0)
(0 0 0)
(0 0 0)
(0 0 0)
(0 0 0)
(0 0 0)
(0 0 0)
(0 0 0)
(0 0 0)
(0 0 0)
(0 0 0)
(0 0 0)
(0 0 0)
(0 0 0)
(0 0 0)
(0 0 0)
(0 0 0)
(0 0 0)
(0 0 0)
(0 0 0)
(0 0 0)
(0 0 0)
(0 0 0)
(0 0 0)
(-4.653384495e-05 -4.093504331e-05 3.747002708e-16)
(0 0 0)
(-0.001979643942 -0.001950311851 1.892930257e-14)
(-0.002941679308 -0.003064799502 2.807476474e-14)
(-0.004600682904 -0.005112941987 4.690692279e-14)
(-0.003379124943 -0.00354994772 3.447242491e-14)
(-0.007701744295 -0.01012415324 9.864331574e-14)
(-0.009341318432 -0.01300797687 1.197930644e-13)
(-0.01043050399 -0.0158709173 1.462996391e-13)
(-0.008780776358 -0.01260909241 1.229572e-13)
(-0.009933164841 -0.01978230292 1.931510507e-13)
(-0.01131347629 -0.02389359756 2.204764149e-13)
(-0.01077876838 -0.02614800676 2.412375855e-13)
(-0.009558555628 -0.0218594034 2.134126209e-13)
(-0.006476515859 -0.02658624315 2.590982984e-13)
(-0.00714005987 -0.03113003338 2.866179516e-13)
(-0.005433909202 -0.03217049974 2.959021916e-13)
(-0.004956689975 -0.02760541869 2.687711165e-13)
(0.000307689797 -0.02897909939 2.81163981e-13)
(0.000356978203 -0.03355844695 3.075456556e-13)
(0.002338062479 -0.03346968848 3.063382881e-13)
(0.002117100735 -0.02888065915 2.798455911e-13)
(0.006967858272 -0.0268723349 2.594868764e-13)
(0.007731003095 -0.03147334037 2.869926519e-13)
(0.009164301328 -0.03017721892 2.749050987e-13)
(0.008212648719 -0.02561107801 2.470662563e-13)
(0.01013566915 -0.02012799971 1.938449401e-13)
(0.01159211314 -0.02431451562 2.21059282e-13)
(0.01163326849 -0.02177930125 1.979805209e-13)
(0.01006064401 -0.01782783229 1.71682113e-13)
(0.007666911023 -0.01023544498 9.867107131e-14)
(0.00955773184 -0.01347059959 1.223882107e-13)
(0.008234055966 -0.01072985047 9.744982599e-14)
(0.006524960219 -0.00803854034 7.746581154e-14)
(0.002259267211 -0.002265858703 2.18575158e-14)
(0.003376937609 -0.003584697397 3.262667914e-14)
(0.001905139072 -0.001903523313 1.734723476e-14)
(0.001088615538 -0.001027572442 9.922618283e-15)
(0 0 0)
(0 0 0)
(0 0 0)
(0 0 0)
(0 0 0)
(0 0 0)
(0 0 0)
(0 0 0)
(0 0 0)
(0 0 0)
(0 0 0)
(0 0 0)
(0 0 0)
(0 0 0)
(0 0 0)
(0 0 0)
(0 0 0)
(0 0 0)
(0 0 0)
(0 0 0)
(0 0 0)
(0 0 0)
(0 0 0)
(0 0 0)
(0 0 0)
(0 0 0)
(0 0 0)
(0 0 0)
(0 0 0)
(0 0 0)
(0 0 0)
(0 0 0)
(0 0 0)
(0 0 0)
(0 0 0)
(-0.0002150720599 -0.0002097166902 1.637578961e-15)
(-0.000489092443 -0.0004994951347 3.73312492e-15)
(-0.001736933531 -0.001865382424 1.393329896e-14)
(-0.001167797398 -0.001197542611 9.36750677e-15)
(-0.006856499876 -0.008326286635 6.5336625e-14)
(-0.008110367405 -0.01031377777 7.731315588e-14)
(-0.01044904306 -0.01416538421 1.063038546e-13)
(-0.009060229853 -0.01172901036 9.216238883e-14)
(-0.01427016801 -0.02309853187 1.822569873e-13)
(-0.015757396 -0.02671100786 2.010891453e-13)
(-0.01659119073 -0.03070799144 2.313843561e-13)
(-0.01516738711 -0.02681734357 2.118583087e-13)
(-0.01492496031 -0.03668629792 2.904065877e-13)
(-0.01584950937 -0.04067428939 3.071987109e-13)
(-0.01460422168 -0.04305611792 3.251843239e-13)
(-0.01380036366 -0.03896241684 3.083228117e-13)
(-0.008597538852 -0.04362494264 3.444466934e-13)
(-0.008894951951 -0.04697045775 3.539807336e-13)
(-0.006634920985 -0.04746540284 3.573530361e-13)
(-0.006452086432 -0.0443778807 3.500255641e-13)
(0.0003695150949 -0.04524742245 3.555766792e-13)
(0.0003245609386 -0.04788574654 3.59254293e-13)
(0.002654393019 -0.04793902671 3.592126596e-13)
(0.002669300481 -0.045244116 3.551048344e-13)
(0.009347646161 -0.04415470009 3.451683384e-13)
(0.009594012206 -0.0474984879 3.544664562e-13)
(0.01169981757 -0.04677782613 3.486239075e-13)
(0.01131631578 -0.04317022528 3.370498325e-13)
(0.01541138163 -0.03740125478 2.910449659e-13)
(0.01638373191 -0.04155531991 3.082673006e-13)
(0.01715998806 -0.03886822848 2.879085859e-13)
(0.01597448534 -0.03456349133 2.685213163e-13)
(0.0147204544 -0.02414839393 1.874334021e-13)
(0.01622278992 -0.02787391705 2.064459714e-13)
(0.01485100542 -0.02360908199 1.749711487e-13)
(0.01332011484 -0.02021702134 1.57027169e-13)
(0.007244792889 -0.008965022358 6.984690604e-14)
(0.008539974254 -0.01106970984 8.22952817e-14)
(0.006154959694 -0.007511050638 5.589972929e-14)
(0.005042595336 -0.005874349495 4.582445534e-14)
(0.000332726192 -0.0003293789626 2.581268532e-15)
(0.0005716073127 -0.0005928780031 4.427014311e-15)
(1.45103269e-05 -1.433320252e-05 1.110223025e-16)
(0 0 0)
(0 0 0)
(0 0 0)
(0 0 0)
(0 0 0)
(0 0 0)
(0 0 0)
(0 0 0)
(0 0 0)
(0 0 0)
(0 0 0)
(0 0 0)
(0 0 0)
(0 0 0)
(0 0 0)
(0 0 0)
(0 0 0)
(0 0 0)
(0 0 0)
(0 0 0)
(0 0 0)
(0 0 0)
(0 0 0)
(0 0 0)
(0 0 0)
(0 0 0)
(0 0 0)
(0 0 0)
(0 0 0)
(-2.047116933e-05 -2.334578664e-05 1.526556659e-16)
(-5.586023918e-07 -6.134680133e-07 0)
(0 0 0)
(-0.001535370064 -0.001780589368 1.171285291e-14)
(-0.001937857139 -0.002336674938 1.476596623e-14)
(-0.004019704617 -0.005095994444 3.223810108e-14)
(-0.00342953645 -0.004181856248 2.750577544e-14)
(-0.01112692711 -0.01605837651 1.060262989e-13)
(-0.0121112711 -0.01816922502 1.1536605e-13)
(-0.01470467173 -0.02350972579 1.494498969e-13)
(-0.0139314317 -0.02142880228 1.416783357e-13)
(-0.01922013686 -0.03693349976 2.448458103e-13)
(-0.02001563818 -0.0399566845 2.546851618e-13)
(-0.02052801875 -0.04470915926 2.850775171e-13)
(-0.01980818149 -0.04153873959 2.75474088e-13)
(-0.01781534505 -0.05145854289 3.411437799e-13)
(-0.0181940075 -0.05450574288 3.472916399e-13)
(-0.01634952059 -0.05595232186 3.562983242e-13)
(-0.01611405829 -0.05322615812 3.527733661e-13)
(-0.009327794989 -0.05424408112 0)
(-0.009478005237 -0.05650121779 0)
(-0.008303785478 -0.05651082888 0)
(-0.007065187443 -0.056470999 0)
(-0.006980438752 -0.05535393298 0)
(-0.006941988685 -0.05426282981 0)
(0.0001567796305 -0.05439895278 0)
(0.0001291223252 -0.05548418065 0)
(0.001318054842 -0.0555135291 0)
(0.001339270562 -0.05442823919 0)
(0.009714859698 -0.0547315392 0)
(0.009721937125 -0.0558470253 0)
(0.009737006872 -0.05697999425 0)
(0.01091883418 -0.05704422988 0)
(0.01208404041 -0.0570865451 0)
(0.01208961994 -0.05484697709 0)
(0.0182393818 -0.05267548663 3.435030038e-13)
(0.01851408395 -0.05570578093 3.493594303e-13)
(0.01992106205 -0.05351261944 3.353567424e-13)
(0.01949675527 -0.05028889343 3.277239591e-13)
(0.01969627971 -0.03848737449 2.506744812e-13)
(0.0204020222 -0.04149453968 2.597366766e-13)
(0.01936602307 -0.03643113748 2.280953204e-13)
(0.01848975046 -0.03342205013 2.177424907e-13)
(0.01192669393 -0.01757772999 1.147693052e-13)
(0.01304349656 -0.01999675475 1.254968351e-13)
(0.01027624402 -0.0148299429 9.318934513e-14)
(0.009255348228 -0.0128413998 8.394673845e-14)
(0.002060382779 -0.002428412661 1.59317004e-14)
(0.002575416945 -0.003156717818 1.990074772e-14)
(0.0009226358326 -0.001076670683 6.800116026e-15)
(0.0006277471899 -0.0007044407891 4.62130334e-15)
(0 0 0)
(0 0 0)
(0 0 0)
(0 0 0)
(0 0 0)
(0 0 0)
(0 0 0)
(0 0 0)
(0 0 0)
(0 0 0)
(0 0 0)
(0 0 0)
(0 0 0)
(0 0 0)
(0 0 0)
(0 0 0)
(0 0 0)
(0 0 0)
(0 0 0)
(0 0 0)
(0 0 0)
(0 0 0)
(0 0 0)
(0 0 0)
(0 0 0)
(0 0 0)
(0 0 0)
(0 0 0)
(-0.0001844555449 -0.0002415519961 1.276756478e-15)
(-0.0001051160438 -0.0001332029902 7.21644966e-16)
(-8.599408812e-05 -0.0001053384637 5.967448757e-16)
(-0.002784407929 -0.003743723429 2.120525977e-14)
(-0.002887737928 -0.004016072373 2.198241589e-14)
(-0.005346303947 -0.007815463648 4.284073096e-14)
(-0.005205005483 -0.00735653163 4.171663015e-14)
(-0.01399346836 -0.02338464773 1.330741073e-13)
(-0.01421795487 -0.024568583 1.351280199e-13)
(-0.01692415666 -0.03115183936 1.715155795e-13)
(-0.01668427115 -0.02970187854 1.692118667e-13)
(-0.02163412908 -0.04800672664 2.740585536e-13)
(-0.02186218054 -0.05013111864 2.765565554e-13)
(-0.02214250895 -0.05533381016 3.053113318e-13)
(-0.02193574721 -0.05306189244 3.029659856e-13)
(-0.01879788959 -0.06231172111 3.554240235e-13)
(-0.01890024764 -0.06465175624 3.562983242e-13)
(-0.01673783196 -0.06524296669 0)
(-0.01667856428 -0.0630334236 3.592681708e-13)
(-0.009726161503 -0.06318476723 0)
(-0.009761118117 -0.06430439453 0)
(-0.008603037101 -0.06432710421 0)
(-0.008568226892 -0.06320923827 0)
(0.00964477127 -0.06364368827 0)
(0.009623194493 -0.0647527866 0)
(0.01078068386 -0.06478677916 0)
(0.01080343788 -0.06367935333 0)
(0.01882416319 -0.06361469364 3.575056917e-13)
(0.0188160654 -0.06596095823 3.583661146e-13)
(0.02069401205 -0.06467385773 3.510941537e-13)
(0.02062687757 -0.06216724228 3.490818745e-13)
(0.02236345795 -0.05089900982 2.855771175e-13)
(0.02262128848 -0.05333840334 2.892963646e-13)
(0.02183935138 -0.04758487578 2.581684866e-13)
(0.0215383739 -0.0453103746 2.542965838e-13)
(0.01530754994 -0.02620334187 1.474098621e-13)
(0.01565050006 -0.02773191546 1.507960423e-13)
(0.0127080137 -0.02118742422 1.153382945e-13)
(0.01238259473 -0.01994600551 1.123268145e-13)
(0.003736646757 -0.005108944963 2.886579864e-14)
(0.004219519882 -0.005970784666 3.261280135e-14)
(0.002012349999 -0.002710436053 1.480759959e-14)
(0.001656600814 -0.002156078999 1.219857548e-14)
(0 0 0)
(0 0 0)
(0 0 0)
(0 0 0)
(0 0 0)
(0 0 0)
(0 0 0)
(0 0 0)
(0 0 0)
(0 0 0)
(0 0 0)
(0 0 0)
(0 0 0)
(0 0 0)
(0 0 0)
(0 0 0)
(0 0 0)
(0 0 0)
(0 0 0)
(0 0 0)
(0 0 0)
(0 0 0)
(0 0 0)
(0 0 0)
(0 0 0)
(0 0 0)
(0 0 0)
(0 0 0)
(-0.0003027957311 -0.000447680426 2.109423747e-15)
(-0.0002734847557 -0.0003928065108 1.887379142e-15)
(-0.0002399235845 -0.0003344720188 1.665334537e-15)
(-0.00343127672 -0.005248518157 2.611799665e-14)
(-0.003548133961 -0.005591565515 2.700617507e-14)
(-0.006187416561 -0.01024768976 4.954370247e-14)
(-0.006041092585 -0.009711921514 4.83779683e-14)
(-0.01510973348 -0.02869211185 1.433991814e-13)
(-0.01529381077 -0.02990974422 1.45064516e-13)
(-0.01798099471 -0.03743502129 1.817296313e-13)
(-0.01779952614 -0.0359874128 1.800226634e-13)
(-0.02252121386 -0.05661475028 2.836897384e-13)
(-0.02266402041 -0.05862886491 2.850775171e-13)
(-0.02282020599 -0.06426214557 3.124722703e-13)
(-0.02269650858 -0.06212670493 3.113204139e-13)
(-0.01913457086 -0.07146525298 3.57686103e-13)
(-0.01919855823 -0.07369176841 3.579081476e-13)
(-0.01695524073 -0.07403052773 0)
(-0.01690239881 -0.07183907017 0)
(-0.00996159556 -0.07201366689 0)
(-0.009988696153 -0.07311014074 0)
(-0.008833669174 -0.07313903419 0)
(-0.008806416212 -0.07204256421 0)
(0.009446211438 -0.07249149792 0)
(0.009418439034 -0.0735944092 0)
(0.01057323446 -0.07362441486 0)
(0.01060119582 -0.07252206744 0)
(0.01869330796 -0.0727236118 3.592126596e-13)
(0.01863697418 -0.07493267962 3.59254293e-13)
(0.02071144114 -0.07412442214 3.5513259e-13)
(0.02073716144 -0.07183959084 3.545774785e-13)
(0.02327196455 -0.06065173524 2.990940828e-13)
(0.02337301244 -0.06286831885 3.009259508e-13)
(0.02283233102 -0.05669109053 2.714078962e-13)
(0.02268660792 -0.05459392037 2.69256839e-13)
(0.0168806228 -0.03297745938 1.6298074e-13)
(0.01712226279 -0.03449004469 1.654509862e-13)
(0.01421215923 -0.02692026064 1.292577156e-13)
(0.01395949341 -0.0256475885 1.268846139e-13)
(0.004838165344 -0.007535995236 3.740063814e-14)
(0.005034711583 -0.008082362354 3.89271948e-14)
(0.002596375702 -0.003966363826 1.91235916e-14)
(0.002447728913 -0.003628386942 1.802724636e-14)
(0 0 0)
(0 0 0)
(0 0 0)
(0 0 0)
(0 0 0)
(0 0 0)
(0 0 0)
(0 0 0)
(0 0 0)
(0 0 0)
(0 0 0)
(0 0 0)
(0 0 0)
(0 0 0)
(0 0 0)
(0 0 0)
(0 0 0)
(0 0 0)
(0 0 0)
(0 0 0)
(0 0 0)
(0 0 0)
(0 0 0)
(0 0 0)
(0 0 0)
(0 0 0)
(0 0 0)
(0 0 0)
(-0.0004466695134 -0.0007357252919 3.094746681e-15)
(-0.0004027010121 -0.0006463164065 2.789435349e-15)
(-0.0003635538193 -0.0005681703237 2.525757381e-15)
(-0.003839138601 -0.006582594099 2.922662112e-14)
(-0.003957019109 -0.006967374811 3.011479954e-14)
(-0.006694551558 -0.0123850018 5.358213873e-14)
(-0.006549321568 -0.01179949088 5.243028234e-14)
(-0.01574854775 -0.03347032363 1.491445856e-13)
(-0.01592779146 -0.0347482324 1.50754409e-13)
(-0.01860770977 -0.0431868983 1.875166689e-13)
(-0.01843141914 -0.0416804257 1.858790899e-13)
(-0.02302920924 -0.06458099509 2.88422064e-13)
(-0.02316714763 -0.06663445712 2.897265761e-13)
(-0.02326084998 -0.07275132238 3.163302953e-13)
(-0.02314172396 -0.07058714124 3.152617056e-13)
(-0.01937848468 -0.08033270465 3.583661146e-13)
(-0.01943835068 -0.08254924418 3.585187702e-13)
(-0.01716278779 -0.0827780064 0)
(-0.01711126117 -0.08059230921 0)
(-0.01017497307 -0.0807665879 0)
(-0.01020130497 -0.08185881217 0)
(-0.009047846033 -0.08188741166 0)
(-0.009034577209 -0.08134125132 0)
(-0.00902132 -0.08079554808 0)
(0.009211579929 -0.08130481537 0)
(0.009180561218 -0.08240347669 0)
(0.01033408257 -0.08243162036 0)
(0.01036524461 -0.08133331844 0)
(0.01845145005 -0.0815237815 3.592404152e-13)
(0.0183849935 -0.08370096332 3.591710263e-13)
(0.02042152522 -0.08261552611 3.542999227e-13)
(0.02051010344 -0.08056160682 3.547717675e-13)
(0.02314690862 -0.06810856993 2.996908277e-13)
(0.02301891094 -0.06968140425 2.985944825e-13)
(0.022473003 -0.06272387882 2.688405054e-13)
(0.02260503719 -0.06134632869 2.69978484e-13)
(0.01690894137 -0.03714905617 1.637856517e-13)
(0.01678841313 -0.03790605624 1.627586954e-13)
(0.01389978856 -0.02949161926 1.26745836e-13)
(0.01401000497 -0.02892905145 1.2766177e-13)
(0.004898034581 -0.008563473795 3.79002385e-14)
(0.00483384211 -0.008681216062 3.741451593e-14)
(0.002448949684 -0.004184449878 1.804112415e-14)
(0.002494215968 -0.0041491101 1.837419106e-14)
(0 0 0)
(0 0 0)
(0 0 0)
(0 0 0)
(0 0 0)
(0 0 0)
(0 0 0)
(0 0 0)
(0 0 0)
(0 0 0)
(0 0 0)
(0 0 0)
(0 0 0)
(0 0 0)
(0 0 0)
(0 0 0)
(0 0 0)
(0 0 0)
(0 0 0)
(0 0 0)
(0 0 0)
(0 0 0)
(0 0 0)
(0 0 0)
(0 0 0)
(0 0 0)
(0 0 0)
(0 0 0)
(-0.0006396796524 -0.001161604843 4.427014311e-15)
(-0.0005873939071 -0.001041880857 4.066191828e-15)
(-0.0005368237999 -0.000929532647 3.719247132e-15)
(-0.004325695769 -0.008215231476 3.290423489e-14)
(-0.00445562038 -0.008667309518 3.390343561e-14)
(-0.007302424713 -0.01492058191 5.83977311e-14)
(-0.007145018832 -0.01425425073 5.714873019e-14)
(-0.01647704164 -0.03872152586 1.556810236e-13)
(-0.01666663949 -0.04009922968 1.573741137e-13)
(-0.0193318787 -0.04944788264 1.942057626e-13)
(-0.0191464837 -0.04784352393 1.924987947e-13)
(-0.02358513185 -0.0728940499 2.9365399e-13)
(-0.02372730264 -0.07501723183 2.949862576e-13)
(-0.02374146731 -0.08153831703 3.206324095e-13)
(-0.02362006253 -0.07932056798 3.195499421e-13)
(-0.0196128376 -0.08919277048 3.589073483e-13)
(-0.01966918355 -0.09140321843 3.590183706e-13)
(-0.017366687 -0.09152593352 0)
(-0.01731609312 -0.08933894206 0)
(-0.01038406364 -0.0895128076 0)
(-0.01040976109 -0.09060606445 0)
(-0.009258284247 -0.09063466439 0)
(-0.009245308546 -0.09008803919 0)
(-0.009232284637 -0.08954151686 0)
(0.008955166811 -0.09008129185 0)
(0.008921037839 -0.09117834944 0)
(0.01007347149 -0.09120529655 0)
(0.01010784667 -0.09010855015 0)
(0.01814592 -0.09006292528 3.583244812e-13)
(0.01804307632 -0.09206102377 3.576028362e-13)
(0.0198687191 -0.08988789623 3.489986078e-13)
(0.02004654479 -0.08827188264 3.510247648e-13)
(0.02218183286 -0.07280943428 2.893796314e-13)
(0.02171047547 -0.07311261941 2.837452495e-13)
(0.02110463789 -0.06544792506 2.540467836e-13)
(0.02149247574 -0.06497947898 2.583211423e-13)
(0.01554766269 -0.03794010011 1.510735981e-13)
(0.0151535293 -0.03790022347 1.473821065e-13)
(0.01229233515 -0.02887092152 1.123545701e-13)
(0.01265923768 -0.0290137391 1.15629728e-13)
(0.003950731248 -0.007658209134 3.060052212e-14)
(0.003738578918 -0.007424506453 2.896294315e-14)
(0.001662363119 -0.003140583146 1.225408663e-14)
(0.001804641476 -0.003327960647 1.330879851e-14)
(0 0 0)
(0 0 0)
(0 0 0)
(0 0 0)
(0 0 0)
(0 0 0)
(0 0 0)
(0 0 0)
(0 0 0)
(0 0 0)
(0 0 0)
(0 0 0)
(0 0 0)
(0 0 0)
(0 0 0)
(0 0 0)
(0 0 0)
(0 0 0)
(0 0 0)
(0 0 0)
(0 0 0)
(0 0 0)
(0 0 0)
(0 0 0)
(0 0 0)
(0 0 0)
(0 0 0)
(0 0 0)
(-0.0008085002769 -0.001604522001 5.606626274e-15)
(-0.0008361192468 -0.001624038141 5.800915304e-15)
(-0.0007632481481 -0.001450340087 5.287437155e-15)
(-0.004880443956 -0.01016724483 3.712308239e-14)
(-0.005046587085 -0.01074507047 3.838596108e-14)
(-0.008010197864 -0.0179078724 6.400435737e-14)
(-0.007812515735 -0.01709090024 6.245004514e-14)
(-0.01727183453 -0.044439615 1.627586954e-13)
(-0.01750205322 -0.04600105117 1.64812608e-13)
(-0.02014413005 -0.05624787243 2.016720124e-13)
(-0.01992128387 -0.05446350134 1.996180998e-13)
(-0.02417174434 -0.0815261325 2.991357162e-13)
(-0.02433500611 -0.08377433074 3.006761506e-13)
(-0.02425346431 -0.09060950369 3.251982017e-13)
(-0.02411750417 -0.088296696 3.239769564e-13)
(-0.0198325853 -0.09801433124 3.592265374e-13)
(-0.01988528196 -0.1002102876 3.59254293e-13)
(-0.01756732061 -0.1002713517 0)
(-0.01751719675 -0.09808485649 0)
(-0.01058631479 -0.0982578797 0)
(-0.01061104465 -0.0993510595 0)
(-0.009461745326 -0.09937934999 0)
(-0.009449273653 -0.09883255951 0)
(-0.009436761516 -0.09828617665 0)
(0.008674244679 -0.09883625735 0)
(0.008637007573 -0.09992962754 0)
(0.009789058137 -0.0999556501 0)
(0.009826650772 -0.09886228894 0)
(0.0176568479 -0.09757091405 3.539113447e-13)
(0.01748643095 -0.09913748826 3.518435543e-13)
(0.01900584254 -0.09527455621 3.380212776e-13)
(0.01926634085 -0.09421056019 3.416017469e-13)
(0.02038280246 -0.07385895487 2.67758038e-13)
(0.02003071463 -0.07430856989 2.635947016e-13)
(0.01900371561 -0.06481522651 2.299826996e-13)
(0.01961147421 -0.06537165421 2.370326158e-13)
(0.013385125 -0.03590919827 1.304234498e-13)
(0.01254513996 -0.03440883257 1.222910662e-13)
(0.009729828214 -0.02504859723 8.909539773e-14)
(0.01057220437 -0.02662422949 9.676981438e-14)
(0.002652403647 -0.005644775268 2.056688153e-14)
(0.002316451077 -0.005039620757 1.795785742e-14)
(0.000752422056 -0.001557391883 5.551115123e-15)
(0.0009470452316 -0.001917452612 6.994405055e-15)
(0 0 0)
(0 0 0)
(0 0 0)
(0 0 0)
(0 0 0)
(0 0 0)
(0 0 0)
(0 0 0)
(0 0 0)
(0 0 0)
(0 0 0)
(0 0 0)
(0 0 0)
(0 0 0)
(0 0 0)
(0 0 0)
(0 0 0)
(0 0 0)
(0 0 0)
(0 0 0)
(0 0 0)
(0 0 0)
(0 0 0)
(0 0 0)
(0 0 0)
(0 0 0)
(0 0 0)
(0 0 0)
(-0.001437525612 -0.003094476383 9.964251646e-15)
(-0.001310553972 -0.002765908785 9.076073226e-15)
(-0.001121593457 -0.00232009202 7.771561172e-15)
(-0.005580682924 -0.01264914588 4.241051954e-14)
(-0.005996316709 -0.01386334116 4.556077737e-14)
(-0.009096500442 -0.02207293324 7.259470802e-14)
(-0.008587701229 -0.02043249627 6.857014956e-14)
(-0.01827995137 -0.05106241221 1.717515019e-13)
(-0.01862211053 -0.05303318896 1.74818493e-13)
(-0.02117603074 -0.06402297327 2.111644193e-13)
(-0.02089206213 -0.06196502586 2.085553952e-13)
(-0.02486789552 -0.09075954841 3.057415432e-13)
(-0.02496260723 -0.09282031158 3.06407677e-13)
(-0.02484411701 -0.1001491082 3.305966612e-13)
(-0.02469051771 -0.09772419671 3.291950046e-13)
(-0.02004056247 -0.1067714032 0)
(-0.02009367777 -0.1089576191 0)
(-0.0177722417 -0.1090154919 0)
(-0.01774589688 -0.1079227598 0)
(-0.01771985423 -0.1068299183 0)
(-0.01078170284 -0.1070028721 0)
(-0.01079389733 -0.1075487548 0)
(-0.01021909014 -0.1075627008 0)
(-0.01020695031 -0.1070169691 0)
(-0.0008126571112 -0.1073858993 0)
(-0.0008259094965 -0.1076579727 0)
(-0.0008373327009 -0.1079301434 0)
(-0.0002744041956 -0.1079380445 0)
(-0.0002488704221 -0.1073942288 0)
(0.00835118424 -0.1075694672 0)
(0.008305632152 -0.108658052 0)
(0.008259630699 -0.1097463205 0)
(0.01057051833 -0.1097993004 0)
(0.01065961026 -0.1076213173 0)
(0.009505826384 -0.1075955048 0)
(0.01686186023 -0.1029452122 3.431976925e-13)
(0.01656133107 -0.1035312143 3.383127112e-13)
(0.0176728377 -0.0973576115 3.180650188e-13)
(0.01814789963 -0.09772478887 3.256978021e-13)
(0.01831576897 -0.07263047223 2.420702527e-13)
(0.01765379008 -0.07150353059 2.3361868e-13)
(0.01638171201 -0.06092755033 1.991184995e-13)
(0.01707407178 -0.06218894565 2.073341498e-13)
(0.01039603522 -0.03038968813 1.014882622e-13)
(0.009770048474 -0.02914777071 9.540979118e-14)
(0.007148787065 -0.02001070596 6.554479182e-14)
(0.007700094283 -0.02112059213 7.0568551e-14)
(0.001095415135 -0.002538666414 8.493206138e-15)
(0.0008904787855 -0.002106053811 6.911138328e-15)
(7.060614877e-05 -0.0001589221476 5.134781489e-16)
(0.0001348968193 -0.000297510611 9.853229344e-16)
(0 0 0)
(0 0 0)
(0 0 0)
(0 0 0)
(0 0 0)
(0 0 0)
(0 0 0)
(0 0 0)
(0 0 0)
(0 0 0)
(0 0 0)
(0 0 0)
(0 0 0)
(0 0 0)
(0 0 0)
(0 0 0)
(0 0 0)
(0 0 0)
(0 0 0)
(0 0 0)
(0 0 0)
(0 0 0)
(0 0 0)
(0 0 0)
(0 0 0)
(0 0 0)
(0 0 0)
(0 0 0)
(-0.001363280288 -0.003179307873 9.478529073e-15)
(-0.001540640181 -0.003527342656 1.071365219e-14)
(-0.001646271606 -0.003699314587 1.146305273e-14)
(-0.006642121595 -0.01634906072 5.068168107e-14)
(-0.006428744155 -0.01612228219 4.90579799e-14)
(-0.009592307292 -0.02524413921 7.686906667e-14)
(-0.009847761567 -0.02543797771 7.892297926e-14)
(-0.01947096854 -0.05900058788 1.834365992e-13)
(-0.01915964014 -0.05913006739 1.804112415e-13)
(-0.02168370098 -0.07101914739 2.167988011e-13)
(-0.02198644608 -0.07071604326 2.199768145e-13)
(-0.02547858795 -0.1007576518 3.136796378e-13)
(-0.02528266416 -0.1017423955 3.108346913e-13)
(-0.02497479892 -0.1089505757 3.32830985e-13)
(-0.02511192028 -0.107686796 3.352179645e-13)
(-0.01999672333 -0.1155442269 0)
(-0.02005228559 -0.1177307363 0)
(-0.01772437679 -0.1177898917 0)
(-0.01769660211 -0.116696891 0)
(-0.01766881452 -0.1156033823 0)
(-0.01068518969 -0.115780846 0)
(-0.01071297728 -0.1168743546 0)
(-0.009549073665 -0.1169039311 0)
(-0.009535173419 -0.1163569228 0)
(-0.00952128608 -0.1158104224 0)
(-0.01010323789 -0.1157956342 0)
(-0.001373708515 -0.1160174637 0)
(-0.001387594881 -0.1165639641 0)
(-0.00140149464 -0.1171109724 0)
(-0.0002375552654 -0.1171405498 0)
(-0.0002097676807 -0.1160470411 0)
(0.007937776001 -0.1162540816 0)
(0.007882213738 -0.118440591 0)
(0.01017520278 -0.1180456275 3.578942698e-13)
(0.01025837882 -0.1162210603 3.58990615e-13)
(0.01568275861 -0.1050428551 3.240463453e-13)
(0.01528927543 -0.1047095881 3.171213292e-13)
(0.01606388176 -0.09662990981 2.926131559e-13)
(0.01653631413 -0.09737536018 3.003430837e-13)
(0.01536544945 -0.0661235369 2.03989603e-13)
(0.01474353503 -0.06470409992 1.959821194e-13)
(0.01314906808 -0.05290037311 1.602745714e-13)
(0.01404897787 -0.05546803124 1.711686348e-13)
(0.007374046498 -0.02331857184 7.206735209e-14)
(0.00642668208 -0.02070142133 6.281086762e-14)
(0.004367674358 -0.01320089512 4.00651734e-14)
(0.004976883379 -0.01476420814 4.565792189e-14)
(0.0001833415521 -0.0004597800083 1.415534356e-15)
(8.281430509e-05 -0.0002116421187 6.383782392e-16)
(0 0 0)
(0 0 0)
(0 0 0)
(0 0 0)
(0 0 0)
(0 0 0)
(0 0 0)
(0 0 0)
(0 0 0)
(0 0 0)
(0 0 0)
(0 0 0)
(0 0 0)
(0 0 0)
(0 0 0)
(0 0 0)
(0 0 0)
(0 0 0)
(0 0 0)
(0 0 0)
(0 0 0)
(0 0 0)
(0 0 0)
(0 0 0)
(0 0 0)
(0 0 0)
(0 0 0)
(0 0 0)
(0 0 0)
(0 0 0)
(-0.0003184052203 -0.0007970251423 2.220446049e-15)
(-0.0005777568088 -0.001421491847 4.024558464e-15)
(-0.0008583750633 -0.002075156868 5.967448757e-15)
(-0.004925976885 -0.01304890836 3.760880496e-14)
(-0.004208530588 -0.01134901607 3.214095656e-14)
(-0.006856645685 -0.01940708694 5.498379529e-14)
(-0.00775653726 -0.02156359712 6.217248938e-14)
(-0.01679085744 -0.05472362073 1.580818809e-13)
(-0.01556610517 -0.05165939939 1.466049504e-13)
(-0.01807493263 -0.06363783978 1.80702675e-13)
(-0.01931991445 -0.06680160066 1.93067784e-13)
(-0.02349627001 -0.09963752526 2.882138972e-13)
(-0.02246351009 -0.09695735947 2.755434769e-13)
(-0.02266390121 -0.1059110728 3.010092176e-13)
(-0.02354619091 -0.1081362917 3.127914594e-13)
(-0.01998751745 -0.1229542853 3.553823902e-13)
(-0.01969067834 -0.123060351 3.495259637e-13)
(-0.01778387881 -0.1254694845 3.562289352e-13)
(-0.01787971705 -0.1242767346 3.590461262e-13)
(-0.01090746456 -0.1245278996 0)
(-0.01096303973 -0.1267149169 0)
(-0.008635181712 -0.126774071 0)
(-0.008579606542 -0.1245870537 0)
(-0.009743560944 -0.124557476 0)
(-0.00159598171 -0.1247645174 0)
(-0.00165155688 -0.1269515347 0)
(0.0006763163715 -0.1270106892 0)
(0.0007318915409 -0.1248236719 0)
(0.007657735258 -0.1238850056 3.560762796e-13)
(0.007504478215 -0.1240889979 3.505251644e-13)
(0.009513087041 -0.1203336294 3.397837567e-13)
(0.009764288554 -0.1211010745 3.479161403e-13)
(0.01399822163 -0.1014796477 2.913086439e-13)
(0.01339383577 -0.098778997 2.787076125e-13)
(0.01370236853 -0.08857646642 2.499112028e-13)
(0.01441052395 -0.09159809823 2.6291469e-13)
(0.01219853989 -0.0564633326 1.621480727e-13)
(0.01133381157 -0.05333527944 1.505462421e-13)
(0.009621719795 -0.04150310117 1.17197918e-13)