/*--------------------------------*- C++ -*----------------------------------*\
| =========                 |                                                 |
| \\      /  F ield         | OpenFOAM: The Open Source CFD Toolbox           |
|  \\    /   O peration     | Version:  v1912                                 |
|   \\  /    A nd           | Website:  www.openfoam.com                      |
|    \\/     M anipulation  |                                                 |
\*---------------------------------------------------------------------------*/
FoamFile
{
    version     2.0;
    format      ascii;
    class       volVectorField;
    location    "0.97";
    object      U;
}
// * * * * * * * * * * * * * * * * * * * * * * * * * * * * * * * * * * * * * //

dimensions      [0 1 -1 0 0 0 0];


internalField   nonuniform List<vector> 
12556
(
(99.99803111 0.004704899487 -4.435495406e-21)
(99.99753914 0.01547403652 5.381081793e-25)
(99.99610551 0.03150730463 -4.422252944e-21)
(99.99372869 0.056178435 -4.386197247e-21)
(99.9998412 0.04317485163 4.218557989e-21)
(99.99699927 0.06905051423 0)
(99.99551081 0.1083591013 0)
(99.99517311 0.161086688 -7.232521956e-21)
(99.99405835 0.2283959081 8.335432251e-22)
(99.99355462 0.3062460919 -5.271365566e-21)
(99.99436834 0.3831033577 7.599563568e-22)
(99.99567018 0.4408939875 0)
(100.0003084 0.4622485092 0)
(100.0046549 0.4390789601 1.48836399e-21)
(100.0056832 0.3822188264 -1.968485092e-21)
(100.0062569 0.3092580542 1.024564174e-21)
(100.0056982 0.236054507 0)
(100.0049139 0.172356504 1.560884662e-21)
(100.0044297 0.1198812676 6.386581948e-21)
(100.0023628 0.08266904976 -1.760309953e-21)
(100.0089728 0.09240356723 -1.519816859e-20)
(100.0060128 0.05622398703 0)
(100.0043106 0.02956513389 -1.895918721e-21)
(100.0040653 0.009246543613 -1.333621391e-20)
(99.9824503 0.01267321744 1.778653787e-20)
(99.97656336 0.04217059773 4.437516199e-21)
(99.96322342 0.08651544499 3.095822504e-20)
(99.94038485 0.1551484383 -1.325792311e-20)
(99.94570103 0.204610418 4.252857579e-21)
(99.91145481 0.3305584981 -6.059667651e-23)
(99.86848523 0.5191614012 0)
(99.84730854 0.6831270614 -7.346988e-21)
(99.805352 0.980139731 -6.711848869e-21)
(99.78058237 1.335155863 -1.139361502e-20)
(99.79266593 1.697084711 -4.551907536e-21)
(99.85201811 1.979275257 -2.567633628e-21)
(99.95099215 2.098090352 -8.856226531e-22)
(100.0563424 2.012086749 6.537654542e-22)
(100.130392 1.762465737 -6.417085706e-22)
(100.1601496 1.428561819 5.277711038e-21)
(100.1540692 1.088805799 -9.909911138e-21)
(100.1272318 0.796492643 0)
(100.1278013 0.5840878916 -2.687959751e-20)
(100.0887466 0.3908706841 5.153539707e-20)
(100.0842074 0.2619140704 1.471367804e-20)
(100.0574173 0.1588458403 3.015540664e-20)
(100.041921 0.08381665644 -3.024477873e-20)
(100.0359952 0.02625817418 1.523247682e-20)
(99.95275024 0.01675204387 -1.774691954e-20)
(99.93607745 0.05679847543 -3.566319909e-20)
(99.89976672 0.1189405517 -7.979562423e-20)
(99.83903906 0.2181040369 1.061212672e-19)
(99.81213539 0.3242065841 -8.764075084e-21)
(99.70959269 0.5385538846 -8.469375773e-21)
(99.57621018 0.8637389674 -1.467299709e-20)
(99.50918499 1.208644962 0)
(99.37390973 1.781065548 2.787961349e-20)
(99.29551112 2.481729132 -4.766861057e-20)
(99.34869633 3.213840936 7.842893366e-20)
(99.57112151 3.831834625 1.07189132e-19)
(99.95067042 4.122182665 -8.364087971e-21)
(100.344221 3.953439141 0)
(100.588579 3.400470979 -3.593368863e-20)
(100.6600736 2.70134713 -4.050874654e-21)
(100.6123117 2.025320587 -1.060597166e-20)
(100.502529 1.445768798 -2.428197528e-20)
(100.4203635 0.9873623849 -1.614407026e-19)
(100.2997674 0.6518721346 -3.550037974e-20)
(100.2311992 0.3920622209 -1.502623053e-20)
(100.1604471 0.2356219939 3.411389683e-20)
(100.1178257 0.1242859557 -3.825485876e-21)
(100.0992401 0.03875852201 0)
(99.91727166 0.01460535114 -8.959385699e-21)
(99.88524919 0.05206629939 6.268634443e-20)
(99.81669367 0.1170337718 -1.793929656e-20)
(99.7046454 0.2244845322 0)
(99.6184583 0.3743104078 0)
(99.41821452 0.6509668933 -6.881585018e-20)
(99.14380094 1.087029094 -1.374720743e-19)
(98.93950247 1.604167983 3.213603241e-20)
(98.62416766 2.44114957 -6.425587231e-20)
(98.41728948 3.49761459 2.383398791e-19)
(98.44908261 4.723966277 4.217486158e-19)
(98.90155033 5.900274307 -1.277822494e-19)
(99.82803801 6.553751293 7.194091199e-20)
(100.8483929 6.274760316 9.856619186e-20)
(101.4455165 5.225792591 -4.118142946e-19)
(101.5369952 3.952134188 -1.603614101e-19)
(101.3622703 2.840213174 9.49853029e-20)
(101.1050385 1.975921103 0)
(100.8632116 1.282647605 5.817055033e-20)
(100.6140774 0.8270909514 -4.464441506e-20)
(100.4345759 0.4587606407 -3.837508531e-20)
(100.3031042 0.2724380711 1.938412304e-20)
(100.2216043 0.1414997283 -3.885286902e-21)
(100.1844243 0.04369250794 0)
(99.89112438 0.004726730445 0)
(99.84119777 0.02289089502 0)
(99.73520274 0.07212084454 9.090374965e-21)
(99.56117707 0.1633689505 1.369914956e-20)
(99.40230112 0.3361625774 2.264392513e-20)
(99.07113763 0.6340293187 0)
(98.61226392 1.110584316 0)
(98.19023254 1.75986188 0)
(97.60877235 2.789359409 5.777767452e-19)
(97.09636281 4.211557601 2.963784367e-19)
(96.88311767 6.103819515 0)
(97.48611697 8.314796144 0)
(99.41713017 9.838840176 0)
(101.7711512 9.364624613 -2.773668082e-19)
(102.9907776 7.35460974 5.736487271e-19)
(102.9933963 5.143609147 4.106661054e-19)
(102.4698206 3.45171198 -2.122179314e-19)
(101.9143874 2.294441882 -3.845797953e-22)
(101.425516 1.413788564 -9.495503184e-20)
(101.0011876 0.8848291026 7.877391813e-21)
(100.6667792 0.4430143882 0)
(100.4605099 0.2571524718 3.948466169e-21)
(100.3321297 0.1288077256 -2.965592391e-21)
(100.272513 0.03902249892 -9.830926232e-22)
(99.89108677 -0.01339198048 0)
(99.82280163 -0.03251081119 0)
(99.6795839 -0.02159848266 -1.819059103e-20)
(99.44021353 0.03029355765 3.71632519e-20)
(99.19862692 0.1945447323 0)
(98.72310573 0.4574267828 0)
(98.04795302 0.8992811327 2.909908541e-20)
(97.38052601 1.572109457 3.154489803e-19)
(96.41345985 2.638931385 0)
(95.33899182 4.271625059 3.575555263e-19)
(94.31865431 6.927046651 -1.280811725e-18)
(94.41164044 11.12445621 -2.01894308e-18)
(98.30940005 15.09537639 0)
(103.8423233 13.84565413 8.46550958e-19)
(105.8273471 9.625487378 1.341388764e-18)
(105.2520049 6.058850591 -1.472488764e-18)
(103.9668209 3.716879533 4.802028051e-19)
(102.8703533 2.307792247 9.824322672e-20)
(102.0531482 1.326999925 2.435643021e-20)
(101.4135787 0.7901792981 -1.622718253e-20)
(100.8951584 0.3334167817 0)
(100.6043968 0.1819723475 0)
(100.4260172 0.08235504758 -9.940717451e-22)
(100.3424937 0.02370751675 -2.977713896e-21)
(99.93331107 -0.03931482205 4.456255125e-21)
(99.84854719 -0.1121151543 -4.491494019e-21)
(99.6733852 -0.1606034469 9.174005302e-21)
(99.37684697 -0.1749401148 -3.352864916e-20)
(99.04371322 -0.05248259967 6.769576698e-23)
(98.43873403 0.1175361405 2.882244855e-20)
(97.57613745 0.4352515021 -9.071481337e-20)
(96.64757638 1.00051282 -6.951750679e-19)
(95.25722406 1.903256472 -8.169870223e-19)
(93.4185255 3.374130506 1.485618291e-18)
(90.73257612 6.106655459 2.150743966e-18)
(87.24279376 12.87913956 1.062459814e-18)
(94.40797112 25.28475773 0)
(110.1638731 20.02522352 1.638978353e-18)
(110.8332421 11.14117301 1.59387226e-18)
(108.312984 6.054621711 -3.061920011e-19)
(105.7465612 3.350116848 0)
(103.8897991 1.912567561 0)
(102.641653 0.9713999165 0)
(101.7928044 0.5185740736 8.752750573e-21)
(101.077593 0.1306886053 2.598413871e-21)
(100.7040984 0.04345959261 -3.076435197e-21)
(100.4796644 0.002342816549 -3.500588588e-21)
(100.373228 -0.002090984331 8.444767029e-21)
(100.0316689 -0.07141875734 -4.45672524e-21)
(99.93456167 -0.2107056316 4.493104832e-21)
(99.73654001 -0.3347469519 -5.71013079e-21)
(99.3991811 -0.4360023458 -3.850787042e-21)
(98.98909027 -0.3874787065 1.644329948e-20)
(98.28734011 -0.3569440845 9.829933568e-21)
(97.30606442 -0.2478124062 -9.900094577e-20)
(96.16136932 0.09339800707 -7.457146363e-19)
(94.46140493 0.6050105487 -4.340367058e-19)
(92.0404369 1.4005326 0)
(87.88959497 2.61180969 2.014803096e-18)
(79.46227367 4.946414968 -1.245692984e-18)
(125.7982954 22.4819147 3.260676752e-18)
(117.7038401 9.082900758 2.464782812e-18)
(111.6460958 4.330212857 0)
(107.4332101 2.125471057 -3.180596606e-19)
(104.7842525 1.052203221 -1.545994208e-19)
(103.0793975 0.3502888351 -4.620229967e-21)
(102.0646207 0.0867366986 1.972851071e-20)
(101.1688501 -0.1579642528 -3.156894631e-21)
(100.730261 -0.1488611784 2.585748645e-21)
(100.4702925 -0.1061937543 -4.836094482e-22)
(100.3449154 -0.03718000154 -7.918130699e-21)
(100.1962129 -0.1072431608 -2.151088946e-21)
(100.0923865 -0.3206745468 -1.617018339e-21)
(99.8832342 -0.5295678767 -5.547324799e-22)
(99.52624943 -0.7295769061 1.683612442e-21)
(99.06151643 -0.7774668456 -3.276389093e-23)
(98.31662924 -0.9145417246 0)
(97.29909152 -1.050972972 5.534963029e-20)
(96.04500641 -1.000449979 4.818061115e-19)
(94.25614624 -0.9616275592 -4.538706116e-19)
(91.80622044 -0.9690384023 -6.160911517e-20)
(88.01700113 -1.474277478 -9.986912945e-19)
(82.84383414 -3.603977527 -2.879309435e-21)
(138.3378565 5.907793613 0)
(122.3007777 2.190459765 -7.982930697e-20)
(113.8296188 0.7460444837 -2.103534883e-18)
(108.5003493 0.09345139778 -1.719630804e-18)
(105.3059581 -0.1970960513 -6.099495293e-19)
(103.269546 -0.4654981322 -4.695496586e-21)
(102.1544811 -0.4687498675 1.104664502e-20)
(101.1358845 -0.5057033323 1.07970625e-21)
(100.6598016 -0.3775778616 0)
(100.379155 -0.2342400761 3.98768395e-21)
(100.2418561 -0.07872374852 3.94387559e-21)
(100.4316933 -0.1438731156 4.238046982e-21)
(100.3273448 -0.433021618 6.523370523e-23)
(100.1197947 -0.7281075358 0)
(99.76602783 -1.029137877 2.188352753e-22)
(99.27457216 -1.183485764 -2.25980267e-21)
(98.54355334 -1.490797973 2.418501598e-21)
(97.56730001 -1.863411414 5.268065228e-21)
(96.32756212 -2.090484249 1.950998894e-19)
(94.65522736 -2.445739223 0)
(92.48799882 -2.989177581 1.005472194e-18)
(89.51231075 -4.146494631 1.861284176e-18)
(86.30135054 -6.128680241 0)
(134.9840747 -10.54284692 0)
(121.7950435 -5.753567314 1.536331417e-18)
(113.8122694 -3.50427979 0)
(108.5107489 -2.274526604 0)
(105.2751264 -1.621239943 -1.237118103e-18)
(103.1455226 -1.36564574 3.966290448e-20)
(102.0238729 -1.081939742 0)
(100.9603045 -0.8755412434 -1.054859908e-21)
(100.4793058 -0.6200260309 -4.394820281e-21)
(100.1954216 -0.369956942 4.909571564e-22)
(100.0547288 -0.1228405464 0)
(100.737071 -0.1785010157 -2.086773411e-21)
(100.6379648 -0.5389180274 2.106124183e-21)
(100.4434801 -0.9139598964 2.054259427e-21)
(100.1156686 -1.309562957 -1.927359458e-21)
(99.62208624 -1.568428711 -2.229152777e-21)
(98.95233642 -2.025450424 0)
(98.07573147 -2.598520225 -8.284595314e-20)
(96.92992244 -3.052860857 -9.280230739e-19)
(95.45793524 -3.680002543 0)
(93.6181082 -4.52010321 0)
(91.18470514 -5.889573321 1.929190279e-20)
(88.62855384 -7.59159687 2.128495888e-19)
(125.7180478 -19.37818781 0)
(117.713497 -11.46012233 2.392295565e-18)
(111.8515348 -6.981532828 0)
(107.5042955 -4.379381896 -1.271606171e-18)
(104.683112 -2.961129958 0)
(102.7043975 -2.219946707 0)
(101.6726893 -1.673240531 -2.604134904e-20)
(100.6405044 -1.228437399 -1.325122115e-20)
(100.1878773 -0.8521463401 1.003860285e-21)
(99.91787116 -0.5006661023 -3.180690518e-21)
(99.78217353 -0.1654628382 4.656698889e-22)
(101.1058734 -0.208707052 7.6374533e-21)
(101.0169532 -0.6306681775 0)
(100.8440657 -1.071223173 -2.050225279e-21)
(100.557345 -1.556738993 0)
(100.0785576 -1.902772735 0)
(99.5098208 -2.4743652 -6.626959149e-21)
(98.77141663 -3.199569092 -1.481685607e-19)
(97.76702135 -3.82070993 -5.256704989e-19)
(96.52304649 -4.623983777 8.175898787e-19)
(94.98221728 -5.647496226 2.574643607e-20)
(92.89918296 -7.186654393 1.516708414e-18)
(90.530425 -8.926990517 -7.489676836e-19)
(116.0798699 -22.38864014 0)
(112.3659483 -14.18832722 -8.97485314e-19)
(108.8794287 -9.042239158 0)
(105.8349192 -5.840683166 1.111987767e-18)
(103.667197 -4.00786231 0)
(102.0025952 -2.922589628 2.085294408e-21)
(101.1345788 -2.177241096 -3.183114674e-20)
(100.196811 -1.537450565 7.842963431e-21)
(99.79728854 -1.051835561 0)
(99.55440609 -0.6152912884 3.662004422e-21)
(99.43068673 -0.2030170332 0)
(101.5277019 -0.2335927456 7.627652935e-21)
(101.451848 -0.7067960123 1.203370693e-19)
(101.3044268 -1.199564548 -2.42487752e-19)
(101.0627598 -1.751089817 -5.33919301e-22)
(100.6454338 -2.160381838 -1.923609178e-21)
(100.178255 -2.810986711 0)
(99.60033258 -3.636928373 2.854836066e-19)
(98.75678446 -4.358372936 -6.716542321e-19)
(97.75733586 -5.261852521 1.526111946e-18)
(96.51894004 -6.407929155 -7.543231173e-19)
(94.81520593 -8.168896055 1.829438341e-20)
(92.73672439 -10.24018854 0)
(103.0726858 -31.34199711 4.056789289e-19)
(107.3908617 -20.57906108 -2.881751461e-19)
(107.3277452 -14.37033888 -5.729813358e-19)
(105.781065 -9.711460201 7.479706087e-19)
(103.9253407 -6.58221297 -7.389556687e-19)
(102.4247342 -4.675151878 8.506049931e-21)
(101.1347294 -3.411139607 -6.380596739e-20)
(100.4600392 -2.549838371 0)
(99.66340819 -1.773295928 0)
(99.32781991 -1.206717988 1.149496628e-20)
(99.1200282 -0.7064704047 2.117145449e-21)
(99.01309478 -0.2329617235 -6.876578422e-21)
(101.9890374 -0.2507981801 0)
(101.927904 -0.7601207095 0)
(101.8097308 -1.288014923 0)
(101.6154858 -1.874667752 0)
(101.2583572 -2.343942921 0)
(100.8947629 -3.048476526 0)
(100.4665952 -3.924854514 0)
(99.80693204 -4.685886942 0)
(99.04758635 -5.620039976 -6.458539777e-19)
(98.12996924 -6.806177628 6.739219478e-19)
(96.93113332 -8.662733741 1.511409989e-20)
(95.7252477 -11.32423159 2.48245834e-19)
(96.23237108 -20.51744538 6.998487899e-20)
(102.2017408 -16.88208606 4.614218083e-19)
(103.5272728 -12.95089263 8.100303837e-20)
(103.1112727 -9.36784097 5.536471026e-19)
(102.0952108 -6.718322543 -8.194407989e-19)
(101.1277678 -4.979650943 -9.851842691e-20)
(100.1991031 -3.681842373 -8.94965332e-20)
(99.71537302 -2.785007798 -3.365998332e-20)
(99.072846 -1.923488271 -1.873077153e-20)
(98.80307065 -1.313054697 1.8483373e-20)
(98.63401112 -0.7702722889 0)
(98.54614367 -0.2539007631 1.846256616e-20)
(102.4761886 -0.2603643165 0)
(102.4304879 -0.7900053513 0)
(102.3436521 -1.336845154 0)
(102.1980943 -1.933137762 0)
(101.8998367 -2.43301396 0)
(101.6448948 -3.152059863 0)
(101.3599702 -4.008377676 2.729308856e-20)
(100.868468 -4.808299874 0)
(100.3157215 -5.731774983 -2.174156662e-18)
(99.69633221 -6.830595935 0)
(99.05753966 -8.395607069 -2.007728557e-19)
(98.8581163 -10.83237076 -3.139833964e-19)
(97.76332572 -13.41990438 0)
(100.1431023 -12.99292485 1.001391897e-19)
(101.1350087 -10.93599724 4.962686898e-20)
(101.0681073 -8.49523417 0)
(100.5121814 -6.4552192 -7.100170104e-21)
(99.91100263 -5.005397771 -2.420388341e-20)
(99.26689462 -3.764928303 0)
(98.95606864 -2.893441741 0)
(98.45496429 -1.994367958 -3.498843818e-20)
(98.24761122 -1.370199945 1.726615039e-20)
(98.11686524 -0.8056673031 7.224154071e-22)
(98.04796416 -0.2655831758 -1.272593434e-20)
(102.9750195 -0.2627773645 0)
(102.9436219 -0.7973680556 0)
(102.8857739 -1.347660513 0)
(102.7851026 -1.935713498 0)
(102.5409666 -2.44510826 0)
(102.3778131 -3.145534301 0)
(102.205784 -3.946170111 7.338882704e-22)
(101.8600874 -4.752784332 6.769236455e-21)
(101.4633623 -5.641661521 0)
(101.0435752 -6.601386178 -9.598667008e-20)
(100.7074865 -7.759243384 2.403800868e-18)
(97.5393605 -8.68894399 -6.956969408e-19)
(98.76836671 -10.25919553 1.712308099e-19)
(99.48290604 -10.17936579 4.650524432e-20)
(99.7361107 -9.048007875 1.792276311e-20)
(99.5825927 -7.452689268 -4.485452704e-19)
(99.21918505 -5.977911614 2.23433722e-21)
(98.83462192 -4.817867928 0)
(98.4034124 -3.702980075 -2.990855902e-20)
(98.21953085 -2.891799416 4.520377786e-20)
(97.83750855 -1.997596298 1.091161137e-20)
(97.68484742 -1.383508746 1.860342762e-20)
(97.58789752 -0.8152955951 -2.113728525e-20)
(97.53592577 -0.2687775674 0)
(103.4725173 -0.2590947798 0)
(103.4532687 -0.7855260838 0)
(103.4193723 -1.325993988 0)
(103.3560927 -1.891457669 0)
(103.1601823 -2.393478729 0)
(103.0683414 -3.052438988 0)
(102.9768658 -3.778221346 0)
(102.7341766 -4.534761579 7.343175041e-20)
(102.437632 -5.36468514 -1.698956343e-19)
(102.0981522 -6.178932231 1.156383929e-18)
(101.9710349 -7.046202103 -5.684965667e-20)
(93.64174715 -6.807175684 -2.446872117e-21)
(99.2906901 -8.292002806 3.713106607e-19)
(99.09757764 -8.216280153 9.519323421e-20)
(98.81654828 -7.493542445 1.003296446e-19)
(98.50481644 -6.455570599 -3.849033211e-19)
(98.19472453 -5.430851303 -7.553781319e-21)
(97.92346709 -4.507855567 0)
(97.63291666 -3.541290279 0)
(97.53003933 -2.804908226 0)
(97.2421203 -1.947470881 3.791453345e-20)
(97.1334429 -1.360390339 -3.547477952e-20)
(97.06358473 -0.8029498703 -2.391407568e-21)
(97.02533381 -0.2650611674 2.399471918e-21)
(103.9576617 -0.2505512174 0)
(103.9481366 -0.7584653378 0)
(103.9326411 -1.278633684 0)
(103.8981623 -1.810894719 0)
(103.7415029 -2.291984271 0)
(103.6998485 -2.896358356 0)
(103.6582982 -3.538606685 0)
(103.4720737 -4.200809276 0)
(103.2095459 -4.924036345 0)
(102.857837 -5.607195519 0)
(101.9764898 -6.22200803 6.811240169e-19)
(96.16144345 -6.535028412 -2.48540926e-20)
(99.33421645 -6.932152339 1.539743789e-20)
(98.69131361 -6.786790617 -1.434252393e-19)
(98.13397167 -6.281451909 0)
(97.71725894 -5.606739717 7.998323683e-20)
(97.39836599 -4.873498194 0)
(97.17011865 -4.13750913 0)
(96.95522133 -3.310525409 0)
(96.90022697 -2.656338631 0)
(96.68163024 -1.856158996 0)
(96.60566729 -1.307105233 0)
(96.55664809 -0.773910022 0)
(96.52879257 -0.2564616896 0)
(104.4220668 -0.2383514924 0)
(104.4198513 -0.7200702419 0)
(104.417408 -1.21231901 0)
(104.4032888 -1.705068928 0)
(104.2758989 -2.156002206 0)
(104.2646867 -2.700256165 0)
(104.2471894 -3.261902842 0)
(104.0825366 -3.827348378 0)
(103.8162167 -4.41060677 0)
(103.4328084 -4.966179466 1.089169397e-20)
(100.4449594 -5.280692624 1.136220551e-19)
(98.88274188 -5.773365372 3.552882205e-21)
(99.20943849 -5.838370794 3.813304134e-20)
(98.35099877 -5.697853219 -3.356500454e-22)
(97.65769687 -5.362753112 0)
(97.14494211 -4.888949587 0)
(96.78087734 -4.332265643 0)
(96.55303141 -3.744567134 0)
(96.37005686 -3.044020191 0)
(96.33754792 -2.47181895 0)
(96.16427502 -1.738832748 0)
(96.1101082 -1.233584816 0)
(96.0751457 -0.73220358 0)
(96.05545476 -0.2431807411 0)
(104.8598306 -0.2236465725 0)
(104.8626261 -0.6740230234 0)
(104.8682891 -1.133361145 0)
(104.8668132 -1.583971596 0)
(104.7597226 -1.999554716 0)
(104.7627124 -2.483538074 0)
(104.7490504 -2.973170849 0)
(104.5851093 -3.44909178 0)
(104.2940668 -3.919265042 0)
(103.8608551 -4.348111404 0)
(100.2766175 -4.533310934 0)
(99.44270407 -4.928287426 0)
(99.17313095 -4.96488871 0)
(98.14924521 -4.861058553 0)
(97.32437466 -4.616289869 0)
(96.71575168 -4.261512808 0)
(96.29701645 -3.830571083 0)
(96.04698097 -3.35689404 0)
(95.86946318 -2.765403531 0)
(95.84079128 -2.269855835 0)
(95.69372064 -1.607402111 0)
(95.65213501 -1.147900705 0)
(95.62539129 -0.6828240557 0)
(95.61088382 -0.227196483 0)
(105.2672425 -0.2074752034 0)
(105.2730123 -0.6236350408 0)
(105.2825174 -1.047366385 0)
(105.2870774 -1.455635742 0)
(105.1932301 -1.833903131 0)
(105.1980894 -2.261025955 0)
(105.1738145 -2.686384668 0)
(104.999083 -3.085087121 0)
(104.6736259 -3.466550086 0)
(104.1739152 -3.800970127 0)
(100.2483958 -3.923616154 0)
(99.67117137 -4.244165507 0)
(99.15280551 -4.257286856 -2.185071869e-35)
(98.00249815 -4.175206435 0)
(97.07473771 -3.989262849 0)
(96.38600078 -3.716653337 0)
(95.91289437 -3.377183472 0)
(95.63022422 -2.991525953 0)
(95.44238686 -2.491293664 0)
(95.40513094 -2.063957331 0)
(95.27003599 -1.470814283 0)
(95.2336936 -1.056402222 0)
(95.21043709 -0.6295952383 0)
(95.19882528 -0.209889073 0)
(105.6424364 -0.1906977006 0)
(105.6495094 -0.5716295426 0)
(105.6594962 -0.9589405663 0)
(105.6648488 -1.326175933 0)
(105.5787897 -1.66737942 0)
(105.5769449 -2.042721307 0)
(105.5329075 -2.409780642 0)
(105.3411379 -2.74568855 0)
(104.9785937 -3.057620765 0)
(104.4096158 -3.322922605 0)
(100.2490129 -3.409998113 0)
(99.80221245 -3.675116221 0)
(99.12960824 -3.673540759 0)
(97.88803667 -3.605333086 0)
(96.88204852 -3.459388455 0)
(96.1273805 -3.24506292 0)
(95.603941 -2.973387179 0)
(95.28515902 -2.656949159 0)
(95.07748029 -2.232078031 0)
(95.02424632 -1.863423225 0)
(94.89115997 -1.33543974 0)
(94.85454343 -0.9639426602 0)
(94.83120732 -0.5754508193 0)
(94.82067494 -0.1922278101 0)
(105.9850586 -0.1739769699 0)
(105.9921352 -0.5200672543 0)
(106.0001447 -0.8715564777 0)
(106.0024349 -1.200069914 0)
(105.9199862 -1.505812108 0)
(105.9059064 -1.83470622 0)
(105.8379374 -2.150287913 0)
(105.6249509 -2.435066085 0)
(105.2265803 -2.692456063 0)
(104.5904011 -2.905996568 0)
(100.2759899 -2.972732611 0)
(99.87882519 -3.195428713 0)
(99.10446139 -3.184872613 -2.978736617e-35)
(97.79577488 -3.126641805 0)
(96.72954432 -3.00917402 0)
(95.92087418 -2.837364919 0)
(95.35244348 -2.61685908 0)
(94.99800261 -2.354977264 0)
(94.76473424 -1.992816931 0)
(94.69155125 -1.673937146 0)
(94.5537791 -1.205646278 0)
(94.51301685 -0.8739891316 0)
(94.4870968 -0.5225003685 0)
(94.47628034 -0.174899897 0)
(106.2958987 -0.1578008541 0)
(106.3020035 -0.4704259907 0)
(106.306325 -0.7876660222 0)
(106.3028913 -1.080403439 0)
(106.22099 -1.353037482 0)
(106.1912936 -1.64071146 0)
(106.0976055 -1.912092869 0)
(105.8619758 -2.154502282 0)
(105.4306637 -2.368796025 0)
(104.7310888 -2.54272684 0)
(100.3279222 -2.598334521 0)
(99.9221947 -2.78822359 0)
(99.07838989 -2.771820513 0)
(97.71968335 -2.721274909 0)
(96.60637062 -2.624932003 0)
(95.75340696 -2.484986709 0)
(95.1453926 -2.303796971 0)
(94.75704284 -2.08512135 0)
(94.49610452 -1.77525753 0)
(94.40082183 -1.498703452 0)
(94.25405466 -1.084219159 0)
(94.20661361 -0.7888419584 0)
(94.17645162 -0.4721719701 0)
(94.16436725 -0.1583761153 0)
(106.5765166 -0.1425138169 0)
(106.5809437 -0.4237225091 0)
(106.5804495 -0.7089185609 0)
(106.5695678 -0.9691539841 0)
(106.4860501 -1.21142876 0)
(106.4389337 -1.462877715 0)
(106.3192087 -1.696610251 0)
(106.0611932 -1.903667787 0)
(105.6004433 -2.083597078 0)
(104.8420243 -2.226662164 0)
(100.4017067 -2.27659515 0)
(99.94426275 -2.440938724 0)
(99.05213181 -2.420568799 1.013031458e-35)
(97.65591239 -2.376193371 0)
(96.50530091 -2.296047098 0)
(95.61583184 -2.180568294 0)
(94.97323624 -2.030109043 0)
(94.55335483 -1.846023549 0)
(94.26454389 -1.579849222 0)
(94.146446 -1.339288963 0)
(93.98806404 -0.972763201 0)
(93.93240981 -0.7099254485 0)
(93.89697959 -0.4253783463 0)
(93.88294503 -0.1429638243 0)
(106.8289675 -0.1283448423 0)
(106.8312316 -0.3806140209 0)
(106.8252411 -0.6363506131 0)
(106.8058923 -0.8674596837 0)
(106.7193026 -1.082253019 0)
(106.6540466 -1.302095728 0)
(106.5089271 -1.503861959 0)
(106.2297039 -1.681298751 0)
(105.7429773 -1.833558955 0)
(104.9306659 -1.952256569 0)
(100.4935811 -1.999603844 0)
(99.95212546 -2.143991388 0)
(99.02614664 -2.12089368 0)
(97.60181795 -2.081574881 0)
(96.42132284 -2.014160914 0)
(95.501575 -1.91785924 0)
(94.82883456 -1.791788846 0)
(94.38000188 -1.635693757 0)
(94.06410102 -1.406124271 0)
(93.92340999 -1.196160426 0)
(93.75199011 -0.8720385883 0)
(93.68730157 -0.6380304978 0)
(93.6460383 -0.3826508159 0)
(93.62960621 -0.1288472687 0)
(107.0556233 -0.1154314328 0)
(107.055411 -0.3414793113 0)
(107.0435752 -0.5705397566 0)
(107.015252 -0.7758667645 0)
(106.9246023 -0.9660597628 0)
(106.8412077 -1.158489145 0)
(106.671903 -1.333169764 0)
(106.3731317 -1.48572125 0)
(105.8635292 -1.615494309 0)
(105.0024521 -1.714772915 0)
(100.5996999 -1.761172275 0)
(99.9502544 -1.889962667 0)
(99.00069071 -1.865004309 0)
(97.55549243 -1.829893563 0)
(96.35084712 -1.772680544 0)
(95.40581664 -1.691656409 0)
(94.70678159 -1.58517928 0)
(94.23155461 -1.451924582 0)
(93.88984776 -1.253119517 0)
(93.72733114 -1.069132867 0)
(93.54220104 -0.7822418024 0)
(93.46814816 -0.5734984974 0)
(93.42081348 -0.3442408439 0)
(93.40171268 -0.1161188007 0)
(107.2590425 -0.1038430405 0)
(107.2561666 -0.3064928979 0)
(107.2383683 -0.5117319698 0)
(107.200915 -0.6945105402 0)
(107.1055574 -0.862879664 0)
(107.0044758 -1.031667999 0)
(106.8124911 -1.183449795 0)
(106.4960011 -1.315066257 0)
(105.9661695 -1.426419954 0)
(105.0614222 -1.510112964 0)
(100.7163923 -1.556290247 0)
(99.94159343 -1.672943721 0)
(98.97592165 -1.646779749 0)
(97.51550308 -1.615222907 0)
(96.29120146 -1.566298164 0)
(95.32490739 -1.49759074 0)
(94.60286961 -1.40699254 0)
(94.10364981 -1.292481476 0)
(93.73761959 -1.119581547 0)
(93.55432397 -0.957604837 0)
(93.35529173 -0.7032026258 0)
(93.27186577 -0.5163628474 0)
(93.21843802 -0.3102045179 0)
(93.19652214 -0.1048059097 0)
(107.4418269 -0.09360345015 0)
(107.43619 -0.2756935599 0)
(107.4124639 -0.4599561401 0)
(107.3659539 -0.6232782275 0)
(107.2654638 -0.7724512534 0)
(107.1474021 -0.920981378 0)
(106.9343559 -1.053463685 0)
(106.6019594 -1.167478224 0)
(106.0541098 -1.263678677 0)
(105.1105963 -1.334807364 0)
(100.840322 -1.380987572 0)
(99.92819359 -1.488340382 0)
(98.95192696 -1.461442291 0)
(97.48073944 -1.432891683 0)
(96.24034202 -1.390752494 0)
(95.25602591 -1.332045115 0)
(94.51377193 -1.254376402 0)
(93.99273878 -1.155269516 0)
(93.60391075 -1.004183491 0)
(93.40098166 -0.8607836607 0)
(93.18813276 -0.6345520241 0)
(93.09552099 -0.4664696452 0)
(93.03611215 -0.2804763992 0)
(93.01131998 -0.09489538752 0)
(107.6066215 -0.08470491644 0)
(107.5981808 -0.2490297698 0)
(107.5686498 -0.4151003989 0)
(107.5132972 -0.5618952328 0)
(107.4073399 -0.6943471883 0)
(107.2731215 -0.8256641399 0)
(107.0405565 -0.9418846431 0)
(106.6940252 -1.041203103 0)
(106.129963 -1.124937799 0)
(105.1522714 -1.185931496 0)
(100.9687263 -1.232094156 0)
(99.91153633 -1.332471695 0)
(98.92870559 -1.305176837 0)
(97.45029222 -1.2791463 0)
(96.19664366 -1.242569204 0)
(95.19692097 -1.191999233 0)
(94.43678546 -1.124872366 0)
(93.89581571 -1.038420806 0)
(93.48572512 -0.9056584829 0)
(93.26428464 -0.7778080292 0)
(93.03780097 -0.5758067952 0)
(92.93630243 -0.4235551235 0)
(92.87109423 -0.2549168192 0)
(92.84341391 -0.08634809263 0)
(107.7558395 -0.07712667194 0)
(107.7446005 -0.226408191 0)
(107.7094392 -0.3769739654 0)
(107.6455382 -0.5100641844 0)
(107.5339383 -0.6280595613 0)
(107.3844415 -0.7449466193 0)
(107.1336502 -0.8471308528 0)
(106.7746781 -0.9347742706 0)
(106.1958907 -1.008219661 0)
(105.1882184 -1.061075538 0)
(101.09935 -1.107051459 0)
(99.89276881 -1.202309805 0)
(98.90621499 -1.174903912 -1.421298025e-36)
(97.42339491 -1.150964245 0)
(96.15877807 -1.118922961 0)
(95.14575872 -1.074949667 0)
(94.36970423 -1.016394956 0)
(93.81049962 -0.94053887 0)
(93.38034161 -0.8229869272 0)
(93.14152648 -0.7077989054 0)
(92.90174589 -0.5264983152 0)
(92.79171145 -0.387304771 0)
(92.72092065 -0.2333594071 0)
(92.69038302 -0.07911716225 0)
(107.892481 -0.07082433274 0)
(107.8784215 -0.2076882411 0)
(107.8377762 -0.3453400753 0)
(107.765628 -0.4673196076 0)
(107.6478234 -0.5730772676 0)
(107.4839146 -0.6779961075 0)
(107.2163685 -0.768240969 0)
(106.8458914 -0.846778002 0)
(106.2537167 -0.9118310663 0)
(105.2198226 -0.9582297779 0)
(101.2303014 -1.003844464 0)
(99.87282089 -1.095438094 0)
(98.88439972 -1.068151679 0)
(97.39938889 -1.045918976 0)
(96.12562835 -1.017528523 0)
(95.10100133 -0.978833177 0)
(94.31067474 -0.9271449583 0)
(93.73485675 -0.8599902378 0)
(93.28533923 -0.7550261004 0)
(93.0302693 -0.6499428886 0)
(92.77711037 -0.4860276223 0)
(92.65888591 -0.3573864546 0)
(92.58269061 -0.2156054836 0)
(92.54929257 -0.07313703826 0)
(108.0169925 -0.06580639281 0)
(108.0002364 -0.1928300155 0)
(107.954332 -0.3200113036 0)
(107.8742954 -0.4337511503 0)
(107.7513521 -0.5288027364 0)
(107.5738251 -0.623973927 0)
(107.2913053 -0.7053397207 0)
(106.9094821 -0.7757894313 0)
(106.3050578 -0.8342952645 0)
(105.2482106 -0.8756947538 0)
(101.3600193 -0.9208574697 0)
(99.85244008 -1.009904376 0)
(98.86318566 -0.9829313132 0)
(97.37769237 -0.9620593184 0)
(96.09622052 -0.9365380207 0)
(95.06130151 -0.9019598494 0)
(94.25800621 -0.8556054893 0)
(93.66673453 -0.7948337922 0)
(93.19886751 -0.7003537166 0)
(92.92823916 -0.6033228938 0)
(92.66324868 -0.4543643751 0)
(92.53719589 -0.3335262174 0)
(92.45583549 -0.2015649779 0)
(92.41972311 -0.06839983977 0)
(108.1390237 -0.06189944224 0)
(108.1192163 -0.1814735663 0)
(108.0678809 -0.3006269714 0)
(107.9793827 -0.4071486587 0)
(107.8472877 -0.4949373031 0)
(107.6561473 -0.5825913861 0)
(107.3595803 -0.657866359 0)
(106.9673831 -0.7209451155 0)
(106.3513744 -0.7744528884 0)
(105.2743328 -0.8121349055 0)
(101.487228 -0.8568108036 0)
(99.83227787 -0.9441721064 0)
(98.84250025 -0.9177037055 0)
(97.35778441 -0.8978721746 0)
(96.06969049 -0.8745103535 0)
(95.0254687 -0.8430100157 0)
(94.21019893 -0.8006479478 0)
(93.60429499 -0.7447156963 0)
(93.11912405 -0.6583867992 0)
(92.8335652 -0.5680451258 0)
(92.55242551 -0.4291963692 0)
(92.41802779 -0.3153333248 0)
(92.33136371 -0.1908468322 0)
(92.29216788 -0.06471530496 0)
(108.2324021 -0.05959134252 0)
(108.2105782 -0.1745128799 0)
(108.1550324 -0.2882845993 0)
(108.0608354 -0.3926514346 0)
(107.9354518 -0.4707417418 0)
(107.7326175 -0.5531807191 0)
(107.4227742 -0.624591017 0)
(107.0209747 -0.6815419972 0)
(106.3939544 -0.7314178394 0)
(105.2990208 -0.7665498512 0)
(101.6109823 -0.8107891263 0)
(99.81292958 -0.8971463485 0)
(98.822255 -0.8713262263 0)
(97.33917553 -0.8522132109 0)
(96.04524549 -0.8303448132 0)
(94.9924281 -0.8009664173 0)
(94.16594014 -0.7613704385 0)
(93.54615326 -0.7088235185 0)
(93.04439761 -0.6285838534 0)
(92.74469982 -0.5431584602 0)
(92.46535489 -0.4155207378 0)
(92.32527649 -0.3037603775 0)
(92.23451253 -0.1843027659 0)
(92.19335462 -0.06257937333 0)
(108.4062209 -0.05708909598 0)
(108.3801919 -0.1681379319 0)
(108.3166517 -0.277502702 0)
(108.2083888 -0.375552884 0)
(108.016378 -0.4568524232 0)
(107.801471 -0.5359178021 0)
(107.4799127 -0.6055877296 0)
(107.0715315 -0.6569220178 0)
(106.4339604 -0.7044544922 0)
(105.3230526 -0.7382273048 0)
(101.7304004 -0.7822325704 0)
(99.79487176 -0.8681313265 0)
(98.80236504 -0.8429825851 0)