/*--------------------------------*- C++ -*----------------------------------*\
| =========                 |                                                 |
| \\      /  F ield         | OpenFOAM: The Open Source CFD Toolbox           |
|  \\    /   O peration     | Version:  v1912                                 |
|   \\  /    A nd           | Website:  www.openfoam.com                      |
|    \\/     M anipulation  |                                                 |
\*---------------------------------------------------------------------------*/
FoamFile
{
    version     2.0;
    format      ascii;
    class       volScalarField;
    location    "1.17";
    object      k;
}
// * * * * * * * * * * * * * * * * * * * * * * * * * * * * * * * * * * * * * //

dimensions      [0 2 -2 0 0 0 0];


internalField   nonuniform List<scalar> 
12556
(
36.90869417
36.90874192
36.90880144
36.90885651
36.95438171
36.95469677
36.95528567
36.95677931
36.95991582
36.96585844
36.97549185
36.9873481
36.99941313
37.0031809
37.00026273
36.98865869
36.97758747
36.96788682
36.9615784
36.95756603
36.91104518
36.90953806
36.90881882
36.90842307
36.72743096
36.72761486
36.72778674
36.72808373
36.77358749
36.77528354
36.77907299
36.80737536
36.82219544
36.85003256
36.89517949
36.95385525
37.00504611
37.02258866
37.01415059
36.97413563
36.91731466
36.86887971
36.81496003
36.79244932
36.7368294
36.73138349
36.72886076
36.7277095
36.54733924
36.54779814
36.5482889
36.54899858
36.59514375
36.59969616
36.6091586
36.64723456
36.68432835
36.75228617
36.86503923
36.9825066
37.05551198
37.08438444
37.06639492
37.00313413
36.90145755
36.79384722
36.69197698
36.64187681
36.57039155
36.55883724
36.55323136
36.55100749
36.36861813
36.36904383
36.36976395
36.37153285
36.4188492
36.42878465
36.44928688
36.5074269
36.58628806
36.74097073
36.93846358
37.11579864
37.21885506
37.23919456
37.19406345
37.09681665
36.95215232
36.79013748
36.61471222
36.51780949
36.41669321
36.3939511
36.38296872
36.37870218
36.19192908
36.19247987
36.19386688
36.19748877
36.2473378
36.26542691
36.30535953
36.39442854
36.56303808
36.8287104
37.1408862
37.41494493
37.58870008
37.57899013
37.46254161
37.28942687
37.082348
36.85039168
36.61003339
36.43110536
36.28008924
36.23690553
36.21702257
36.20933592
36.01702322
36.01775375
36.02005793
36.02648371
36.0815702
36.11293449
36.18344777
36.32562758
36.60996618
37.01966849
37.53552938
38.06560156
38.40669736
38.30604537
37.97365139
37.63767401
37.31552637
36.98711116
36.64783566
36.38942607
36.16167919
36.08656802
36.0536723
36.04073456
35.84487311
35.84620233
35.85043942
35.86128851
35.92263723
35.97235945
36.08624477
36.30695559
36.71129913
37.32693594
38.2040151
39.50703717
40.2842539
40.09437587
38.90167436
38.20193502
37.67490912
37.20265667
36.73033269
36.39434529
36.06153522
35.94337216
35.89168867
35.8714004
35.67617032
35.67830032
35.68496148
35.70126419
35.77329368
35.84666337
36.01646499
36.31758347
36.84879957
37.7065244
39.11784063
42.01071772
43.00524728
40.42071013
39.00079207
38.16496046
37.49549485
36.85628897
36.41884489
35.97991507
35.80793902
35.73162306
35.70191329
35.51293486
35.51655323
35.5271292
35.55208187
35.63558765
35.73785022
35.97136502
36.3471708
37.00982135
38.1018658
39.96928755
44.26551846
47.78980278
42.30760521
39.96905331
38.74132164
37.8422698
37.01107354
36.45945002
35.91635756
35.68308533
35.57701986
35.53605926
35.35612999
35.36137884
35.37625224
35.41170815
35.50849225
35.64578677
35.94520149
36.38842626
37.17460021
38.45845141
40.60324253
45.3447555
51.11217605
44.03943333
40.96258991
39.3586592
38.20965034
37.17873896
36.51137497
35.86894631
35.5725523
35.43379616
35.37998449
35.20786226
35.21555172
35.23642454
35.28531584
35.39281722
35.56923244
35.93332678
36.44199814
37.3429925
38.78372003
41.12287816
45.65706449
52.7483578
45.35647201
41.87415834
39.95046461
38.5670988
37.34112528
36.56843886
35.83550683
35.47992843
35.30777844
35.24020417
35.0679631
35.07788879
35.10442599
35.16638314
35.28913851
35.50548697
35.93244857
36.50542247
37.51040203
39.08998633
41.61250292
45.32343889
53.44747009
46.27845538
42.62824986
40.46071058
38.87382521
37.48413259
36.6238404
35.81658213
35.405479
35.20218127
35.12074103
34.93753983
34.95048593
34.98519366
35.06236711
35.19560128
35.45073894
35.93258029
36.57276586
37.67475769
39.3854616
42.13599094
44.75957556
45.26469907
53.25689203
46.89543968
43.18897678
40.87194327
39.11290606
37.59802497
36.6705107
35.80394711
35.34782781
35.11603463
35.02194245
34.81492166
34.83079691
34.87315506
34.96342354
35.11857522
35.42207788
35.96119424
36.66231647
37.86594385
39.72982267
42.72390529
43.25668916
55.30996949
53.22562927
47.24851216
43.61256428
41.14871607
39.26811021
37.68159274
36.70472111
35.78895238
35.30104088
35.04512796
34.94004154
34.69951166
34.71827716
34.76793422
34.87096296
35.04235008
35.3821098
35.96159114
36.70298416
37.95031519
39.91051328
43.08959436
39.22565449
55.44510159
52.69011191
47.38316536
43.82165113
41.3055657
39.34779138
37.72793697
36.72353795
35.76989804
35.25844229
34.98311939
34.86937
34.58851798
34.61011522
34.66654686
34.78209932
34.96989994
35.3408061
35.9573257
36.72127979
37.98351393
39.96079031
43.05276475
35.51956263
53.2296304
51.91829627
47.31813542
43.90202877
41.3268931
39.35775019
37.73795462
36.72328651
35.73746433
35.21130252
34.92326709
34.80282566
34.4813574
34.50559489
34.56790494
34.69483375
34.89797278
35.29503097
35.94303326
36.73048736
37.98683327
39.9263631
42.65970623
35.24759446
50.4256598
51.14028602
47.0334603
43.75864579
41.23833388
39.32304387
37.71885796
36.69629489
35.69136883
35.15837828
34.86042326
34.73498551
34.37458685
34.40127437
34.46881968
34.60641761
34.8241473
35.24265757
35.91530099
36.73045452
37.98984243
39.85240408
42.20717688
35.53784837
47.53808806
50.23000907
46.56274045
43.42537301
41.0352395
39.21839291
37.64692558
36.6326964
35.62387314
35.09021187
34.78951429
34.66077501
34.26899887
34.29785412
34.36972388
34.51636844
34.74668802
35.18256141
35.8737653
36.70952013
37.99274433
39.82047299
41.78439606
34.17280246
45.52782787
49.14274398
45.91802424
43.00988031
40.78355413
39.05882133
37.53611328
36.54057372
35.53884668
35.00950546
34.70866849
34.57864895
34.16080565
34.19161857
34.26740839
34.42257478
34.66469448
35.11454405
35.81940588
36.66981058
37.96919808
39.77151204
41.31497673
30.1413094
44.49551739
48.0487867
45.27454444
42.60357792
40.51283634
38.86856999
37.39831435
36.42583277
35.43721846
34.91516024
34.61618487
34.48585197
34.05296471
34.08544305
34.16439318
34.32633836
34.57783472
35.03902682
35.75379185
36.61474406
37.92344475
39.67560134
40.75661549
26.44887331
43.52860723
47.0566933
44.68122247
42.21644389
40.23807356
38.66279003
37.24204373
36.29385556
35.32272169
34.81035014
34.51464797
34.38469821
33.94063939
33.97464396
34.05673769
34.22556484
34.48636054
34.95680309
35.67875665
36.54755623
37.8603583
39.54003913
40.11971588
23.42049133
42.57991677
46.15027747
44.1293405
41.85033646
39.96691309
38.45034848
37.07383853
36.14922425
35.19635915
34.69410423
34.40220371
34.27304922
33.82965274
33.86493339
33.94955335
34.12344816
34.39071044
34.86888487
35.59616014
36.47107899
37.78326304
39.36851784
39.43301894
21.05305219
41.67191297
45.31629643
43.61289234
41.50327496
39.70298999
38.23640663
36.89851133
35.99568678
35.06284798
34.57169326
34.28403058
34.15592363
33.71268436
33.74922293
33.83673648
34.01672337
34.29165996
34.77639429
35.50779165
36.38771444
37.69430928
39.16104198
38.71565971
19.51361762
40.81610111
44.54334441
43.12709334
41.17244661
39.44743874
38.02395592
36.71946472
35.8362609
34.92129874
34.44007922
34.15639827
34.02941243
33.59957236
33.63715951
33.72694253
33.91087104
34.18982635
34.68044366
35.4153154
36.29942229
37.59435423
38.92047721
37.97726049
18.57600234
40.01171349
43.82449127
42.66786713
40.85565403
39.20013345
37.81463544
36.539023
35.67317283
34.77756259
34.30702724
34.02745064
33.90162295
33.4783462
33.51708952
33.60983832
33.79981929
34.08605164
34.5819846
35.32009773
36.20760297
37.48318221
38.64950306
37.22508983
17.91344568
39.25030065
43.15280511
42.23168194
40.55121691
38.96047321
37.60918121
36.35868628
35.50813414
34.62740814
34.16529392
33.88922043
33.76447505
33.36511076
33.4048035
33.49973656
33.69278232
33.98071941
34.48179004
35.22316748
36.11303604
37.36037618
38.35577098
36.46403362
17.37448952
38.52652011
42.5228542
41.8157245
40.25780878
38.7278201
37.40785225
36.17942348
35.34226382
34.47966091
34.02737802
33.75496301
33.63126177
33.23991777
33.28078472
33.37889841
33.57844538
33.87461188
34.38047549
35.12522037
36.01593508
37.22583216
38.04717269
35.70009971
16.96890631
37.83900618
41.93179667
41.41774002
39.97429129
38.50155826
37.21063324
36.0018042
35.17650517
34.32441265
33.87857161
33.60906157
33.48629252
33.12910896
33.17090121
33.27116884
33.47287354
33.76776355
34.27854113
35.02670326
35.91617747
37.07994139
37.72561992
34.9424731
16.70485641
37.1879954
41.37381063
41.03591796
39.69971545
38.28115784
37.01741158
35.82617567
35.01127459
34.17727678
33.74062835
33.474309
33.35241225
32.99945555
33.04252189
33.14623091
33.3552037
33.66105933
34.17641685
34.92790225
35.8135222
36.92354059
37.39274338
34.19669719
16.5766973
36.57287986
40.84469929
40.668658
39.43321001
38.06611376
36.82799846
35.65273103
34.84721286
34.01772562
33.58541158
33.32150048
33.20039056
32.89426687
32.93826367
33.04412664
33.25430737
33.55412277
34.07445742
34.82900274
35.70777249
36.75770011
37.05104605
33.46180485
16.58261605
35.99196407
40.34069191
40.31458655
39.17401146
37.85597151
36.64219826
35.4815936
34.68428545
33.8757967
33.45235096
33.19115234
33.07074397
32.75837041
32.80380203
32.91335787
33.13163285
33.44821051
33.97300254
34.73014367
35.59880604
36.58358488
36.7029683
32.73674048
16.68729727
35.44311454
39.85969277
39.97259497
38.92150562
37.65034974
36.45982509
35.31284829
34.52320712
33.70971265
33.28871915
33.02965878
32.90993467
32.66307097
32.70942245
32.82115873
33.04004805
33.34234724
33.87234912
34.6313448
35.48658837
36.40207589
36.34993104
32.02155919
16.86919409
34.92471644
39.4000999
39.64180559
38.67517482
37.44889371
36.28062853
35.14661161
34.36353599
33.57968181
33.16692581
32.90997087
32.7907955
32.51743657
32.56542325
32.68107824
32.90797657
33.23877863
33.7729886
34.53277355
35.37113376
36.21421825
35.9930149
31.31720365
17.09820758
34.43606928
38.9607261
39.32159336
38.43464487
37.25135314
36.10453471
34.98332763
34.20677768
33.39991665
32.98940484
32.73465394
32.6161163
32.43717577
32.48607147
32.60387209
32.83284647
33.13602033
33.67576472
34.43518847
35.25251598
36.02059624
35.63335883
30.62556771
17.36191304
33.97720596
38.54110673
39.01151609
38.19963541
37.05753038
35.93138142
34.82441694
34.05297624
33.29392476
32.88788236
32.63442432
32.51626232
32.25278159
32.30390912
32.42684153
32.66479095
33.03954193
33.58273819
34.34147419
35.13128857
35.82252675
35.27511776
29.95370478
17.65300054
33.55054985
38.14433951
38.71341224
37.97082982
36.86770923
35.76126139
34.67438192
33.90820652
33.06204122
32.65945959
32.40856889
32.29115289
44.08299824
48.33607513
43.39783782
45.24521178
52.01334504
48.79589072
45.66703376
53.71989966
52.31901062
45.38296619
54.40227441
53.83380991
44.79896649
41.13825557
44.28668265
54.69422659
54.44289467
43.77447903
51.02373917
41.46363533
54.87360289
55.15269197
54.71687293
41.62374288
40.24352775
42.89279148
40.00595516
52.29135823
45.12230143
47.25774728
42.73487199
40.99290937
40.46003582
44.22889813
43.29712238
56.12944177
58.24045592
50.80684681
44.87628946
43.31664278
41.00061641
44.90832268
44.33926921
45.57723939
47.61190793
48.58899506
54.78698041
54.2895492
52.61578291
46.4355993
45.33302568
41.50355588
45.02485209
44.94862052
45.5704644
43.90628676
45.94088507
56.32145164
55.41079588
42.01607192
44.86213516
45.01960826
45.09223766
38.98799492
41.50403861
39.8345597
57.21047509
56.97768612
42.61393036
44.33821505
44.8229136
44.42776915
32.60541198
35.57434942
42.13241123
53.21211255
51.42218176
48.6121444
50.5991736
44.21215536
48.16845963
58.15917948
52.63238926
46.19685667
51.5733292
56.78376349
48.70695402
49.39724128
44.8564474
50.11891326
48.80332913
50.74172323
50.2651317
54.38415176
55.90247705
50.6005949
57.02978504
56.01007228
56.9884097
57.14180295
50.3516317
46.13539467
47.44523623
45.62600972
47.09234843
45.21740123
48.71826621
47.2080156
55.24120001
54.87579418
53.25318309
56.51819124
56.76324891
55.9549235
56.47464705
53.06417082
41.64327488
43.77945852
45.53027597
42.78962685
40.18436184
45.09132549
42.93308058
56.93151179
56.41986195
35.73761514
38.80475227
45.05987039
41.46231234
36.78309542
33.38439574
40.03480287
37.00331638
42.72909188
57.44888971
57.23851113
39.64123548
39.95983037
32.54236112
44.37755767
47.56410726
31.89692984
79.1213079
33.28871041
31.91427799
46.83369897
39.77940821
43.12372155
41.3071279
43.08214918
47.07987838
43.76237983
64.36557684
48.28608874
44.7384137
49.46830683
49.28352464
50.6324591
53.40633943
47.44302485
46.74637795
59.86019259
48.66206071
47.0431367
50.90888845
57.74773642
57.53944865
49.11123193
47.42216653
43.37674695
56.64719531
46.457045
54.47922147
44.72781112
50.56412357
45.55631893
46.58188074
42.75163046
54.19819779
57.02066982
57.13119577
56.79374957
57.00245945
54.1284998
39.31565868
52.28178256
43.3866244
42.00194619
41.50878898
43.70238575
44.49519831
41.98783791
41.99527508
69.41239064
49.1613401
64.06915273
47.23801126
60.25997954
48.27824968
57.77365182
57.92231389
54.45365865
54.42211896
41.05948872
46.99290254
55.97525136
41.58762959
41.81519205
48.91949761
41.87336214
55.85482445
40.35804364
44.6385481
44.27266422
51.78055591
49.57253505
53.07382554
34.54921927
42.33587691
41.80500642
43.00643001
42.5254551
34.69116746
61.17025983
57.13866157
49.61873778
57.51179071
58.53121992
52.90927502
57.16042046
49.88834942
46.03919644
52.01235887
45.79638162
57.69808148
52.83011927
46.6608077
55.24375922
60.9937213
56.22329327
55.82945142
49.50084012
45.33635834
49.4175682
50.72305849
48.89948162
52.32937996
45.75071212
48.45073347
50.63009816
55.2585461
55.39242154
56.55047696
54.78362703
54.17808146
55.37446327
54.94994055
56.4697691
57.70498745
52.80362921
51.73717484
53.94437301
53.11704822
57.69521941
46.24093597
46.11998782
48.06452219
47.96936864
55.43467135
49.67387403
55.36351656
41.76165644
41.58324393
44.07701043
43.93069751
42.15763319
45.74641819
56.67833348
42.16012349
40.91971494
37.61798405
43.60946529
43.16396483
44.1450708
43.74875906
37.77722318
39.28057322
35.84753301
35.69817428
38.98406535
38.8350729
61.36140924
39.7724766
53.98735229
52.41496426
41.60003636
41.09566501
32.06697788
32.77684161
41.1641889
42.8434578
32.81922017
76.26371771
43.66627232
66.85506025
32.74044319
44.2701672
48.66322695
40.84956914
63.86171861
40.0037292
40.82240717
43.02130558
43.80501848
44.23115681
42.69374402
34.98514067
41.49694144
55.95266213
54.48671158
55.06135384
55.69957028
41.48222846
46.20219128
55.44667636
54.41611684
40.21676412
57.87497976
57.80571831
51.49933983
43.61704934
43.25619621
45.97669254
47.25189212
43.49587155
43.74007706
56.91109462
60.17350979
58.81928528
58.27479101
54.56427505
44.75401365
44.91120797
48.60722387
48.0377494
54.14602779
44.8155148
46.23062203
45.9704399
46.55083785
46.31364749
44.96384817
45.08918642
44.75363008
40.50398434
33.06569461
38.69129721
38.23942039
71.87860592
53.56070696
51.80219067
57.5666357
61.67503807
60.51895773
54.18343443
49.54248329
48.01743928
51.33728771
50.02051539
54.56252484
54.71779288
49.65477058
48.9539873
55.52585078
46.72503145
46.82379791
46.62426511
41.39344729
41.92895103
45.61179254
45.06978076
45.27740862
55.07347309
56.63333892
56.11082457
56.03243329
55.94346085
55.76318636
55.48569249
55.99724539
55.83107044
55.95393449
42.72628372
45.50122635
45.19555771
45.88021982
45.59898842
42.86965544
42.35968915
36.68246269
37.04345491
33.73769217
34.01438292
40.69518813
44.66854573
40.53242913
41.24560255
37.18723112
37.59399442
43.36104557
56.74631107
46.38808881
50.7035153
65.87125187
39.77960544
36.33661259
34.41465902
39.58858571
33.40507103
33.66062233
32.85888245
38.02717526
53.95438182
38.29502873
39.70250626
38.83702478
38.09243737
37.66016297
32.38463126
40.67286301
40.82083284
49.62155783
31.83496242
92.55109746
43.03972594
41.15979589
45.48907623
33.10030709
32.03797401
57.52414035
56.83136287
56.33138103
50.62126034
50.44026436
39.83811469
39.89402673
60.2074026
54.53027894
54.4210114
49.61524916
60.48430016
49.73938724
60.97023445
50.61156768
45.62424184
41.37640736
44.37471528
50.13025015
55.85481431
51.1219914
42.6017757
39.64783122
53.6692921
66.01957786
42.7526236
50.3979502
72.81464663
39.81904754
41.55635001
39.44137195
39.63821798
64.71742359
69.72962637
56.7883503
52.88319393
60.84100149
57.64551968
52.13041867
48.89353423
54.66090635
56.42047142
55.66338796
57.21428177
58.21233694
58.40503329
56.96166575
45.92262392
45.00022821
54.50381251
48.01315019
47.90007726
45.29497847
47.52997447
47.82052215
54.19434802
47.82053287
46.2938446
41.87753716
42.54785816
41.2589649
50.61053722
49.60972556
44.25503779
47.49835668
45.98842174
49.21781182
48.02210495
43.30912734
43.65854921
40.7438925
39.96528698
39.32705622
38.82676129
33.51440584
35.07031661
39.88368619
39.46806199
59.69104865
59.09301232
58.65804735
52.89119401
53.51270312
51.79293108
52.64481523
58.97418472
55.50850067
53.82888867
53.66290285
53.6616175
53.83881271
55.80642203
55.97450313
50.46920479
51.50463164
59.24561445
59.73056793
61.497283
60.87075223
57.26257772
62.67178425
63.65995591
63.63399913
62.64189808
61.82983772
63.96958061
62.46593688
54.48087942
60.4865087
61.59011914
43.85143743
49.61422319
48.68758681
50.48383026
49.86445449
44.4738386
47.40356794
46.7670977
48.36509765
47.62263429
50.27146648
52.8526788
52.28668175
53.52886563
53.03312146
50.76175777
46.83164896
51.30145632
50.69266322
52.09278955
51.50159586
47.22495627
50.6924551
49.79829012
54.84785033
55.53843761
52.30712432
51.09254641
40.86638666
40.34517117
41.77006245
41.04905603
39.51417633
39.00418155
40.18012702
39.66620624
45.75073193
45.15171917
46.56176136
45.9560783
43.95732459
42.24164767
44.93358421
44.33326511
43.87220233
43.46512611
45.5635572
44.25811913
49.80576582
43.72700236
44.80843252
43.35523286
43.43384059
36.19977116
36.53954123
42.21492788
34.2274251
33.99924439
34.55822042
34.3233908
33.87843966
40.91364229
34.14469092
35.84602709
38.49211812
40.25517527
44.52583285
38.08239204
35.59267394
38.90153217
38.12163962
34.95726469
34.66533259
35.41366532
35.06948106
43.50293942
37.7398164
38.22972738
55.81623397
41.20740216
54.65050633
49.30270354
54.29471334
41.01623321
68.5785511
39.54664368
65.91871215
57.44113457
36.20727093
35.0595561
33.09716448
33.33347083
39.44010749
38.28800724
32.86503212
33.04254992
61.03900292
32.32461847
37.45671152
36.72917579
76.67951378
83.17709411
31.77326267
87.33188334
68.83704358
41.46177114
33.03012971
75.66469085
48.39533447
85.78511314
51.18247793
32.17246112
42.53693859
40.44931229
39.12947247
58.83939111
58.34451946
53.87782543
48.0650257
47.64869157
58.85102768
39.96994065
41.58224319
39.78590943
57.14243235
57.18902471
54.57631227
45.94140283
45.20220893
48.8836314
54.85168163
45.80717758
45.97637998
41.4252111
41.78813724
44.27086397
50.85032505
54.78165321
57.68114977
48.06634716
47.17229397
47.07726873
47.22946469
47.19538201
48.20464115
42.79020901
41.22596802
41.86127705
51.41619058
53.15329146
57.12236497
40.41215812
40.01457131
35.19360353
58.51978317
60.24468952
54.07035332
47.03509103
46.88262526
46.91195436
46.72934976
43.54445729
44.21472311
44.54149628
45.54487754
47.55394504
36.61962454
40.95847269
40.54290562
49.86548365
47.15825944
40.68534994
32.36529531
32.41019585
33.54199357
45.03636261
62.45112248
55.25651499
39.38254977
45.55633128
43.32107067
31.87067401
33.22265536
32.30698591
32.33913851
31.94277955
64.99622203
50.3430811
43.2239436
45.14023956
58.90519945
40.08462498
40.17724493
49.03039033
55.8629424
47.48739103
45.84692865
47.99197198
44.9567231
40.81667252
40.16664891
69.54578638
72.5179833
74.21648067
62.01435224
71.09692702
43.15987543
43.45929514
46.52334189
66.14043318
61.11053707
58.42501125
69.23355635
66.20625244
41.21972541
44.74507333
43.58631455
51.98720316
51.36351309
44.39097661
51.81434792
50.95161063
41.27539048
49.31009021
42.2508803
42.56087933
48.15724417
40.78766292
41.66543879
60.84585675
61.64704797
57.83087156
57.91598229
56.69827565
56.53913594
53.51800773
54.61920481
54.21262941
56.35347484
56.12347971
56.69749385
48.88203937
50.12970776
55.41473956
56.8477816
62.76145882
58.84970973
62.87666783
63.24109902
60.31017964
42.08728415
44.44134943
43.88559647
48.34119311
48.09110902
45.08371713
41.64317274
41.38590597
43.4196299
43.04685836
49.35042349
51.70069007
51.35078501
53.83544307
53.4744662
51.785778
46.06564611
48.98994393
48.6947603
50.99853879
50.65492313
48.03243938
42.81510845
43.35751697
46.61180288
45.7361857
42.10067277
42.63814638
46.53475151
47.065988
48.35469198
39.89907391
39.74151135
41.16254805
40.96003991
37.41652355
39.50729543
39.37666386
47.65772567
45.79257895
46.35052084
49.11596017
48.77264
43.00950592
43.49763108
49.40696213
48.67983286
49.08475197
55.14385481
45.42426255
46.72132151
41.47750636
41.09163335
36.97242489
38.20560047
41.94132099
41.59312236
33.72951876
33.7991091
35.96233921
35.56475101
33.54345057
33.63890499
61.52799771
32.13045453
33.28327717
32.49668251
109.8151456
32.11302932
41.33557236
63.51189251
55.94995502
32.01901575
32.05660353
32.88656189
74.36539317
80.50735675
77.71639862
60.43459638
32.64714123
31.94680656
31.98021723
43.16436187
39.8082118
39.4892676
58.68621188
57.79544732
46.88167789
45.19051268
40.42160013
57.13046285
57.82273368
61.27504457
42.69632299
56.80212053
51.07923781
57.14169625
55.89663983
44.20391622
44.84283011
45.60697726
50.51249781
54.1922155
54.60215918
53.5548569
53.86572075
59.77460629
59.00802452
59.32697778
58.33382892
58.66274912
59.26991565
48.42408079
47.49772194
47.80110888
47.06466523
47.27363964
48.38766416
61.1926526
60.09194511
60.11952471
59.64312352
59.91050595
60.85206112
49.2524834
48.68881908
49.02040277
48.07290497
48.39155169
49.04092211
52.81831264
52.96412487
52.05332944
52.23706588
36.78094751
39.20607802
39.06985662
33.83154334
35.70695406
35.59473121
36.05936524
35.8409659
33.92158693
62.78129879
64.40414592
56.32812172
63.88219704
32.81607482
32.76334208
32.94691341
32.89076091
32.42754607
33.85307954
32.46761305
32.61062032
33.49693864
35.31472579
35.21214549
35.50182158
35.40557591
33.57274265
33.08531007
33.00566232
34.00512466
33.25141345
32.89753537
63.78636015
61.4427388
48.20571179
64.3262939
34.74865621
33.77664099
38.97944632
32.44262876
34.25332261
34.10893221
31.83528692
91.28183392
92.35733678
62.93190581
83.90990441
74.14273264
32.20999574
32.26671595
33.16744828
31.98648766
61.99273678
67.88000042
62.25502965
64.70344029
60.16544634
51.53554
66.51349002
61.04580165
51.14765578
50.71001087
60.29181465
47.43000144
52.17258144
55.473183
52.50585733
57.33699752
51.80360374
55.11740259
62.31308594
63.8590861
56.1071778
61.07803791
65.04503845
55.557743
57.07001669
54.68832427
59.35409809
68.98251889
68.83801799
67.14160977
44.57695172
60.28609388
53.77123178
67.58622491
69.15996959
47.4653786
51.11772369
55.75666533
71.4354118
58.79980026
45.38826895
47.56498799
65.25849427
61.58215217
65.68651446
59.63259583
62.54226086
65.28705587
66.7679428
66.1006389
55.83573014
56.1889123
56.53134001
55.35153349
55.58542207
55.51512348
57.88494986
57.6435329
57.9773517
56.93311705
57.26409733
57.43298521
45.60642779
47.71804606
47.69916918
47.87306465
47.96679166
46.16857287
48.4269193
48.09905382
47.53288796
48.19277464
48.61046316
47.15018492
47.12622525
47.0460179
47.60823095
47.39789502
46.64307332
51.69954546
47.66904679
41.46753417
53.28266138
53.22495227
52.88694223
43.33071035
51.68558636
51.17892079
41.90234972
42.01619755
46.29665698
60.32257801
58.40491194
55.44958539
55.0459237
54.10248967
56.365226
55.92871812
55.65060148
64.01712301
63.70732889
58.2718475
64.40884492
66.58962435
60.17121922
63.78876942
63.98544236
61.31597096
60.0182831
59.94455286
60.02914221
60.05028203
61.08846178
63.09256677
63.31518083
62.51213206
65.79933994
65.70411608
65.68609008
65.80995377
62.36652811
64.166862
65.14169714
67.09280559
64.2264591
46.8798125
46.71113638
43.81201863
44.63926523
47.68929467
47.51280919
42.16658698
41.89381816
42.73493094
42.44058804
52.40460856
52.04961728
49.79252134
51.26842218
53.11830648
52.76121757
49.64787712
49.33334183
46.48182886
47.60455984
50.31010605
49.98190636
50.50581275
50.00796126
50.36040491
49.33208496
49.6795443
50.07481701
51.79741633
51.29243429
51.55819645
50.6973483
51.0220365
51.50175131
40.68680573
37.63744899
37.80220123
37.34011284
37.49260307
40.51711358
41.47095328
38.3450444
38.58830016
37.96439556
38.14734566
41.24704933
39.33150626
36.46979151
36.62757552
36.21116874
36.36590506
39.19855063
40.00712465
37.04520036
37.19953579
36.74833053
36.90999642
39.84525305
40.30825278
40.12799536
45.55277785
43.35607421
43.55646184
42.94265125
43.12532928
45.34377212
40.73092034
40.53380612
38.66422507
38.56511571
43.67090335
41.52366655
41.59510805
38.94687451
39.44444421
42.92449184
44.75362062
42.54373947
42.69470436
42.13834361
42.24660452
44.50465407
39.12241386
39.02319116
48.42992698
48.33352487
49.3441317
44.28014162
45.96786271
44.04262053
48.34386282
48.64028422
48.17218513
48.29034057
44.4302541
43.26646282
45.96729907
44.5787149
47.99321649
48.08039576
43.26460719
36.26867305
38.59355759
38.45902518
38.90956069
38.78362586
36.45871145
34.16778733
34.05410795
34.48347592
34.3818791
33.82643078
33.72132821
34.38217378
37.15685401
36.46760362
38.15238622
37.87510341
35.5914509
36.32176935
34.75716824
35.50168887
35.87551743
38.66418394
35.95520927
36.12647852
35.65630042
35.87845301
38.58612135
34.86258677
34.75198519
35.29013325
35.171393
53.70017119
42.86562671
43.88039516
41.17450889
41.93463115
54.45336087
53.16651579
52.56229974
45.22442983
48.5639675
54.79582944
64.45073979
47.8876148
50.78152371
43.02214964
45.40487879
65.75022794
32.60500171
32.54718145
32.70719325
32.66456308
33.08539071
33.39389138
35.32300905
32.34373653
32.30728725
32.48399587
32.42171484
33.18092449
34.92268498
34.80620221
35.11965316
35.01078972
33.2444358
32.92870298
34.50608696
34.29234624
34.72600926
34.59095022
32.97269329
60.10223715
33.99536768
33.72554369
32.18435678
75.15291651
98.00171523
102.8994286
98.0805367
98.57655625
79.787761
31.95156062
78.96492864
58.7155575
62.94657169
32.95504491
32.0905954
32.15433774
75.43309266
83.22774481
81.27826543
67.76340341
73.94682977
88.17665541
83.74741406
55.57513306
79.69422928
70.32334644
32.12093424
31.90949583
32.40203051
36.68575158
36.70660136
36.8172815
36.71577179
36.75506817
36.84114569
36.7711095
36.83635392
36.8816313
36.86257583
36.9434092
36.93759998
36.96659592
37.02281721
36.99208928
37.03449273
37.06013866
37.02078526
37.0625558
37.05530292
37.01943196
37.04809125
37.0087863
36.99044869
36.99092655
36.92276866
36.93187713
36.89906846
36.82583764
36.88027055
36.54009142
36.5849583
36.67287092
36.60556992
36.69512675
36.73211043
36.73437967
36.86496806
36.83511135
36.91001773
37.03573355
36.9564115
37.0687519
37.14646764
37.04112337
37.16358196
37.18865428
37.08279172
37.1865632
37.16571406
37.0747796
37.15192178
37.09165421
37.02298916
37.06568971
36.9694724
36.92794424
36.93289712
36.82054533
36.81678818
36.42008311
36.51464022
36.56113965
36.56156868
36.73284659
36.69625805
36.79740642
37.00541957
36.8882348
37.0748093
37.26392892
37.07839631
37.31972583
37.44813883
37.19933922
37.46770155
37.4781482
37.24154782
37.46042893
37.40522787
37.21064762
37.37670551
37.27160399
37.12551311
37.23033271
37.09112033
36.99253863
37.040966
36.88308228
36.82907371
36.3377677
36.51694909
36.50748688
36.5923112
36.85825953
36.75611434
36.96027528
37.29934964
37.06244844
37.41467644
37.75900961
37.35253256
37.85653065
38.09284716
37.56157408
38.13349939
38.12667022
37.58132875
38.04224167
37.87873284
37.49846269
37.81393235
37.604822
37.33803831
37.53357535
37.31768213
37.13703038
37.24485866
37.02463361
36.91004561
36.3069309
36.57303625
36.52753682
36.68253675
37.08298509
36.90531513
37.24031703
37.7953096
37.40019572
38.00786716
38.74850608
37.93282494
39.02135523
39.92222337
38.3435178
39.94420079
39.70283134
38.31971541
39.34602688
38.7955652
38.05956309
38.61846264
38.16860569
37.72057175
38.03654259
37.68363315
37.39509499
37.57189996
37.24934296
37.07136982
36.31390871
36.66764639
36.59354597
36.81644891
37.37929953
37.14927808
37.6126424
38.49815056
37.95398755
38.88074211
40.9818718
39.10091338
40.22725377
40.83391347
39.80465856
41.48084422
41.51655017
40.27997549
40.90416986
40.21358272
39.73547103
39.98704021
39.02526563
38.35145848
38.78650323
38.19339002
37.79809513
38.02359389
37.56275654
37.31776184
36.33867392
36.77995089
36.69041402
36.9690666
37.69695744
37.45308192
38.00622343
39.22889205
38.68800047
39.3519456
39.92547658
39.63950476
42.39038175
43.0607171
42.57652522
44.84350847
43.4326256
42.09739238
41.83052763
40.12608064
39.27352869
39.74383253
38.84361619
38.35006296
38.5974345
37.94825665
37.65115992
36.37689993
36.90638478
36.81105035
37.1328323
38.00321083
37.77564898
38.37255709
39.82021908
39.39075108
40.14494834
40.88410981
40.67803198
44.43737032
45.59040944
45.39469148
49.27013277
46.55594105
45.41737531
43.63744633
41.28072118
40.39664089
40.76004511
39.54043439
39.00300271
39.21318571
38.36820346
38.04934431
36.42753742
37.04024405
36.93940024
37.30018762
38.2894297
38.07670096
38.70428889
40.30173381
39.94774927
40.74083514
41.56377227
41.40851373
45.43355552
46.73141118
46.70500191
51.88690029
48.787965
48.0787032
45.05626426
42.31069204
41.52861489
41.6834603
40.21645249
39.69841738
39.81355758
38.78243289
38.47051238
36.48725572
37.17727825
37.07511163
37.46744298
38.56038267
38.35910256
39.01375824
40.74153856
40.41208949
41.25181508
42.14737513
41.99802769
45.63589908
46.20966193
46.3694627
53.10189826
50.05455924
49.70215719