/*--------------------------------*- C++ -*----------------------------------*\
| =========                 |                                                 |
| \\      /  F ield         | OpenFOAM: The Open Source CFD Toolbox           |
|  \\    /   O peration     | Version:  v1912                                 |
|   \\  /    A nd           | Website:  www.openfoam.com                      |
|    \\/     M anipulation  |                                                 |
\*---------------------------------------------------------------------------*/
FoamFile
{
    version     2.0;
    format      ascii;
    class       volVectorField;
    location    "1.17";
    object      U;
}
// * * * * * * * * * * * * * * * * * * * * * * * * * * * * * * * * * * * * * //

dimensions      [0 1 -1 0 0 0 0];


internalField   nonuniform List<vector> 
12556
(
(99.99955737 0.00113829963 -3.933754723e-21)
(99.99917409 0.004369221621 -3.401832127e-25)
(99.99830276 0.01080746807 -3.9346828e-21)
(99.99671637 0.02293273814 -3.922646293e-21)
(99.9996449 0.01950605182 3.80683544e-21)
(99.99819746 0.03452827014 0)
(99.99712419 0.05890116383 0)
(99.99666205 0.09381484212 -6.935242421e-21)
(99.99544942 0.1421710619 8.231939803e-22)
(99.9943374 0.2051753544 -5.636845744e-21)
(99.99393647 0.2787857435 5.739188067e-22)
(99.99499078 0.3511771527 0)
(99.99732115 0.4057182431 0)
(99.99998559 0.4269763378 1.862667674e-22)
(100.0030699 0.4095663766 -8.733159632e-22)
(100.0050937 0.3594318369 7.772898524e-22)
(100.0056458 0.2934315027 0)
(100.0055531 0.2262089023 1.478500345e-21)
(100.0054223 0.1649201495 6.114248452e-21)
(100.0029257 0.1185433374 -1.76886809e-21)
(100.0125161 0.1385882137 -1.550235818e-20)
(100.0088246 0.08629743094 0)
(100.0067226 0.04671366756 -1.966471682e-21)
(100.0064918 0.01490654004 -1.3869861e-20)
(99.99596786 0.002600642047 1.573028232e-20)
(99.9921061 0.01064027956 3.936645637e-21)
(99.98389776 0.02760147877 2.755442734e-20)
(99.96986587 0.06105375357 -1.18036157e-20)
(99.96970756 0.09092933612 3.830963503e-21)
(99.94710988 0.1636866175 -3.006043232e-23)
(99.91635651 0.2799985995 0)
(99.89856868 0.3914903792 -6.892209286e-21)
(99.85878353 0.6005918081 -6.515989982e-21)
(99.81887966 0.878322347 -1.175277287e-20)
(99.79224877 1.213468684 -5.081217713e-21)
(99.80346936 1.558254068 -5.498575984e-21)
(99.86305776 1.825873991 3.644874152e-21)
(99.94995186 1.945003008 -6.97232867e-22)
(100.0444182 1.881220412 -3.248328736e-22)
(100.1164574 1.663100803 3.993765924e-21)
(100.1459214 1.358392041 -8.467896799e-21)
(100.1391241 1.049817613 0)
(100.1573227 0.8116878605 -2.63056869e-20)
(100.1159616 0.5645964523 5.111384576e-20)
(100.1173042 0.3980646963 1.501310716e-20)
(100.0847424 0.2469090477 3.120855899e-20)
(100.0652019 0.1339281971 -3.13008621e-20)
(100.0575855 0.04265801894 1.583700552e-20)
(99.99026291 0.001730249404 -1.569523675e-20)
(99.97949453 0.009636691507 -3.147605453e-20)
(99.95670775 0.03119029803 -7.083988916e-20)
(99.91925496 0.07502539628 9.432785657e-20)
(99.89416825 0.1360516419 -7.801608937e-21)
(99.82801576 0.258243759 -7.670742539e-21)
(99.73394294 0.4534247235 -1.335057958e-20)
(99.67339713 0.677912349 0)
(99.54606989 1.065051472 2.687110928e-20)
(99.41504729 1.594321808 2.055423107e-19)
(99.32520317 2.283530545 -6.674750699e-19)
(99.38462596 3.030544009 0)
(99.5978087 3.59638753 5.254937375e-19)
(99.95699292 3.849407476 -1.270805341e-21)
(100.2994395 3.692241666 -1.866217092e-19)
(100.5283141 3.212943671 -2.116047533e-20)
(100.6091738 2.58217977 -9.204947731e-21)
(100.5702479 1.947134564 -2.283814207e-20)
(100.5252251 1.401151608 -1.57752264e-19)
(100.3970855 0.959199102 -3.559962867e-20)
(100.3278221 0.6075082973 -1.550728484e-20)
(100.2387675 0.3757476489 3.530671273e-20)
(100.1842024 0.203375133 -3.98131899e-21)
(100.1600895 0.06435990729 0)
(99.98775425 -0.002970181625 -7.88951566e-21)
(99.96724296 -0.003517229086 5.528813404e-20)
(99.9239683 0.01346475624 -1.581250719e-20)
(99.85311908 0.05547955416 0)
(99.7928444 0.1381542836 0)
(99.66067695 0.291036845 -6.159255009e-20)
(99.47353851 0.5434843489 -1.235266745e-19)
(99.3101721 0.8669076602 2.940264024e-20)
(99.02577096 1.415061971 -5.589563233e-19)
(98.70330878 2.264255764 1.977177994e-19)
(98.47521238 3.4567859 4.19869161e-20)
(98.56058321 4.841161669 2.364864557e-19)
(99.23267827 5.880505504 7.12680596e-20)
(100.1643201 6.169674986 0)
(100.9182799 5.710146396 0)
(101.3187773 4.828634009 -1.099557178e-18)
(101.4122091 3.759458021 -1.642167288e-19)
(101.2891845 2.746680656 0)
(101.1057115 1.880508349 5.838777634e-20)
(100.8267602 1.255487147 -4.565781649e-20)
(100.6259336 0.7415436694 -3.989442849e-20)
(100.4565567 0.4521792586 2.027535621e-20)
(100.35085 0.2424373036 -4.07712673e-21)
(100.3022455 0.07610497071 0)
(99.99734826 -0.01242837254 0)
(99.96551947 -0.03179041411 0)
(99.89913775 -0.03195478835 7.924014112e-21)
(99.7888006 -0.003826111936 1.202505821e-20)
(99.68327921 0.08575981018 1.993620229e-20)
(99.46764567 0.2417707026 0)
(99.16266916 0.5064580529 0)
(98.85376848 0.8971438892 -6.108317188e-20)
(98.31400804 1.611675758 -4.353961148e-19)
(97.64625905 2.842726838 0)
(97.07370487 4.78382328 -1.522327378e-18)
(97.3151148 7.19699682 1.176252197e-18)
(98.87647983 9.081471709 1.331523657e-19)
(101.0249232 9.148562632 9.609351648e-19)
(102.3643538 7.903651473 -2.590594859e-18)
(102.815573 6.303970132 5.564529142e-20)
(102.7165791 4.760054737 7.223288539e-19)
(102.3188386 3.337583729 -7.322562101e-22)
(101.87115 2.158396067 -9.901587845e-20)
(101.3807328 1.403303385 8.275106373e-21)
(100.9767965 0.763482193 0)
(100.7065875 0.4596526026 4.18396721e-21)
(100.5373854 0.2417540347 -3.141617149e-21)
(100.4583729 0.07496944648 -1.042612421e-21)
(100.0292926 -0.02697205178 0)
(99.98591557 -0.0758556735 0)
(99.89671689 -0.1064538145 -1.590811247e-20)
(99.74651993 -0.1093968248 3.225139749e-20)
(99.58356478 -0.02959125196 0)
(99.28295788 0.09750021323 0)
(98.84465385 0.3346614573 2.526626129e-20)
(98.3549734 0.7401401231 -1.250258578e-19)
(97.46871176 1.535233794 0)
(96.16956255 3.069180947 4.68753776e-19)
(94.75773141 5.851756196 9.91765823e-19)
(94.58435947 10.15044284 0)
(98.16011916 14.10767488 2.861442798e-19)
(103.2548908 13.25035414 0)
(105.2458739 9.967204938 -5.801063401e-19)
(105.2553011 7.270404353 -3.34988101e-19)
(104.5793939 5.249645928 6.593510896e-19)
(103.6796806 3.576870178 0)
(102.7603521 2.141775693 2.564209938e-20)
(101.99516 1.350679303 -1.728512172e-20)
(101.3400569 0.6543736711 0)
(100.9520856 0.3851069028 0)
(100.7122942 0.1943743258 -1.063526908e-21)
(100.5999086 0.05906873799 -3.201106303e-21)
(100.0935197 -0.04628013684 3.871497535e-21)
(100.0397168 -0.1346789626 -3.898097591e-21)
(99.93034375 -0.2082009729 7.945238902e-21)
(99.74473674 -0.2580532174 -2.912606262e-20)
(99.52582609 -0.2085325745 8.462222704e-23)
(99.14431017 -0.1425774199 2.476513274e-20)
(98.58388694 0.01887119688 -1.289304184e-19)
(97.89418608 0.3714455342 -2.435349444e-19)
(96.61852088 1.07374013 -9.440528936e-19)
(94.47884348 2.541516575 8.128651927e-19)
(91.4123212 5.384353921 0)
(87.88615043 11.67766628 0)
(94.15626368 23.58087859 0)
(109.1957166 19.17808307 0)
(110.1301653 11.1436832 0)
(108.5782833 7.144497659 2.944386485e-18)
(106.8624004 4.850288306 -2.767163507e-18)
(105.2124116 3.207044448 0)
(103.6721308 1.749097959 0)
(102.5816682 1.033883023 9.666809426e-21)
(101.6570364 0.4110153186 2.824831787e-21)
(101.1496495 0.220081575 -3.334366489e-21)
(100.8425357 0.09869159394 -3.79232671e-21)
(100.6976447 0.02821539768 9.100180509e-21)
(100.1985945 -0.06943558964 -3.871904526e-21)
(100.1366971 -0.2054234517 3.899499053e-21)
(100.0122172 -0.3317592077 -4.940334212e-21)
(99.80018999 -0.4412115638 -3.311411006e-21)
(99.5313328 -0.4408183336 1.409815597e-20)
(99.08814585 -0.4624148453 8.359973625e-21)
(98.43469341 -0.422159682 -4.311288531e-21)
(97.59469152 -0.2100465946 4.780177827e-19)
(96.00663915 0.1949247008 0)
(93.23396542 1.021296229 2.359236588e-21)
(88.82878472 2.24286063 0)
(81.03129039 4.111010783 0)
(123.9977561 22.04063044 1.641624124e-18)
(116.7453119 9.151009132 2.682337743e-18)
(112.1085522 5.15102369 -1.460877081e-19)
(109.0562113 3.303845192 1.288428463e-18)
(106.6229615 2.077402797 0)
(104.4205169 0.9408856859 -5.217409605e-21)
(103.0274375 0.4700140926 2.19343351e-20)
(101.8582059 0.04015020064 -3.469225943e-21)
(101.2543309 -0.02447183886 2.831592421e-21)
(100.8946998 -0.03898410463 -5.532299502e-22)
(100.7226919 -0.01598974177 -8.585691302e-21)
(100.3508658 -0.09502671965 -1.862248935e-21)
(100.2841237 -0.2836794632 -1.398563744e-21)
(100.151405 -0.4688945003 -4.790009876e-22)
(99.92500412 -0.6456247196 1.445874932e-21)
(99.61850528 -0.707512983 -2.653202463e-23)
(99.14071042 -0.8330905487 0)
(98.43913238 -0.9388042293 -2.806665545e-20)
(97.52884807 -0.9191157117 2.009801893e-18)
(95.81017645 -0.9122054102 -6.374968404e-20)
(92.95416478 -0.900849808 3.27835725e-19)
(88.99901542 -1.374020001 0)
(84.47568652 -3.356406761 1.026796009e-18)
(136.5579784 6.587375771 2.382852552e-18)
(121.2960061 2.615876689 1.723740011e-18)
(114.4195631 1.260425542 -3.567734527e-19)
(110.4431948 0.6899469396 -1.240830755e-18)
(107.4954708 0.3258436366 1.027149602e-18)
(104.8153099 -0.1871453764 -5.387025452e-21)
(103.2261026 -0.285976882 1.244477744e-20)
(101.8886739 -0.422510603 1.203482844e-21)
(101.230472 -0.3240873444 0)
(100.8406656 -0.2053972966 4.346108485e-21)
(100.6514423 -0.06964603621 4.288024665e-21)
(100.5536246 -0.1213317201 3.669310982e-21)
(100.4857137 -0.3641108609 5.593923694e-23)
(100.3523552 -0.6097025396 0)
(100.1251261 -0.8561738968 1.882236256e-22)
(99.79607283 -0.9874256097 -1.9305428e-21)
(99.31315264 -1.220501986 2.04458032e-21)
(98.6125047 -1.47501273 -6.840616869e-20)
(97.70615947 -1.654330604 3.091698327e-20)
(96.03152597 -2.013622088 -1.03284856e-18)
(93.42509396 -2.585015403 2.68397611e-19)
(90.29717692 -3.665734259 -1.928259989e-21)
(87.49736546 -5.34790064 8.647538497e-19)
(133.7918114 -9.339679748 2.137507652e-18)
(121.0109662 -5.028664702 3.156971303e-18)
(114.4673363 -3.299686869 -1.021475199e-18)
(110.5067118 -2.324333981 1.23243608e-18)
(107.5497565 -1.697787525 -8.03832408e-19)
(104.7312371 -1.451673062 4.572685191e-20)
(103.1111958 -1.126001026 0)
(101.7170336 -0.9183733194 -1.180124895e-21)
(101.0580227 -0.6443610515 -4.833516732e-21)
(100.6642785 -0.3831831623 5.390110608e-22)
(100.4703339 -0.1271557584 0)
(100.8067443 -0.1466663306 -1.806905276e-21)
(100.7411894 -0.4414054024 1.821311847e-21)
(100.6141542 -0.7442213267 1.775607753e-21)
(100.400027 -1.05847117 -1.655123049e-21)
(100.0618488 -1.259098011 -1.901927673e-21)
(99.60168727 -1.590959677 0)
(98.9439313 -1.980801271 -2.003505615e-21)
(98.09230557 -2.337125623 9.342087587e-19)
(96.55240935 -2.981704187 -1.861812295e-19)
(94.26487724 -3.901858067 4.554540123e-21)
(91.66930594 -5.151276996 7.439337379e-19)
(89.39572478 -6.493316539 0)
(125.0594633 -18.02890416 1.664990546e-18)
(117.2517007 -10.63437145 8.471146656e-20)
(112.5509186 -7.091777117 -3.209748384e-19)
(109.3760973 -5.015183691 -2.198361207e-18)
(106.7925136 -3.592151004 6.31809389e-19)
(104.1634117 -2.633458078 0)
(102.682094 -1.92630215 -2.963370098e-20)
(101.3453602 -1.385746152 -1.463364038e-20)
(100.7356002 -0.948902807 1.100493744e-21)
(100.3637155 -0.5534718371 -3.468918516e-21)
(100.1774387 -0.1824821544 5.087468403e-22)
(101.106737 -0.1694953928 6.642629944e-21)
(101.0467642 -0.5106919573 0)
(100.9315487 -0.8623868532 -1.772142151e-21)
(100.7402041 -1.242847194 0)
(100.4039994 -1.50396446 0)
(99.99192441 -1.916872471 -5.649423555e-21)
(99.40804657 -2.418259125 -2.534949122e-19)
(98.64305519 -2.918004241 -2.746791651e-20)
(97.28668817 -3.76802728 -8.580476744e-19)
(95.3030828 -4.912159121 -3.010126827e-19)
(93.01940698 -6.290204394 -6.815509669e-19)
(90.85206196 -7.603656981 5.098395176e-19)
(115.8634123 -21.07642741 1.039655853e-18)
(112.1988772 -13.4642691 4.894155591e-19)
(109.5239392 -9.45916383 3.057628366e-18)
(107.3843007 -6.90356787 1.90841128e-18)
(105.4100608 -5.013964949 0)
(103.2194743 -3.56178031 2.347797264e-21)
(101.9935839 -2.586851392 -3.572829861e-20)
(100.8054468 -1.77931329 8.674162847e-21)
(100.2812396 -1.206439245 0)
(99.95091012 -0.6999805718 3.998611159e-21)
(99.78225701 -0.2304131588 0)
(101.4476094 -0.1893206677 6.634150995e-21)
(101.3952778 -0.5713292894 1.047324619e-19)
(101.2947792 -0.9645341076 -2.108951654e-19)
(101.1291277 -1.396931649 -4.226909084e-22)
(100.8256989 -1.704417767 -1.6653735e-21)
(100.4657536 -2.179642358 0)
(99.97504013 -2.764185834 -1.140730515e-19)
(99.31032685 -3.367704556 8.140636825e-19)
(98.16562039 -4.353076461 -7.297907953e-19)
(96.49653176 -5.651648467 -2.140471356e-20)
(94.52510972 -7.234982596 5.911470013e-19)
(92.50349185 -8.79569237 0)
(103.5078681 -29.83871664 0)
(107.5134055 -19.45324662 0)
(107.3357529 -13.88225092 -1.417341996e-18)
(106.2673511 -10.34687623 2.337895295e-18)
(105.0737879 -7.838849754 1.451044275e-18)
(103.731848 -5.832702803 8.810338828e-20)
(102.0693404 -4.150678474 -7.062995558e-20)
(101.1334217 -3.045919671 0)
(100.152723 -2.070803457 0)
(99.72698568 -1.397455208 1.241718212e-20)
(99.44823204 -0.8123353671 2.295416211e-21)
(99.30341865 -0.2674839993 -7.418993744e-21)
(101.8210586 -0.2042423801 0)
(101.7777093 -0.6175370799 0)
(101.6950058 -1.041609171 0)
(101.5575886 -1.50639099 0)
(101.2868592 -1.861375196 0)
(100.9823776 -2.3855548 0)
(100.5839281 -3.027477979 -9.991979582e-20)
(100.0369131 -3.690258159 0)
(99.11079686 -4.743042775 0)
(97.78137597 -6.118746814 -1.062034383e-19)
(96.26332242 -7.869006386 0)
(94.76209192 -10.18801044 0)
(96.9259868 -19.39287627 0)
(102.5229798 -15.97131103 0)
(103.5703182 -12.65812946 0)
(103.4313798 -10.07764333 2.317583634e-20)
(102.8885331 -7.966889618 -1.120552446e-18)
(102.0269165 -6.092998336 -6.036506129e-20)
(100.8640583 -4.423395325 -9.641507941e-20)
(100.1946583 -3.299391564 -3.643672455e-20)
(99.43992767 -2.240475064 -2.016994481e-20)
(99.10845764 -1.520140746 1.978337218e-20)
(98.88345955 -0.8869413489 0)
(98.7647627 -0.2921761201 1.981803699e-20)
(102.2184971 -0.2141695797 0)
(102.1850312 -0.6484864361 0)
(102.1224297 -1.093050513 0)
(102.0154253 -1.573320126 0)
(101.7784181 -1.957035649 0)
(101.5407876 -2.505491825 0)
(101.2395121 -3.155200612 -1.162501725e-20)
(100.8251023 -3.831109876 3.27834094e-19)
(100.1554567 -4.840303774 1.294972931e-18)
(99.1747842 -6.14721673 0)
(98.17030964 -7.788846657 -3.430190984e-19)
(97.48961258 -10.00235921 6.960268085e-19)
(98.47257703 -12.69712301 1.252448601e-19)
(100.4995316 -12.32633557 -5.285799653e-20)
(101.2146329 -10.79709684 4.022485768e-21)
(101.3064747 -9.152345632 0)
(101.059507 -7.540753953 4.165404609e-19)
(100.5089224 -5.963146675 -2.506397767e-20)
(99.70971531 -4.441941528 0)
(99.26414045 -3.380418501 0)
(98.70709904 -2.305092203 -3.712552279e-20)
(98.45895033 -1.577635821 1.831733484e-20)
(98.28462742 -0.9242135963 7.700281508e-22)
(98.19108214 -0.30461861 -1.362123497e-20)
(102.6305597 -0.2192361621 0)
(102.606651 -0.6641330097 0)
(102.563525 -1.11876548 0)
(102.4859062 -1.6017322 0)
(102.2818584 -2.0006777 0)
(102.1052187 -2.551367693 0)
(101.8893646 -3.182828015 0)
(101.5926834 -3.831674896 6.115143635e-19)
(101.1379797 -4.724376577 -2.859763277e-19)
(100.4343689 -5.839422585 -4.000163321e-19)
(99.72448472 -7.135195256 1.00038997e-18)
(97.66359358 -8.394481305 0)
(99.33735064 -9.792165838 0)
(99.81161881 -9.760246382 -8.161667979e-21)
(99.93418249 -9.057794199 7.493523254e-21)
(99.85983042 -8.042879269 0)
(99.64162368 -6.843637628 1.460155869e-19)
(99.24522005 -5.584770361 0)
(98.67882569 -4.278651081 -3.044053591e-20)
(98.39380003 -3.326440924 4.694068422e-20)
(97.98815575 -2.285860292 1.147174749e-20)
(97.80818314 -1.580128509 1.962982794e-20)
(97.6769904 -0.9290410943 -2.228475239e-20)
(97.60496045 -0.3062300928 0)
(103.0482361 -0.2199596703 0)
(103.0328103 -0.6660512165 0)
(103.0065294 -1.121248328 0)
(102.9545718 -1.596568237 0)
(102.7807405 -1.999045115 0)
(102.6558668 -2.53470793 0)
(102.5068913 -3.130213552 0)
(102.2912051 -3.733750345 0)
(101.9823784 -4.491498527 0)
(101.4577144 -5.367239805 0)
(100.839779 -6.305359442 8.470000304e-19)
(99.00775178 -7.03169405 -1.458517578e-19)
(99.88289019 -7.891049648 -3.831721793e-20)
(99.61545515 -7.985800294 0)
(99.25367714 -7.627244471 0)
(98.91828618 -6.959676202 -1.919669822e-19)
(98.58096591 -6.067047901 0)
(98.22900694 -5.098014218 0)
(97.79558555 -4.010473888 0)
(97.6095183 -3.182033105 0)
(97.30724507 -2.204330186 3.936913132e-20)
(97.17854583 -1.539471017 -3.681374057e-20)
(97.08061771 -0.9074321879 -2.50176714e-21)
(97.02515027 -0.2995697607 2.510127684e-21)
(103.4634694 -0.2170224089 0)
(103.4551685 -0.6564689207 0)
(103.4424722 -1.104224943 0)
(103.4112712 -1.563441101 0)
(103.2637062 -1.959393253 0)
(103.1787857 -2.468435832 0)
(103.0780679 -3.018073938 0)
(102.907623 -3.571977929 0)
(102.671329 -4.203750276 -1.37167298e-20)
(102.230958 -4.875992964 -1.396335967e-19)
(101.6309069 -5.552143983 2.566169485e-21)
(100.008908 -6.029320746 0)
(100.1001242 -6.606484479 -2.566166306e-19)
(99.58950071 -6.693834997 0)
(98.86050241 -6.471007753 1.672729671e-20)
(98.2662899 -5.989307104 -8.932528913e-21)
(97.79644164 -5.322370533 0)
(97.42664607 -4.579151782 0)
(97.04894977 -3.686328962 0)
(96.91173466 -2.973667923 0)
(96.67670682 -2.078684162 0)
(96.58352811 -1.465413381 0)
(96.50968314 -0.8670098947 0)
(96.46619422 -0.2874315135 0)
(103.8697212 -0.2111357007 0)
(103.8670913 -0.6377018212 0)
(103.8646441 -1.071715075 0)
(103.8489738 -1.508875257 0)
(103.7223717 -1.890645348 0)
(103.665541 -2.366384698 0)
(103.5948597 -2.865979015 0)
(103.4483217 -3.364308895 0)
(103.2248232 -3.901052127 0)
(102.7969979 -4.428056765 0)
(102.178045 -4.922329678 -4.551788884e-21)
(100.1845708 -5.248281992 4.716119288e-20)
(100.2590212 -5.687171914 -2.979937986e-20)
(99.56750324 -5.701691872 8.292276039e-23)
(98.5721349 -5.525779942 0)
(97.78592819 -5.161824123 0)
(97.20567101 -4.660505416 0)
(96.78953793 -4.078203491 0)
(96.4244809 -3.3420223 0)
(96.30212827 -2.734595302 0)
(96.10329335 -1.928916693 0)
(96.03142103 -1.370930847 0)
(95.97253752 -0.8135035772 0)
(95.93794802 -0.2703969684 0)
(104.2619827 -0.2030226809 0)
(104.2635377 -0.6120740893 0)
(104.2680772 -1.0277507 0)
(104.2628684 -1.439304574 0)
(104.1518524 -1.801768054 0)
(104.1123433 -2.241059029 0)
(104.0566892 -2.691395382 0)
(103.9168622 -3.133658271 0)
(103.6823401 -3.588134081 0)
(103.2262387 -4.014159283 0)
(102.5548178 -4.393368406 0)
(99.39400024 -4.51616141 0)
(100.4364103 -4.922911261 0)
(99.50342492 -4.912086389 0)
(98.34023987 -4.760330711 0)
(97.42160523 -4.47588845 0)
(96.747303 -4.084603483 0)
(96.2767104 -3.619007252 0)
(95.90029469 -3.005808535 0)
(95.77243437 -2.487761844 0)
(95.58823313 -1.769246897 0)
(95.5262747 -1.26615916 0)
(95.47509511 -0.7532071338 0)
(95.44574926 -0.250878059 0)
(104.6366821 -0.1933840038 0)
(104.6410052 -0.5818109339 0)
(104.6495223 -0.9761060693 0)
(104.650219 -1.360475944 0)
(104.5499078 -1.700602152 0)
(104.5186751 -2.102897722 0)
(104.4662215 -2.508338355 0)
(104.3211159 -2.896661606 0)
(104.0618748 -3.28189616 0)
(103.5672306 -3.629552356 0)
(102.8434306 -3.9292015 0)
(98.65488831 -3.917114446 0)
(100.5247722 -4.303074412 -6.338539879e-35)
(99.42943946 -4.273675866 0)
(98.14959909 -4.136840974 0)
(97.13285008 -3.903707448 0)
(96.38126758 -3.58775653 0)
(95.85827138 -3.207591072 0)
(95.45670485 -2.691612638 0)
(95.31235134 -2.247207085 0)
(95.12855604 -1.609451338 0)
(95.0681625 -1.158535431 0)
(95.01930705 -0.6905981804 0)
(94.9925678 -0.2304895601 0)
(104.9915271 -0.1828436609 0)
(104.9973689 -0.5488897074 0)
(105.0072741 -0.9200864919 0)
(105.0099918 -1.277116057 0)
(104.916397 -1.593535252 0)
(104.8862242 -1.960266165 0)
(104.8276959 -2.325114475 0)
(104.6700248 -2.664626736 0)
(104.3785851 -2.992538416 0)
(103.8427335 -3.279591192 0)
(103.0673834 -3.521133555 0)
(98.09787724 -3.428279735 0)
(100.5626737 -3.792462302 0)
(99.35001976 -3.746963776 0)
(97.98584276 -3.620811795 0)
(96.89533921 -3.422826357 0)
(96.08110397 -3.160255036 0)
(95.51062525 -2.843390278 0)
(95.07884452 -2.404719075 0)
(94.91183929 -2.021018341 0)
(94.71946536 -1.455996848 0)
(94.655022 -1.053161446 0)
(94.60477981 -0.628810956 0)
(94.57869676 -0.2102881159 0)
(105.3253588 -0.1719183128 0)
(105.3316774 -0.5149479662 0)
(105.3408863 -0.8624513554 0)
(105.3424638 -1.1928958 0)
(105.2524903 -1.485524973 0)
(105.2179186 -1.819154404 0)
(105.1468972 -2.147375193 0)
(104.9719848 -2.444363316 0)
(104.6450311 -2.725200948 0)
(104.0693615 -2.965350213 0)
(103.2383678 -3.162531919 0)
(97.7103165 -3.023972377 0)
(100.5694509 -3.364477147 -8.243295842e-35)
(99.26792474 -3.306521031 0)
(97.84104955 -3.188630826 0)
(96.69415989 -3.016056026 0)
(95.8292482 -2.792625897 0)
(95.21701487 -2.523685908 0)
(94.75418034 -2.146950373 0)
(94.5618436 -1.813387101 0)
(94.35567634 -1.31280139 0)
(94.28367123 -0.9533066092 0)
(94.22964156 -0.5699118147 0)
(94.20285222 -0.1909638322 0)
(105.6379571 -0.1610167611 0)
(105.6439128 -0.4812619704 0)
(105.6508429 -0.8053595957 0)
(105.6488595 -1.110601105 0)
(105.5600161 -1.380199489 0)
(105.5171841 -1.683652528 0)
(105.4293691 -1.978858123 0)
(105.2345217 -2.239729758 0)
(104.8713467 -2.48200279 0)
(104.2591593 -2.685725044 0)
(103.365286 -2.847725656 0)
(97.47022198 -2.68768824 0)
(100.555405 -3.001428857 0)
(99.18496951 -2.934709087 0)
(97.71046716 -2.823591732 0)
(96.51979345 -2.670228788 0)
(95.61378929 -2.476430068 0)
(94.96538852 -2.244597075 0)
(94.47270083 -1.917974334 0)
(94.25454609 -1.625979097 0)
(94.03194335 -1.181922836 0)
(93.95037655 -0.8609018449 0)
(93.89112418 -0.5151679422 0)
(93.86272561 -0.1729430146 0)
(105.9297996 -0.1504521839 0)
(105.934733 -0.4487842845 0)
(105.9382358 -0.7504096951 0)
(105.9309418 -1.032250724 0)
(105.8413013 -1.280120295 0)
(105.7875807 -1.556440728 0)
(105.6804068 -1.821878303 0)
(105.4639881 -2.052709371 0)
(105.0655996 -2.263395502 0)
(104.4205732 -2.438649907 0)
(103.4557499 -2.572116896 0)
(97.35740668 -2.407197846 0)
(100.526677 -2.691247875 2.775143848e-35)
(99.10220451 -2.618895106 0)
(97.59103165 -2.513542482 0)
(96.36595108 -2.375234534 0)
(95.42648347 -2.204508999 0)
(94.74700453 -2.001991167 0)
(94.22655498 -1.716325723 0)
(93.98334426 -1.458944712 0)
(93.74329586 -1.064178075 0)
(93.65121643 -0.7769347385 0)
(93.58599867 -0.4652676257 0)
(93.55543095 -0.1564629429 0)
(106.2018584 -0.140456691 0)
(106.2052663 -0.4182011617 0)
(106.2045413 -0.6987336263 0)
(106.1907351 -0.9592324531 0)
(106.0988539 -1.186973046 0)
(106.0325338 -1.439085367 0)
(105.9048217 -1.678428403 0)
(105.6658884 -1.88387799 0)
(105.2342942 -2.068847282 0)
(104.5595805 -2.221660445 0)
(103.5163895 -2.331656683 0)
(97.352454 -2.174315654 0)
(100.487491 -2.42474313 0)
(99.02031872 -2.349498089 0)
(97.48065346 -2.249289723 0)
(96.22828687 -2.123150343 0)
(95.26142882 -1.970828635 0)
(94.5553289 -1.791872653 0)
(94.00952413 -1.540001265 0)
(93.74267003 -1.311560595 0)
(93.48516989 -0.9595996955 0)
(93.38232057 -0.7017494117 0)
(93.31086877 -0.4204936546 0)
(93.27781824 -0.1416284046 0)
(106.4554643 -0.131194141 0)
(106.4569745 -0.3899843496 0)
(106.4514914 -0.6510956549 0)
(106.4303938 -0.892447023 0)
(106.3351618 -1.101822447 0)
(106.2551883 -1.332550304 0)
(106.1064038 -1.549354476 0)
(105.844943 -1.733250962 0)
(105.3826557 -1.89736464 0)
(104.680608 -2.032413058 0)
(103.5524977 -2.123076511 0)
(97.43410989 -1.980575699 0)
(100.4408475 -2.195257024 0)
(98.93992202 -2.119271526 0)
(97.37789865 -2.023825183 0)
(96.10370921 -1.907765347 0)
(95.11430529 -1.770399138 0)
(94.38540183 -1.610634444 0)
(93.81666925 -1.386865932 0)
(93.52786789 -1.182685008 0)
(93.25343927 -0.8677600645 0)
(93.13999289 -0.6352767474 0)
(93.06233974 -0.3808598421 0)
(93.02666028 -0.1284552713 0)
(106.692209 -0.122773181 0)
(106.6915536 -0.3644370127 0)
(106.6809861 -0.6079760818 0)
(106.6521302 -0.8324192912 0)
(106.552709 -1.025248669 0)
(106.4584975 -1.237278361 0)
(106.2885494 -1.434701664 0)
(106.0051663 -1.600373853 0)
(105.5148971 -1.747643091 0)
(104.7872289 -1.868594739 0)
(103.5686459 -1.943574405 0)
(97.57715862 -1.818396426 0)
(100.3893674 -1.998280093 0)
(98.86142592 -1.922810193 0)
(97.28168471 -1.831735957 0)
(95.98989208 -1.724134862 0)
(94.98181354 -1.599070327 0)
(94.23332852 -1.455078129 0)
(93.64394107 -1.254799404 0)
(93.33495137 -1.070969668 0)
(93.04438615 -0.7879763776 0)
(92.92076094 -0.5771986605 0)
(92.83711359 -0.3462145911 0)
(92.79876624 -0.1169039005 0)
(106.9138054 -0.1152616818 0)
(106.9107981 -0.3417389222 0)
(106.8949691 -0.5696506434 0)
(106.8581133 -0.7794241197 0)
(106.7538618 -0.9575161631 0)
(106.6451576 -1.153376968 0)
(106.4541692 -1.333928023 0)
(106.1498889 -1.484605812 0)
(105.6342918 -1.61821302 0)
(104.8821525 -1.727746048 0)
(103.5689591 -1.789629823 0)
(97.75827751 -1.683344207 0)
(100.3349826 -1.83061061 0)
(98.78490495 -1.756024421 0)
(97.19109774 -1.668819496 0)
(95.88501356 -1.568328326 0)
(94.86136933 -1.453435614 0)
(94.09600065 -1.322454661 0)
(93.48800053 -1.141845019 0)
(93.16051517 -0.9750508508 0)
(92.8546979 -0.7194762729 0)
(92.72143142 -0.527074052 0)
(92.63208492 -0.3163205972 0)
(92.59109613 -0.1069053189 0)
(107.1221292 -0.1086958691 0)
(107.1166357 -0.3219776702 0)
(107.0954647 -0.5362457733 0)
(107.0505246 -0.7335421717 0)
(106.940868 -0.8986737533 0)
(106.8176453 -1.080675277 0)
(106.6060646 -1.246563191 0)
(106.2818413 -1.385092601 0)
(105.7433227 -1.50760271 0)
(104.9671894 -1.607653589 0)
(103.5566202 -1.658194639 0)
(97.96199262 -1.571089937 0)
(100.2786675 -1.689232907 0)
(98.71020527 -1.615561042 0)
(97.10530042 -1.5316968 0)
(95.78756499 -1.437158796 0)
(94.7508569 -1.330674396 0)
(93.97083483 -1.210399434 0)
(93.34603677 -1.046252368 0)
(93.00160125 -0.8936420253 0)
(92.68134686 -0.6614655867 0)
(92.53901771 -0.4844132028 0)
(92.44429329 -0.290901079 0)
(92.40071877 -0.09837548614 0)
(107.3188007 -0.1030992641 0)
(107.3107434 -0.3051950576 0)
(107.2842192 -0.5077923258 0)
(107.2312215 -0.6948304544 0)
(107.1158107 -0.84862397 0)
(106.978197 -1.018856769 0)
(106.746697 -1.172349394 0)
(106.4033398 -1.300978503 0)
(105.8439381 -1.414515209 0)
(105.0437269 -1.506694376 0)
(103.5343284 -1.547635505 0)
(98.17725449 -1.478390282 0)
(100.2210649 -1.571475735 -4.377726816e-36)
(98.63712566 -1.498657489 0)
(97.02354003 -1.417632817 0)
(95.6962727 -1.32804295 0)
(94.64851483 -1.228484329 0)
(93.85560114 -1.117043883 0)
(93.21563872 -0.9665745113 0)
(92.85560429 -0.8255687301 0)
(92.52177958 -0.6132510132 0)
(92.37094872 -0.4487307372 0)
(92.27116465 -0.2696857378 0)
(92.22508665 -0.09123362228 0)
(107.5065092 -0.09846195022 0)
(107.4957667 -0.2913664897 0)
(107.4638488 -0.4842487209 0)
(107.4028244 -0.6630390037 0)
(107.2807019 -0.8072245957 0)
(107.1288369 -0.9675623848 0)
(106.8784578 -1.111559424 0)
(106.5163946 -1.231314357 0)
(105.9377816 -1.337834924 0)
(105.1130668 -1.423592139 0)
(103.5044971 -1.456597521 0)
(98.39486143 -1.40341025 0)
(100.1626413 -1.475142136 0)
(98.56545816 -1.40307814 0)
(96.94514607 -1.324425163 0)
(95.61004664 -1.238891845 0)
(94.55288569 -1.144979529 0)
(93.74867921 -1.041001678 0)
(93.09451354 -0.9017154847 0)
(92.7202019 -0.7698620555 0)
(92.37302282 -0.574040824 0)
(92.21420578 -0.4195786008 0)
(92.1096103 -0.252397039 0)
(92.06105366 -0.08538696474 0)
(107.683952 -0.09484649705 0)
(107.670619 -0.2805943314 0)
(107.6333915 -0.4656314671 0)
(107.5645267 -0.6387601353 0)
(107.4374047 -0.7741905523 0)
(107.2714281 -0.9265762356 0)
(107.0025799 -1.063732176 0)
(106.623011 -1.175528733 0)
(106.0263083 -1.27661909 0)
(105.1764282 -1.357233089 0)
(103.4690676 -1.383763036 0)
(98.60739852 -1.344426724 0)
(100.1038038 -1.398381648 0)
(98.49499945 -1.327011292 0)
(96.86949981 -1.250299518 0)
(95.52790337 -1.168010169 0)
(94.46265127 -1.078557572 0)
(93.64855174 -0.9802725077 0)
(92.98076698 -0.8502796469 0)
(92.59317936 -0.7253697364 0)
(92.23484197 -0.5438145705 0)
(92.06854988 -0.3965800441 0)
(91.95942683 -0.2388960636 0)
(91.90857277 -0.08081604343 0)
(107.8647095 -0.09206480059 0)
(107.8482174 -0.2725682942 0)
(107.8053086 -0.4517423551 0)
(107.7273252 -0.6189471567 0)
(107.5885686 -0.7496001592 0)
(107.4076375 -0.8960367173 0)
(107.1207354 -1.027934837 0)
(106.7246231 -1.133095399 0)
(106.1107312 -1.230082216 0)
(105.2349135 -1.306678193 0)
(103.4296536 -1.328028589 0)
(98.80928324 -1.300537342 0)
(100.0449067 -1.33982564 0)
(98.42556373 -1.269065348 0)
(96.79603727 -1.193881648 0)
(95.44894971 -1.114085726 0)
(94.37656001 -1.028016402 0)
(93.5532207 -0.9338617812 0)
(92.87303603 -0.811198684 0)
(92.4727953 -0.6922752037 0)
(92.09810381 -0.5197597367 0)
(91.92378925 -0.3793030995 0)
(91.8100233 -0.2287466661 0)
(91.75646108 -0.07730294994 0)
(108.0052162 -0.09074205501 0)
(107.9868567 -0.2683137137 0)
(107.9396444 -0.4438622355 0)
(107.856651 -0.6113626443 0)
(107.7324198 -0.7326701673 0)
(107.538695 -0.8752308649 0)
(107.2342538 -1.003784482 0)
(106.8225336 -1.103480616 0)
(106.1921007 -1.197518819 0)
(105.2895563 -1.271112601 0)
(103.3875973 -1.288508781 0)
(98.99698498 -1.271262682 0)
(99.9861335 -1.298495963 0)
(98.35693282 -1.228211619 0)
(96.72421424 -1.154137478 0)
(95.37236168 -1.076130786 0)
(94.29352958 -0.9924800208 0)
(93.46158398 -0.9012332662 0)
(92.76981744 -0.7840254823 0)
(92.35777033 -0.6695090307 0)
(91.98943406 -0.5078574842 0)
(91.81025729 -0.3686454669 0)
(91.69301082 -0.2227898557 0)
(91.63792739 -0.07538224866 0)
(108.2774872 -0.08908825662 0)
(108.2547028 -0.2646131578 0)
(108.198814 -0.4375146011 0)
(108.098614 -0.597981652 0)
(107.8673126 -0.724810337 0)
(107.659719 -0.8646897377 0)
(107.3396627 -0.9912770055 0)
(106.9177677 -1.086404609 0)
(106.271197 -1.178266182 0)
(105.3413275 -1.249718476 0)
(103.3442007 -1.264640038 0)
(99.16848889 -1.256406953 0)
(99.92764674 -1.273750511 0)
(98.28895369 -1.203743867 0)
(96.65356916 -1.130338114 0)
(95.29743079 -1.053436813 0)
(94.2126287 -0.9713044989 0)
(93.37243374 -0.8820387418 0)
(92.67416003 -0.7686226805 0)