/*--------------------------------*- C++ -*----------------------------------*\
| =========                 |                                                 |
| \\      /  F ield         | OpenFOAM: The Open Source CFD Toolbox           |
|  \\    /   O peration     | Version:  v1912                                 |
|   \\  /    A nd           | Website:  www.openfoam.com                      |
|    \\/     M anipulation  |                                                 |
\*---------------------------------------------------------------------------*/
FoamFile
{
    version     2.0;
    format      ascii;
    class       volScalarField;
    location    "1.77";
    object      k;
}
// * * * * * * * * * * * * * * * * * * * * * * * * * * * * * * * * * * * * * //

dimensions      [0 2 -2 0 0 0 0];


internalField   nonuniform List<scalar> 
12556
(
36.90869276
36.90874013
36.90881407
36.90891959
36.95442298
36.95488813
36.95572836
36.95763072
36.96143904
36.96812035
36.97804762
36.98920385
36.99791424
36.9997414
36.9917235
36.9818368
36.97168727
36.96383829
36.9592502
36.95647072
36.91039384
36.90925506
36.9087255
36.9084259
36.72746169
36.72766986
36.72789839
36.72834222
36.77396032
36.77631155
36.78122798
36.81097096
36.82847375
36.85930075
36.90552644
36.9600819
37.00180976
37.00939969
36.98529575
36.93710223
36.88726164
36.84852544
36.8020945
36.78609127
36.73313152
36.72986314
36.72823372
36.72739168
36.54738292
36.54787631
36.54848023
36.54953316
36.59606811
36.60196896
36.61371882
36.65481565
36.69706429
36.76997171
36.87677153
36.97860285
37.04245132
37.05501328
37.0186452
36.93850007
36.833756
36.74601704
36.66245123
36.62631262
36.56307814
36.55479306
36.55097864
36.54945188
36.36869954
36.36923038
36.3702253
36.37260374
36.42073625
36.43297491
36.45756938
36.52117175
36.60886629
36.75806047
36.92798313
37.08020849
37.17078396
37.1818458
37.12090812
37.00409632
36.85411119
36.7016543
36.55625877
36.48583201
36.40008471
36.38521048
36.37775855
36.37484453
36.1919033
36.19262415
36.19442582
36.19910413
36.25044602
36.27211815
36.31906955
36.4174071
36.58961758
36.82232438
37.08845024
37.33474972
37.47890123
37.47709442
37.35373912
37.16148296
36.94355343
36.72596225
36.5018325
36.37189876
36.25071441
36.221334
36.20786293
36.20261593
36.01667801
36.01770406
36.02074071
36.02874346
36.08607003
36.12268637
36.20391105
36.35832044
36.62130266
36.97241492
37.41610571
37.90091671
38.21837098
38.14435864
37.814942
37.46293568
37.12422231
36.81123769
36.50782194
36.29117396
36.11479348
36.06287192
36.0403209
36.03145515
35.84386604
35.84558846
35.85079595
35.86355414
35.92843443
35.98514633
36.11335629
36.34263756
36.70358315
37.22576736
37.98927621
39.19844118
39.9813884
39.79904663
38.67195908
37.96110107
37.41391205
36.96224905
36.54614478
36.24955083
35.99228596
35.91023621
35.87453847
35.86055127
35.67414914
35.67680861
35.68478073
35.70372154
35.77992951
35.86147023
36.04819745
36.3486674
36.82088985
37.55008429
38.78106373
41.44484512
42.51227887
40.07978985
38.67800774
37.81473742
37.17613201
36.62027418
36.23804571
35.88608935
35.76459209
35.71129856
35.69063703
35.50939021
35.51360314
35.52563394
35.55352402
35.641448
35.75274053
36.00269724
36.36794609
36.95649903
37.88205725
39.5000113
43.39461352
46.99161384
41.82950074
39.54903796
38.29565374
37.43709735
36.71997969
36.24740161
35.79552041
35.62811621
35.55338497
35.52461767
35.35059427
35.3565032
35.37292814
35.41115498
35.5122093
35.6577801
35.96970737
36.39605045
37.09104841
38.17293883
40.01509125
44.26508712
50.17894794
43.43270716
40.43296829
38.80536822
37.71938054
36.83488654
36.26886079
35.72143912
35.50447643
35.40521498
35.36700282
35.19963991
35.20792498
35.23008402
35.28098742
35.39264264
35.57456533
35.9445739
36.42939105
37.22057665
38.4286455
40.43123392
44.38537553
51.77199349
44.64017595
41.21821971
39.28610535
37.9954016
36.95114189
36.29572911
35.66224536
35.39586858
35.27115448
35.22254846
35.05628607
35.06667207
35.09403532
35.15699034
35.28256562
35.49993389
35.923725
36.46536319
37.34375274
38.6658059
40.82570726
43.98725832
52.46043544
45.45813409
41.84425817
39.69644938
38.23890503
37.05735221
36.32446055
35.61815488
35.30320452
35.15348421
35.09419698
34.92127416
34.93441808
34.96913027
35.04553964
35.17968391
35.42978865
35.90353513
36.50053922
37.46024921
38.89503181
41.25461629
43.42437062
47.29766841
52.27342956
45.97291576
42.29633966
40.01886875
38.43356833
37.14515051
36.35012273
35.58057097
35.2252339
35.05167367
34.98231091
34.79276675
34.80845144
34.84971836
34.93687493
35.08999391
35.38109087
35.90038267
36.55250563
37.59707132
39.16624546
41.74524353
42.04767108
56.10700494
52.24979552
46.2423586
42.60133012
40.24083916
38.56985365
37.21172187
36.36857675
35.5437144
35.15711141
34.96251252
34.88409315
34.6699864
34.68804725
34.73524233
34.832256
34.99803571
35.31708628
35.86955644
36.56534146
37.66648293
39.33375024
42.04509127
38.26177346
55.75699049
51.75941923
46.26177472
42.73847944
40.36495365
38.64955512
37.24991971
36.37383334
35.50513742
35.0935961
34.88125107
34.79531735
34.55000805
34.57026269
34.62261231
34.72876494
34.9067594
35.24787988
35.82754311
36.55499993
37.6940119
39.41850867
42.06593458
33.97477949
53.7326873
50.92655416
46.11752097
42.75731688
40.39364863
38.67189641
37.25799005
36.35677277
35.45646472
35.02728448
34.80237892
34.710273
34.43232074
34.45448826
34.51090355
34.6246244
34.81319466
35.17095228
35.77143091
36.52159086
37.68363235
39.42034645
41.73642334
31.54099964
51.64820913
50.05754706
45.77581458
42.63207975
40.3430127
38.65120989
37.23201383
36.31428625
35.39741441
34.95723371
34.72181479
34.62471426
34.31354023
34.33733848
34.39700836
34.5172897
34.71532587
35.08479777
35.69920935
36.46761711
37.63561746
39.33888158
41.28250834
30.42489143
49.58202507
49.18018912
45.32913198
42.37034201
40.19412037
38.56418916
37.15863264
36.24268467
35.32106045
34.87528267
34.63512585
34.53429303
34.19476145
34.2198613
34.28177321
34.40674007
34.61188514
34.98901374
35.61139038
36.38986991
37.56500196
39.22117519
40.77951527
28.91115923
47.73113543
48.25902671
44.81156517
42.05053626
39.99480742
38.42882747
37.05373684
36.14826482
35.23056388
34.78361647
34.54082722
34.43789192
34.07234059
34.09846445
34.1621067
34.29109624
34.50247794
34.88411325
35.50976796
36.29207014
37.46522077
39.06764625
40.2345841
26.61746384
46.18192475
47.33674791
44.30144574
41.72574848
39.77233415
38.26466081
36.92590233
36.03519156
35.12633081
34.68092561
34.43709931
34.33281372
33.94966128
33.97650905
34.04108705
34.17221846
34.38722885
34.77108339
35.39656951
36.17849196
37.34329059
38.87514454
39.65112815
24.78283316
44.74002653
46.47542173
43.82237453
41.40855982
39.54135189
38.08468027
36.78170182
35.90758536
35.01147991
34.57001805
34.32634949
34.22129283
33.82195134
33.84932532
33.91473052
34.04808478
34.26680721
34.65119998
35.27413345
36.05282708
37.20491325
38.65410697
39.04963347
23.41954715
43.37342604
45.66453487
43.36799301
41.1039081
39.30983088
37.89704466
36.62653564
35.76916076
34.88654157
34.44960205
34.20651244
34.10101678
33.69551529
33.72319001
33.78880685
33.92250706
34.14199183
34.52583528
35.14458421
35.91817406
37.05425599
38.41189754
38.45160583
22.42003685
42.07056544
44.89376361
42.93305424
40.81200695
39.0820683
37.70672469
36.4646417
35.62307027
34.75575908
34.3245648
34.08249774
33.97678717
33.56288336
33.59076836
33.65684441
33.7919644
34.01383244
34.396337
35.00985474
35.77712136
36.89450384
38.15264221
37.86806008
21.69612379
40.82207975
44.1567895
42.51404431
40.53082233
38.85994709
37.51678649
36.29916643
35.47194407
34.61801351
34.19168153
33.95040131
33.84451431
33.43446518
33.46240418
33.52835482
33.66270316
33.88309994
34.26392234
34.87163393
35.63185611
36.72792392
37.87994239
37.3043873
21.19328611
39.62437325
43.44631987
42.10808254
40.25823496
38.64383416
37.32903306
36.13233564
35.31776627
34.47880023
34.05837348
33.81810495
33.7120936
33.29781681
33.32580739
33.39215322
33.52792298
33.75076607
34.12958237
34.73128887
35.48403031
36.55587248
37.59678671
36.76259401
20.84368001
38.47277692
42.75822746
41.71249334
39.99256628
38.43333366
37.14435796
35.96562925
35.1620925
34.33390564
33.91741478
33.67760009
33.57135848
33.16985274
33.19778269
33.26385732
33.39803564
33.61725844
33.9941202
34.58988001
35.33477565
36.37913911
37.30700959
36.24441825
20.61046419
37.35640897
42.08930643
41.32510147
39.73257338
38.22783851
36.96310669
35.80000585
35.00594224
34.19177282
33.78089684
33.5418455
33.43538242
33.02966214
33.05758466
33.1241168
33.26023456
33.48343849
33.85815434
34.44815382
35.18477965
36.19830894
37.01482717
35.75004388
20.46324965
36.27403508
41.44000959
40.9442657
39.47718515
38.02663319
36.7852413
35.63599254
34.85016659
34.0427929
33.6344098
33.39538114
33.2885344
32.90490285
32.93273357
32.99895055
33.13269459
33.34929853
33.72216899
34.3066467
35.03446823
36.01405471
36.72313932
35.27890497
20.38355441
35.22821163
40.80557595
40.56861883
39.2253674
37.82894735
36.61049854
35.47383697
34.69510118
33.90192523
33.49902112
33.26052499
33.15332842
32.76059423
32.78841283
32.85516475
32.99166525
33.21578675
33.58656155
34.16572899
34.88408668
35.82709395
36.43383229
34.83013012
20.35855068
34.2199869
40.18188524
40.19673173
38.97599218
37.63391681
36.43843303
35.31358529
34.54127346
33.74943726
33.34739389
33.10857559
33.00084628
32.64233953
32.67008314
32.73657453
32.86997247
33.08238912
33.45163949
34.02567295
34.73376921
35.63812153
36.14718616
34.40248728
20.37994138
33.24705573
39.5662481
39.82702029
38.72785801
37.44063051
36.26853512
35.15520302
34.38857922
33.61402331
33.21760539
32.97912758
32.8709555
32.49183882
32.51959432
32.58662948
32.72351154
32.95046027
33.31769802
33.886683
34.58359122
35.44775861
35.86379601
33.99508557
20.43678498
32.30582842
38.95645077
39.45783772
38.47972609
37.24821612
36.10031692
34.9986574
34.23763633
33.45580665
33.05874785
32.81976458
32.71093461
32.38455377
32.41227153
32.47923167
32.61285936
32.8187881
33.18500697
33.7489543
34.43357437
35.25650097
35.58410651
33.60720334
20.50968843
31.39109734
38.35055745
39.08748176
38.23042411
37.05592987
35.93337375
34.84403298
34.0880344
33.33205642
32.94047071
32.70157574
32.59227112
32.22369106
32.25145888
32.31886334
32.4554576
32.68988783
33.05411242
33.61282989
34.28378564
35.06481694
35.3085041
33.23700952
20.58542431
30.50774167
37.748803
38.71507787
37.97920363
36.86338135
35.7676377
34.691816
33.94121101
33.16137761
32.76901837
32.529611
32.41951929
32.13357743
32.16136921
32.228964
32.36463026
32.5620778
32.92609393
33.4794763
34.13430399
34.87314967
35.03710762
32.88218007
20.65178553
29.6646073
37.15339074
38.34060434
37.72592322
36.67056767
35.60316412
34.54347247
33.7972743
33.06081231
32.67092671
32.43126144
32.32071788
31.92841711
31.9563403
32.02455677
32.16266571
32.44206202
32.80386949
33.35312124
33.9856209
34.68252812
34.77156157
32.54392021
20.70380065
28.86706297
36.57110768
37.96808979
37.47221996
36.47833559
35.44037442
34.40329147
33.66199509
32.84113972
32.45090322
32.21039388
32.09876475
43.24073714
47.49164982
42.87307193
44.19547923
51.03053706
47.93758259
44.41281949
52.71595273
51.32930976
44.05142262
53.4013953
52.82992367
43.46350132
42.87323466
46.30891965
53.70462132
53.44136425
42.5142944
53.01709785
43.27294798
55.74252583
54.19219452
53.72865686
41.10139619
39.92857211
42.41157839
39.72349059
50.8590549
44.39562723
46.48623819
42.23340625
40.61364947
39.90004269
43.280762
42.51175907
55.39273862
56.68545823
49.88332203
44.23248379
42.77408371
40.33327573
43.77133137
43.36877709
44.4091896
46.08892456
47.01765717
54.5403729
53.99464439
51.64236703
45.68703811
44.6565258
40.73929591
43.7686615
43.79085816
44.26518148
42.64548205
44.52623685
55.84732792
55.11183672
41.15644624
43.54660963
43.75322001
43.76001504
38.10683871
40.42600902
39.62878188
56.57954064
56.35143069
41.65516943
43.03265351
43.50405513
43.10660252
32.4464023
34.97544379
41.04572887
54.45304672
53.36701666
47.35573127
49.07771802
43.49492677
46.96834958
56.56807667
51.18449774
45.46835266
50.2614144
55.22993993
47.13348079
47.83321959
43.88689062
48.44893437
47.20386187
49.17689635
48.59288077
54.06390644
55.21565654
49.67099971
56.08470571
55.39052684
55.44363799
56.15847191
49.43067977
44.70739572
45.9315857
44.43113162
45.60675793
43.86829938
47.12324387
45.71439823
54.97394781
54.62158687
52.25057772
55.90057363
56.12586885
55.35718018
55.85402133
52.06366907
40.55470528
42.5280453
44.21705883
41.61995754
39.21138667
43.75137487
41.75289955
56.31369618
55.92609748
35.12405658
37.93899099
43.72640188
40.3607835
36.0971124
33.10588728
39.07278473
36.29567277
41.10194013
56.85062391
56.6080369
39.54379663
40.03277894
32.38650728
43.05916853
49.83325491
31.99464642
75.33854372
33.02276488
32.00279824
49.14068768
39.34241668
42.36769902
40.79532551
42.38394947
46.01390518
43.10024408
61.28382497
46.9392598
43.78700069
47.91300986
47.92785546
46.32095067
52.42066086
46.6149189
45.9706592
52.90888122
49.86877566
48.4304753
52.51458983
57.15181896
56.93840083
47.7745061
46.31398414
42.63959191
54.4545074
45.43390521
52.47148086
44.01950492
49.34123424
44.85829484
48.01769902
44.26340135
53.19589391
56.28966718
56.41391453
56.14578934
56.27740921
53.1263425
39.78671639
46.87918541
45.57402214
41.49348956
41.08884768
43.06041148
43.87914462
41.57371424
41.52707048
65.58430532
47.96504129
60.87121819
46.08756438
57.56700696
47.14416511
56.62164819
56.7203615
54.19919845
54.16418682
40.99656691
44.18303962
55.57691683
41.36903176
42.90846331
45.61374703
41.47799907
55.48612986
39.36674999
43.29998362
42.95967153
52.57968135
50.6555337
48.09426686
34.03623412
41.17293321
40.68659746
41.78939774
41.34668483
34.18289394
58.53447706
54.89586149
48.22751851
55.18501774
56.1583383
51.03479983
54.86427202
48.46210375
45.09041163
50.20577462
44.85416363
55.42571427
50.94125475
45.63742487
53.1424368
58.35681052
54.55379804
54.16668864
47.86243217
44.08847866
47.7825936
49.06518234
47.37055024
50.5086273
44.46990834
46.9577561
48.96633893
54.7256798
54.82960087
55.73937418
53.56180877
52.95521327
54.16818291
53.7309672
55.68597823
56.35763949
51.61056978
50.5869195
52.72363465
51.91386558
56.39843913
44.81607228
44.70367092
46.51224042
46.42326162
55.11632279
46.17300735
55.05588101
40.66811209
40.50381093
42.81441822
42.6787635
43.39651995
47.26373913
56.11945298
43.58165217
41.02567709
36.853839
42.34581951
41.93440616
42.84212603
42.47455344
36.99706778
39.5376756
35.24104021
35.11404141
38.10242323
37.96447299
54.14647982
40.89272838
54.42125559
53.1122947
40.50004585
40.04133149
32.041877
33.14663248
41.51898223
41.49187104
32.61272693
67.65851639
41.83166366
59.41241295
32.53529308
46.5518173
44.48286342
40.5964873
59.98098354
39.84175932
40.25637414
41.98973009
42.57698452
42.93909349
41.54977275
33.8271015
41.51619187
56.25730878
53.62601412
54.12531779
53.35295418
40.53185973
43.34944617
55.59649077
54.77064869
41.63829831
57.27644378
57.2061299
53.01627941
43.1255683
42.66354475
45.02701956
46.10051721
42.90656302
43.20614605
55.99479443
58.83763497
57.80291393
56.86875991
54.32482715
45.42207071
45.81271039
48.35577443
47.62996004
53.90237972
43.48617403
44.80772303
44.55654789
45.12046521
44.88835267
43.62282556
43.72160587
43.40747079
39.50149924
32.8186535
37.82618617
37.41076398
67.65157863
50.21545186
53.77867522
55.89812564
59.90866538
59.09891655
52.69546278
48.51289451
47.08858418
50.20643565
48.96142174
53.05503762
54.31209119
49.5431111
48.69565382
54.93082536
45.25632274
45.39568875
45.19339484
40.36756323
40.86230221
44.23305724
46.05645707
46.39468964
54.8074964
56.01446105
54.98727798
54.88611754
55.40602156
54.58080785
54.28470403
54.84378336
54.65565018
55.42185563
41.55456206
44.10971521
43.82151074
44.46990766
44.20224044
41.6869091
41.22169038
36.01834367
36.33656063
33.62109622
33.83866692
39.68403115
43.36093965
39.580984
40.22735376
36.46454967
36.82444933
42.15009381
56.16770434
47.83195598
51.48780101
58.0405627
39.56195556
35.68975408
33.93348047
38.66022009
33.31366088
33.54877841
32.80862184
37.22586111
48.78639613
38.92175054
38.76172931
37.97399039
37.27592478
36.87953494
32.25944871
40.62619383
41.79266065
51.70334726
31.9848605
86.15839007
43.19542409
41.64544723
46.49171354
32.85144206
32.08532724
55.02109447
54.05537572
53.95974652
46.51397938
46.49838313
40.32055663
39.85749092
53.18119401
52.52706432
52.42615615
48.10797322
57.43027997
48.27825992
57.893184
48.97284551
43.03785916
40.612605
46.01675759
45.87286038
49.69496634
46.60470677
40.92682755
40.73675899
48.19496122
58.29827475
40.96062616
45.81596856
64.55719461
39.63638545
40.31588718
39.74487173
39.62066433
57.08929774
66.1370911
54.70249783
51.17441965
58.46823461
55.48189193
50.49674957
47.56366076
52.57450781
55.88442059
55.24789604
56.22444505
56.86300554
57.46554498
56.31386256
46.29485108
45.60144409
54.2641632
46.75200813
47.1089761
45.21169713
46.49431924
47.2442035
53.94986724
47.50718998
46.56256005
41.28133995
41.58859776
41.52079585
51.25714793
50.42483567
42.96679706
48.66592412
47.28396442
50.09060274
49.110141
42.4046987
41.59396978
42.15651471
40.77985441
38.41082237
37.950473
33.15252034
34.51781921
38.92365738
38.54104665
57.20725127
56.66807604
56.237404
51.10940273
51.66609214
50.10920615
50.88520419
56.53410482
53.36496388
51.87667067
51.69439063
51.78899659
51.89491181
53.63606958
53.82822442
48.91790473
49.84792332
56.76553249
57.19848177
59.51927892
59.09638993
55.57736725
60.72830683
61.4888487
61.75209177
60.34630226
59.36829636
61.7023589
60.21662971
52.90336144
58.36766091
59.5689617
42.73319695
47.9508993
47.10343958
48.75018622
48.18041531
43.29425301
45.92646505
45.34246423
46.80837706
46.12752155
48.62858727
50.93287593
50.4089861
51.56591569
51.10075144
49.07836523
45.46912453
49.50194496
48.9419688
50.22997307
49.6859436
45.8317856
50.68685851
49.73099107
54.41099095
54.94269416
52.14079581
51.05070705
39.9100511
39.42565279
40.75104851
40.0800958
38.65559583
38.18425153
39.27266147
38.7961945
44.40810121
43.85589674
45.15389496
44.59723892
42.75392736
41.18464998
43.65434089
43.09996771
44.99315585
44.26720494
46.8791269
45.47467469
46.68383347
44.0396408
44.85937967
44.05731592
43.81610562
35.58200108
35.89248151
41.08777886
34.01976355
33.80477539
34.3183018
34.10831233
33.69682928
39.88584367
33.92431922
35.30176514
37.62910243
39.29372741
43.2287446
37.27872266
35.25034393
38.08755757
37.36371699
34.68464265
34.41637166
35.107235
34.79051398
42.28181017
36.95292591
37.38450883
49.68102144
42.09668964
48.89025982
45.32182524
48.64771315
41.66930426
60.21563441
39.46085663
58.09478328
51.59183273
35.57341756
34.50562567
33.03307455
33.24417362
38.52255028
37.4624949
32.83318914
32.97753276
53.89211581
32.20151905
36.69313399
36.02440819
68.45531927
75.72295538
31.91861477
79.80872064
59.32203067
41.12888898
32.78602909
67.39779801
44.46171394
77.61224964
46.31248152
32.19826893
42.09714461
40.11300299
38.8921989
52.07228224
51.69329878
52.89053607
47.16342168
46.79417331
52.01235718
41.2374588
40.32782411
39.55674037
56.42285588
56.35782402
53.57943044
44.96691948
44.49580338
47.2794228
52.28346135
44.93658108
45.01376059
41.05141836
41.38506661
43.68542447
49.51973323
52.94970143
55.62741294
46.51975222
45.77742985
45.66464202
45.87116545
45.80650074
46.65143797
44.55622047
42.78221607
40.5735285
52.10175031
53.55418716
56.48533676
39.41044187
39.04435709
34.63385625
56.39940276
58.0951507
52.51210294
45.618042
45.45644209
45.43107371
45.26939981
42.3618701
42.982132
43.28260505
44.20441506
46.03641312
35.93262373
39.91312904
39.53072254
45.85134162
43.88363015
39.93854621
32.37070577
32.40281615
33.23463222
42.52949514
55.05478527
49.7369164
39.67278784
47.23669889
45.10231454
31.98123775
32.96345283
32.33202359
32.35388432
32.01750033
61.78575813
46.21614825
41.3638153
42.55674261
52.27245128
40.23020843
40.90742933
50.10866101
53.73670897
46.59482072
45.0671703
46.95812661
46.56289156
40.39880409
40.15782698
61.5604053
63.8109314
65.43035092
55.35155892
62.52550761
42.6496039
42.89801502
45.50468846
62.86621695
58.39412428
55.99132361
65.84979752
63.225232
41.00189452
42.68699239
41.98880684
47.4467716
46.83832644
42.68955179
52.28048227
51.54670641
41.70296985
45.77478291
42.11897771
42.32734542
44.64434784
40.03417605
40.49169678
58.24275497
58.99764843
55.5272225
55.55611567
54.47126075
54.31314995
51.58630655
52.54865229
52.18018081
54.13839374
53.92480212
54.44336021
47.49837489
48.61589664
53.31264104
54.60451631
59.84779053
56.31251931
60.05774491
60.40954831
57.75937265
41.15053806
43.25869241
42.74490303
46.8149782
46.58514324
43.8555814
40.69841415
40.46504138
42.32026587
41.98152572
47.78422534
49.89173906
49.57227977
51.83738074
51.50866632
50.01354912
44.75995554
47.41112768
47.1402317
49.25060619
48.93712137
46.57476147
41.6848858
42.18822827
45.15994259
44.34829959
41.02177835
41.52042676
45.11700534
45.60627463
46.78055732
39.09629714
38.95293448
40.25953051
40.0745236
36.89009124
38.73571281
38.61634227
46.13318315
44.43239633
44.94706134
46.26176574
46.14090385
42.66400065
43.00030987
46.0833027
46.20022943
46.64897729
54.86697862
46.57270821
47.9189095
40.39110088
40.03574631
36.25967043
37.39115382
40.81806257
40.49752951
33.38442268
33.45077704
35.35186847
34.97755088
33.21874294
33.3105193
54.31950328
32.14815685
32.95872018
32.34138505
108.838665
32.37988845
41.18824907
54.48863183
49.00819692
32.11344677
32.14433604
32.65870663
66.36291737
71.74923671
69.44113709
53.10075149
32.4929607
32.07123033
32.09432407
41.34300585
40.79722893
39.90588998
51.96748171
51.38308447
43.72034454
42.57480617
40.05565386
54.67897627
54.16752362
58.53021527
41.17428046
50.41765101
46.54600689
50.66388259
49.82048101
42.05878245
44.07132365
44.77557258
48.72249788
53.9374678
54.28645151
53.39886351
53.67292052
58.54020448
57.69121101
57.93569753
57.1738927
57.42775695
58.14444473
48.09134603
48.31258228
48.53996631
47.95187357
48.08942356
47.9794254
59.5931156
58.47082108
58.45977977
58.17220265
58.36429978
59.35034589
49.12780125
49.31125778
49.56993958
48.79430926
49.04153931
48.88871832
52.71145287
52.89365929
52.03588948
52.22795807
36.10425928
38.31335766
38.18753129
33.70713532
35.10563944
35.01068278
35.40739066
35.21928199
33.7763744
55.48699793
56.71474325
50.53220339
56.30779048
32.75429372
32.71568624
32.85111537
32.80861617
32.52782252
33.47677183
32.44745353
32.57183961
33.3965365
34.76955907
34.68167454
34.93103172
34.84906298
33.46893224
32.97022689
32.90396386
33.60909408
33.12431605
32.93083026
56.06257323
54.33229974
44.7043385
56.60550254
34.27266254
33.48478848
39.56767682
32.29430989
33.79073486
33.6478659
31.95748136
84.31102469
85.94558465
62.40972041
75.314866
64.94678912
32.2651878
32.30244234
32.91139086
32.04727968
58.89403604
64.38105253
59.22352012
60.86430004
57.14985757
49.68329838
63.02784982
57.86701821
46.79432285
46.90581049
53.24971951
44.12122335
47.4046365
53.385264
50.70825114
54.46110668
49.85546776
52.88798239
59.29828047
60.85001716
53.77725287
58.16808383
61.78236065
49.47196811
50.62658227
48.92535251
52.82371352
61.13594232
61.24163053
59.24414128
42.03229597
53.98181828
48.3772823
59.89010623
60.87656796
43.83799614
46.34059691
49.65708361
63.35961882
51.95665825
42.52232128
43.93066397
62.18903146
58.84987582
62.55484788
57.32584636
59.93324452
62.41059571
63.69494898
63.03866848
55.37767194
55.51252844
55.76070556
54.90661645
55.05119905
55.10261217
57.06120356
56.6378454
56.8978669
56.08118607
56.33849205
56.68655784
46.06033582
48.73126373
48.71908306
46.84850736
47.08149677
45.65628212
46.85058971
46.59941155
46.31968772
47.62538888
47.99263599
47.035958
48.0943351
47.91527048
48.6471221
48.42669495
46.76874798
46.83426899
44.42890022
41.09949224
48.10727794
47.98134228
47.76280603
42.04762598
47.02379877
46.60542732
42.10702718
42.05121614
44.07746227
57.77468614
56.04607405
53.30154103
52.93433365
52.11602565
54.14193054
53.7429995
53.48520364
61.06412997
60.72553412
55.88318904
61.28928295
63.45368117
57.6089418
60.87736452
61.04326385
59.39523774
58.15190685
58.04517543
58.29897756
58.29018159
59.25520381
61.10422241
61.24491943
60.13311897
63.02115478
62.9778264
62.82681175
62.97310134
59.95612348
61.82347885
62.49674507
64.29415928
61.82881621
45.47254615
45.31707662
42.67638969
43.44881221
46.21526956
46.05247191
41.17720346
40.92871821
41.6964752
41.42842829
50.53386009
50.2102872
48.19045322
49.54133407
51.18403585
50.85888235
48.01508978
47.72678392
45.1469596
46.18014584
48.6217239
48.32159615
50.43939361
50.40007084
50.67969672
49.84419513
50.11965744
50.04430668
51.72353708
51.43421907
51.62892456
50.96126934
51.21696431
51.44575366
39.74282973
37.02081932
37.16897803
36.75239048
36.89112138
39.58544907
40.47349723
37.6563217
37.87667987
37.31410921
37.47887569
40.26493233
38.48645593
35.96707752
36.1090652
35.7373213
35.87651004
38.36306735
39.11184507
36.4846486
36.6260437
36.21625321
36.3630334
38.96219062
39.47315142
39.30862697
44.22565552
42.22017406
42.40462736
41.83825377
42.00637879
44.03290395
39.86269764
39.68229111
37.98275677
37.85170705
42.49045334
40.53052499
40.59711009
38.20123388
38.66280266
41.80981396
43.48817105
41.46924396
41.60843158
41.09398571
41.19470732
43.25845015
38.38440213
38.28910683
45.65014373
45.76390338
46.23092287
43.46804916
44.32304338
44.27059631
46.34778593
46.43636619
46.49265734
46.52934699
44.5823858
43.86547798
44.81553097
44.18712859
46.0140004
45.90662991
43.76598738
35.65726382
37.75570588
37.62442457
38.04259675
37.92431608
35.82016404
33.96354511
33.86359028
34.25157341
34.16074724
33.67408277
33.66387686
34.09817465
36.44507718
35.77266473
37.35662646
37.09233132
35.01679518
35.77653041
34.79435449
35.17225366
35.45202397
37.87021599
35.51190904
35.66140241
35.26934662
35.44285824
37.79115089
34.59709758
34.49461753
34.99733622
34.88580955
48.22213198
41.38046405
42.02182776
40.62995396
40.9003374
48.6352096
47.74883532
47.48192395
42.88321553
44.89384639
48.97798519
56.95996981
44.31520816
46.41108374
41.14829618
42.61687329
57.82447104
32.59610579
32.54640687
32.67484514
32.64127339
32.84301785
33.10634448
34.77953959
32.37716475
32.32687992
32.49532522
32.4328539
33.10317967
34.4236701
34.33101309
34.59850133
34.5068104
33.16618162
32.87898016
34.04780752
33.91344709
34.24632322
34.15180383
32.92475794
53.28886497
33.56899795
33.28573591
32.12997471
66.64732273
92.45277936
98.04036868
91.70644207
92.84199418
71.87355424
32.12101088
70.02747199
51.21279983
54.87349864
32.72306571
32.16789247
32.22078662
67.53750341
74.88425863
72.97914609
59.05956385
65.61498651
79.89994392
75.16264313
49.39795466
70.92910981
62.18503328
32.34789546
32.00246024
32.28354521
36.69215689
36.71631737
36.8227813
36.72663538
36.76958533
36.84968801
36.78649395
36.85128909
36.89208117
36.87520532
36.94784495
36.94571339
36.9677504
37.01654204
36.99201872
37.02645604
37.03941588
37.01022321
37.03832271
37.01772036
36.99680937
37.00570093
36.95301813
36.9507831
36.93312704
36.86150161
36.89947944
36.84056748
36.78208203
36.85735553
36.55206228
36.60268173
36.68425145
36.62540785
36.71668565
36.74897188
36.75416532
36.86862416
36.84923177
36.90677762
37.0137096
36.9562141
37.04416014
37.11363475
37.0319719
37.12714538
37.14266481
37.05645678
37.13892085
37.10445644
37.0320194
37.08583738
37.01053809
36.9613551
36.98042804
36.87933848
36.86066303
36.84365661
36.73749937
36.76392328
36.44051409
36.54246844
36.58155007
36.58844559
36.74243086
36.71764978
36.79840252
36.97557677
36.88554582
37.03521457
37.20356693
37.04634585
37.2511976
37.36032909
37.15513573
37.37990389
37.39610912
37.18506154
37.37903678
37.31014326
37.14235571
37.2779289
37.15798697
37.03718802
37.1115973
36.96384619
36.89367342
36.91328015
36.7639104
36.7387219
36.36844743
36.54119698
36.5368094
36.60790956
36.83819814
36.75985344
36.9252661
37.21378378
37.02101207
37.31499842
37.62564092
37.27825275
37.71674755
37.94410072
37.4518507
37.96852641
37.97831938
37.48170479
37.90532179
37.73722318
37.39333947
37.66868629
37.44801001
37.21409561
37.3712414
37.14359641
36.99898553
37.0691316
36.85494903
36.77990728
36.34345243
36.58411421
36.54835893
36.67932657
37.02008447
36.87566398
37.15373093
37.63103135
37.29788029
37.81888193
38.5049198
37.7769466
38.75890701
39.61875481
38.15764763
39.64114091
39.4370597
38.15601159
39.10025535
38.58384288
37.90119603
38.40984161
37.95209079
37.55085384
37.81524896
37.44457777
37.20636826
37.33072577
37.0161478
36.88767204
36.34632168
36.66182027
36.60071956
36.79077508
37.26915849
37.07640327
37.46687525
38.23342015
37.76743603
38.57572902
40.50654605
38.81821776
39.83833687
40.45785318
39.48737888
41.08042796
41.13910626
39.98320346
40.57270189
39.90822805
39.45445256
39.6766745
38.72626657
38.11883281
38.48208223
37.87449906
37.54030998
37.70247437
37.25126484
37.06760626
36.36209565
36.75829818
36.68321222
36.92227232
37.54085644
37.3353694
37.80232265
38.85364037
38.39730432
38.9814707
39.50291827
39.25426437
41.77904357
42.42201396
41.99684953
44.20605134
42.92234496
41.67238512
41.38807428
39.72206456
38.95602789
39.33299523
38.41855056
38.00350869
38.17226124
37.54717677
37.31993815
36.38846048
36.86205602
36.78413136
37.05775529
37.79407704
37.60688216
38.10410145
39.33741527
38.98780888
39.64426643
40.30909736
40.13962261
43.53687492
44.59964732
44.44060936
48.40369436
45.86820507
44.79448166
43.06312718
40.76194384
39.97784111
40.23245934
39.00479401
38.56016358
38.68084982
37.87412175
37.62661105
36.42082767
36.96516443
36.88806673
37.18854796
38.02074377
37.8530169
38.36698827
39.72102276
39.43950963
40.1252064
40.85830227
40.73346689
44.32421532
45.41804742
45.43107423
50.93146326
47.9800416
47.30897191
44.37254797
41.67951783
40.99766916
41.04394141
39.56582136
39.14516818
39.17293173
38.19968268
37.95635704
36.45590613
37.06493366
36.9907361
37.31317788
38.22969692
38.07444314
38.60741605
40.0719792
39.80856604
40.53527748
41.32945602
41.20842715
44.35072608
44.81306762
44.97813556
52.11931139
49.1725071
48.84196085
45.27472245