/*--------------------------------*- C++ -*----------------------------------*\
| =========                 |                                                 |
| \\      /  F ield         | OpenFOAM: The Open Source CFD Toolbox           |
|  \\    /   O peration     | Version:  v1912                                 |
|   \\  /    A nd           | Website:  www.openfoam.com                      |
|    \\/     M anipulation  |                                                 |
\*---------------------------------------------------------------------------*/
FoamFile
{
    version     2.0;
    format      ascii;
    class       surfaceScalarField;
    location    "1.77";
    object      meshPhi;
}
// * * * * * * * * * * * * * * * * * * * * * * * * * * * * * * * * * * * * * //

dimensions      [0 3 -1 0 0 0 0];
oriented        oriented;


internalField   nonuniform List<scalar> 
25162
(
0
0
0
0
0
0
0
0
0
0
0
0
0
0
0
0
0
0
0
0
0
0
0
0
0
0
0
0
0
0
0
0
0
0
0
0
0
0
0
0
0
0
0
0
0
0
0
0
0
0
0
0
0
0
0
0
0
0
0
0
0
0
0
0
0
0
0
0
0
0
0
0
0
0
0
0
0
0
0
0
0
0
0
0
0
0
0
0
0
0
0
0
0
0
0
0
0
0
0
0
0
0
0
0
-3.356044952e-09
-1.205626762e-07
1.350070671e-06
0
4.861710705e-09
-1.147700922e-06
0
0
0
0
0
0
0
0
0
0
0
0
0
0
0
0
0
0
0
0
0
0
0
0
0
0
0
0
0
0
0
0
0
0
0
0
0
0
0
0
0
0
0
0
0
0
0
0
0
0
0
0
0
0
0
0
0
0
0
0
0
0
0
0
0
0
1.542968504e-08
2.008864698e-06
-1.413125659e-06
-1.273940399e-05
5.49673623e-06
0.000113222262
-1.273010972e-05
-0.0001601685087
7.022752199e-06
0.0002961852288
-1.195772333e-05
-0.0003311484714
-1.158969792e-06
0.0003806500912
2.439732062e-06
-0.0003758353297
-7.103548621e-06
0.0003002670963
1.298770958e-05
-0.000258634879
-3.345035185e-06
0.0001157589927
9.055442767e-06
-7.233958298e-05
0
2.164842704e-06
2.130222373e-07
0
0
0
0
0
0
0
0
0
0
0
0
0
0
0
0
0
0
0
0
0
0
0
0
0
0
0
0
0
0
0
0
0
0
0
0
0
0
0
0
0
0
0
0
0
0
0
0
0
0
0
7.491945605e-07
4.345069676e-06
-3.844676726e-06
-3.115173928e-05
2.738358883e-05
0.0002738874391
-4.273530966e-05
-0.0003919840679
4.89283131e-05
0.0007833333143
-6.410903027e-05
-0.0009098127801
2.972109139e-05
0.001223029551
-3.531165862e-05
-0.001296199518
-1.146763722e-05
0.0013989247
1.648067194e-05
-0.001391708597
-4.05538057e-05
0.001245747525
5.261059062e-05
-0.001158408472
-3.975489343e-05
0.0008084527937
5.346316474e-05
-0.000673875454
-1.574166593e-05
0.0002835151782
2.584073836e-05
-0.0001768079622
0
4.424785799e-06
6.371217808e-07
0
0
0
0
0
0
0
0
0
0
0
0
0
0
0
0
0
0
0
0
0
0
0
0
0
0
0
0
0
0
0
0
0
0
0
0
0
0
0
0
0
0
0
0
0
-2.503535417e-07
-1.661566038e-06
3.192992381e-05
0.0002038169895
-4.800882373e-05
-0.000349610665
0.0001013031655
0.0009282887546
-0.0001226544811
-0.001143699303
0.0001101413163
0.001759695989
-0.0001237636749
-0.001936487367
4.75371027e-05
0.002334833023
-4.977381267e-05
-0.002419778238
-3.552412186e-05
0.002534567678
4.198805888e-05
-0.002527956742
-9.357793147e-05
0.00236979147
0.0001074012045
-0.002267978824
-0.0001004009205
0.001812928788
0.0001169468077
-0.00161762389
-8.183650594e-05
0.0009957735661
0.000101591912
-0.0007877460368
-1.609920902e-05
0.0002388474317
2.461400384e-05
-0.0001191340836
0
0
0
0
0
0
0
0
0
0
0
0
0
0
0
0
0
0
0
0
0
0
0
0
0
0
0
0
0
0
0
0
0
0
0
0
0
0
0
0
0
0
7.680504666e-06
2.390238849e-05
-1.261747744e-05
-0.0001033569948
9.943968345e-05
0.0006283911472
-0.000116944646
-0.0008734365272
0.0002053716964
0.001717267127
-0.0002102047004
-0.002001808822
0.0001607030952
0.002667703598
-0.0001892564225
-0.00280922857
5.323771619e-05
0.003091063183
-5.826345789e-05
-0.003127417384
-5.552395972e-05
0.003161199532
5.674760771e-05
-0.003159668607
-0.0001510573287
0.003112147709
0.000160968956
-0.003055714463
-0.0002336994407
0.002758686408
0.0002417841965
-0.002555387011
-0.0001225900723
0.001777121173
0.0001358929707
-0.001498546616
-5.36214099e-05
0.0006860300327
6.35943587e-05
-0.0004584326369
3.161224587e-05
-1.748064364e-06
3.03945219e-06
-4.833227992e-07
0
0
0
0
0
0
0
0
0
0
0
0
0
0
0
0
0
0
0
0
0
0
0
0
0
0
0
0
0
0
0
0
0
0
0
-2.209316914e-07
-1.780236817e-08
-6.768584261e-07
2.911934925e-05
0.0001207969833
-3.53040042e-05
-0.0002721728844
0.0001653742129
0.001006138209
-0.0001733111192
-0.001327216675
0.0002338219152
0.002273920044
-0.0002430999119
-0.002551540397
0.0001985397311
0.003164717146
-0.0001727693117
-0.003288681779
0.0001068216999
0.003399154217
-0.000127540806
-5.588430663e-05
-0.00163784826
-0.001684702544
0.001628253162
-2.411119977e-05
2.410909311e-05
-0.001628251055
0.001675006195
-0.0002415552407
-0.003369199432
0.001707156861
0.0001006079914
0.0001279836255
0.003178269619
-0.0002152573257
0.0002273915104
-0.003049530143
-0.0001786991349
0.002383636707
0.0001890077638
-0.002085107614
-8.859212096e-05
0.001112883384
9.53979041e-05
-0.0008188515899
0.0001648138969
-1.284022289e-05
1.64672376e-05
-5.242718869e-05
0
0
0
0
0
0
0
0
0
0
0
0
0
0
0
0
0
0
0
0
0
0
0
0
0
0
0
0
0
0
0
0
0
9.215459521e-07
0
-1.954926811e-06
-6.236225851e-06
-9.542431596e-06
4.81292144e-05
0.0002033103442
-4.968198455e-05
-0.0003978179437
0.0001980704009
0.001261261678
-0.0002009856339
-0.001602336431
0.0002542776408
0.002590828563
-0.000253195017
-0.002865612758
0.0001547808551
0.003372042232
-0.0001496829447
-0.003409653616
3.311259209e-05
0.001725742402
-3.589580866e-05
-0.001722959186
0.001709062916
-8.478156783e-05
8.223111045e-05
-0.001706512458
0.003379089171
-0.0002434679844
0.0002473542258
-0.003307919821
-0.000199600435
0.002718345285
0.0002028929818
-0.002423796812
-0.0001118159245
0.001410886048
0.0001158800962
-0.001078318347
0.000292717927
-2.46752896e-05
2.817327326e-05
-0.0001284230996
0
0
0
0
0
0
0
0
0
0
0
0
0
0
0
0
0
0
0
0
0
0
0
0
0
0
0
0
0
0
0
0
0
2.51967378e-06
0
-3.175258139e-06
-1.716682879e-05
-1.937244389e-05
5.756283438e-05
0.0002561464897
-5.925329757e-05
-0.0004719787369
0.0002115741236
0.001389957757
-0.0002136753206
-0.001743325648
0.0002551489723
0.002742491784
-0.0002555693065
-0.003008716096
0.0001444244787
0.003454022135
-0.0001439462283
-0.00346884563
2.622388939e-05
0.001732986845
-2.621922073e-05
-0.001732991514
0.001743156631
-7.701917625e-05
7.612839592e-05
-0.00174226585
0.003482918755
-0.0002458850223
0.0002452120424
-0.003439616753
-0.0002132148817
0.002909035433
0.0002151105873
-0.002621796257
-0.0001230150298
0.001592997488
0.0001249571305
-0.001242355019
0.0003699212124
-3.250311859e-05
3.38951196e-05
-0.0001799156566
0
0
0
0
0
0
0
0
0
0
0
0
0
0
0
0
0
0
0
0
0
0
0
0
0
0
0
0
0
0
0
0
0
3.821783558e-06
0
-4.709179846e-06
-2.62049418e-05
-2.922637098e-05
6.34487531e-05
0.0002925569565
-6.514593888e-05
-0.0005225155819
0.0002189989552
0.001477861038
-0.000221082106
-0.001840197083
0.0002568482417
0.002850558459
-0.0002573275905
-0.003114679762
0.0001431330037
0.003537184138
-0.0001430479857
-0.003545437073
2.600105249e-05
0.00176911729
-2.656824838e-05
-0.000883236109
-0.0008853139854
0.001779812807
-7.363318804e-05
7.302600127e-05
-0.00177920562
0.003555465231
-0.0002418930921
0.0002404661289
-0.003508009844
-0.000212352439
0.002957818666
0.0002109130445
-0.002663155674
-0.0001231119276
0.001612088894
0.0001223377168
-0.001255957018
0.0003718734209
-3.286326893e-05
3.241895654e-05
-0.0001798698482
0
0
0
0
0
0
0
0
0
0
0
0
0
0
0
0
0
0
0
0
0
0
0
0
0
0
0
0
0
0
0
0
0
5.671360818e-06
0
-6.776019256e-06
-3.93844343e-05
-4.323417662e-05
7.044670658e-05
0.0003375205614
-7.23102706e-05
-0.0005836283516
0.0002273575293
0.001580656701
-0.000229514642
-0.001952677651
0.0002586936268
0.002973938392
-0.000259133324
-0.00323497903
0.0001423361019
0.003630010358
-0.0001421673082
-0.00363328444
2.624701144e-05
0.001813655917
-2.64018572e-05
-0.0009059964868
-0.0009075045847
0.00182036431
-7.134018409e-05
7.077431553e-05
-0.001819798442
0.003626363613
-0.0002325989675
0.0002295802545
-0.003543596494
-0.0001999926338
0.002892871501
0.0001979988554
-0.002587490666
-0.0001127324131
0.001505050091
0.0001099451561
-0.001149763673
0.0003004960355
-2.604851606e-05
2.459424458e-05
-0.000129054557
0
0
0
0
0
0
0
0
0
0
0
0
0
0
0
0
0
0
0
0
0
0
0
0
0
0
0
0
0
0
0
0
0
8.12203858e-06
0
-8.624729019e-06
-5.733666808e-05
-5.931999429e-05
7.838618629e-05
0.0003902403808
-8.075711235e-05
-0.0006534597872
0.0002362916175
0.001692458063
-0.000238866824
-0.002073401352
0.0002604302568
0.003101038862
-0.000260875762
-0.003357064105
0.0001417267019
0.003718131541
-0.0001419280136
-0.003718219854
2.672552825e-05
0.0018563601
-2.670938902e-05
-0.0009271733013
-0.0009292029385
0.001857149531
-6.887010256e-05
6.87814432e-05
-0.001857060871
0.003647850232
-0.0002197374581
0.0002153866955
-0.00350999152
-0.0001824948743
0.002743159979
0.0001739047083
-0.00240654465
-9.66072507e-05
0.001299744729
8.970045796e-05
-0.000955621679
0.0001987670742
-1.678916129e-05
1.442176669e-05
-6.475112577e-05
0
0
0
0
0
0
0
0
0
0
0
0
0
0
0
0
0
0
0
0
0
0
0
0
0
0
0
0
0
0
0
0
0
1.217286295e-05
0
-1.657630485e-05
-8.912476791e-05
-0.0001017913386
8.77777533e-05
0.0004643637937
-9.393901109e-05
-0.0007445293422
0.0002474335202
0.001830215385
-0.0002502513662
-0.002217582045
0.0002620811004
0.003239416697
-0.0002643288127
-0.003490078242
0.0001416651419
0.003803809922
-0.0001428358134
-0.001898720183
-0.001903919068
1.414036719e-05
0.0009477183053
-1.440314512e-05
-0.0009474555274
-1.804895454e-06
0.0004725511504
1.036744121e-06
-0.0009447924308
0.0004730094317
0.001891553532
-6.828088861e-05
0.0001437275571
-0.003789469288
0.001896317492
-7.38484052e-05
-0.0002050380469
0.003594501404
0.0001951255673
-0.003389100875
-0.0001539534578
0.002501126281
0.0001479547989
-0.002136580928
-7.409848783e-05
0.001035523426
6.993763355e-05
-0.0007163502678
8.128681964e-05
-6.018357286e-06
4.749157266e-06
-8.011487126e-06
0
0
0
0
0
0
0
0
0
0
0
0
0
0
0
0
0
0
0
0
0
0
0
0
0
0
0
0
0
0
0
0
0
1.795481012e-05
0
-1.475938505e-05
-0.0001201852269
-0.0001101953779
0.0001032205579
0.0005409823031
-0.0001000413767
-0.0008452138049
0.0002595458075
0.001974962155
-0.0002555413269
-0.002370767435
0.0002604896628
0.003387296849
-0.000259643699
-0.003622020793
0.0001384870143
0.003890606511
-0.0001384870143
-0.001943073277
-0.001947533234
1.25820088e-05
0.001943073277
-2.364418515e-05
1.106217634e-05
-0.0009704146167
-0.0009726586599
-2.499266808e-05
0.0009704146351
2.499264054e-05
-0.001943073277
0.0009726586691
0.003890606511
-0.000153035238
0.000151863167
-0.003880659901
-0.0001777035381
0.003436720559
0.0001739403916
-0.003178286356
-0.0001298543115
0.002146845226
0.0001218950012
-0.001777488898
-5.265993053e-05
0.0007227255183
4.769129241e-05
-0.0004606816007
1.114173524e-05
-9.446709109e-07
4.30350596e-07
0
0
0
0
0
0
0
0
0
0
0
0
0
0
0
0
0
0
0
0
0
0
0
0
0
0
0
0
0
0
0
0
0
0
9.171001791e-06
0
-3.35350408e-06
-5.542843586e-05
-3.475600158e-05
7.778762779e-05
0.0003880175112
-6.721162822e-05
-0.0006527383891
0.0002252989424
0.001701540805
-0.0002094579718
-0.002087548853
0.0002496657074
0.003143800547
-0.000242353921
-0.003419219628
0.0001433896402
0.003911049576
-0.0001466563005
-0.003963265666
2.364418515e-05
0.003977361834
-4.120967425e-05
-0.003977361834
1.756548911e-05
-5.606482558e-05
0.003977361834
5.606482559e-05
-0.003977361834
-0.0001429618888
0.003907468857
0.000137349453
-0.00379979399
-0.0001505898331
0.00314065366
0.0001418828946
-0.002823347174
-9.589320294e-05
0.001719615685
8.905106694e-05
-0.001346440259
-3.000018603e-05
0.0004117581727
2.42637355e-05
-0.0002154771579
0
0
0
0
0
0
0
0
0
0
0
0
0
0
0
0
0
0
0
0
0
0
0
0
0
0
0
0
0
0
0
0
0
0
0
0
0
8.168653559e-08
0
0
-3.071993858e-07
0
3.279688711e-05
0.000132353943
-2.2374251e-05
-0.0002968905159
0.000148640535
0.001090668162
-0.0001256955909
-0.001417976035
0.0002037720584
0.002414149756
-0.0001853413852
-0.002713446394
0.0001443425419
0.003407185857
-0.0001385993815
-0.003561355278
4.321108116e-05
0.003817399656
-4.368004535e-05
-0.00384779578
-5.128871028e-05
0.003810980436
4.675359357e-05
-0.003752394042
-0.0001119710399
0.003387183506
0.0001010872445
-0.003192437412
-0.0001092127967
0.002399774206
9.686532473e-05
-0.002083527067
-6.339164243e-05
0.00110391389
5.372884707e-05
-0.0008045117668
-1.041491262e-05
0.0001469056834
6.293482339e-06
-4.01955744e-05
0
0
0
0
0
0
0
0
0
0
0
0
0
0
0
0
0
0
0
0
0
0
0
0
0
0
0
0
0
0
0
0
0
0
0
0
0
0
0
0
0
0
2.274548065e-06
3.026689021e-07
-3.707949404e-07
-2.272666598e-05
5.914934971e-05
0.0003898419658
-4.045191006e-05
-0.0005927503055
0.0001190705227
0.001316761214
-9.581507911e-05
-0.001565208916
0.0001069567928
0.002221437339
-9.272478136e-05
-0.002392389619
4.111037411e-05
0.002722274957
-3.841650381e-05
-0.00276829273
-2.828125753e-05
0.002713583252
2.195556505e-05
-0.002631739061
-6.531471258e-05
0.002205106108
5.358502703e-05
-0.002008999177
-5.888211727e-05
0.001315377138
4.677773233e-05
-0.001070076386
-2.487903747e-05
0.0004046716677
1.6439769e-05
-0.0002359530743
-9.346637501e-08
1.00473298e-06
0
0
0
0
0
0
0
0
0
0
0
0
0
0
0
0
0
0
0
0
0
0
0
0
0
0
0
0
0
0
0
0
0
0
0
0
0
0
0
0
0
0
0
0
0
0
0
0
4.521858413e-06
1.019504896e-05
-6.957183331e-07
-4.719196719e-05
3.483753834e-05
0.0003258936945
-2.013044996e-05
-0.000452951678
4.697251707e-05
0.0008445387313
-3.305100238e-05
-0.0009594837736
2.483527789e-05
0.001198639832
-1.9207425e-05
-0.001234630243
-7.367237846e-06
0.001197585615
4.441476497e-06
-0.001138429534
-2.343676435e-05
0.0008467798957
1.57772569e-05
-0.0007225901479
-1.606939421e-05
0.0003353779363
8.755077823e-06
-0.0002210914164
-8.573618342e-07
1.26565192e-05
2.418905775e-09
-1.361731684e-07
0
0
0
0
0
0
0
0
0
0
0
0
0
0
0
0
0
0
0
0
0
0
0
0
0
0
0
0
0
0
0
0
0
0
0
0
0
0
0
0
0
0
0
0
0
0
0
0
0
0
0
0
0
0
1.067153063e-07
0
0
-1.692415207e-06
4.389822638e-06
4.619142853e-05
-6.892387898e-07
-7.15178703e-05
4.377710626e-06
0.0001393065199
-1.477792206e-06
-0.000151309365
-4.567190012e-07
0.0001407815238
1.152703395e-07
-0.0001228387412
-1.633241923e-06
4.884169651e-05
1.371524194e-07
-2.691264504e-05
0
0
0
0
0
0
0
0
0
0
0
0
0
0
0
0
0
0
0
0
0
0
0
0
0
0
0
0
0
0
0
0
0
0
0
0
0
0
0
0
0
0
0
0
0
0
0
0
0
0
0
0
0
0
0
0
0
0
0
0
0
0
0
0
0
0
0
0
0
0
0
0
0
0
0
0
0
0
0
0
0
0
0
0
0
0
0
0
0
0
0
0
0
0
0
0
0
0
0
0
0
0
0
0
0
0
0
0
0
0
0
0
0
0
0
0
0
0
0
0
0
0
0
0
0
0
0
0
0
0
0
0
0
0
0
0
0
0
0
0
0
0
0
0
0
0
0
0
0
0
0
0
0
0
0
0
0
0
0
0
0
0
0
0
0
0
0
0
0
0
0
0
0
0
0
0
0
0
0
0
0
0
0
0
0
0
0
0
0
0
0
0
0
0
0
0
0
0
0
0
0
0
0
0
0
0
0
0
0
0
0
0
0
0
0
0
0
0
0
0
0
0
0
0
0
0
0
0
0
0
0
0
0
0
0
0
0
0
0
0
0
0
0
0
0
0
0
0
0
0
0
0
0
0
0
0
0
0
0
0
0
0
0
0
0
0
0
0
0
0
0
0
0
0
0
0
0
0
0
0
0
0
0
0
0
0
0
0
0
0
0
0
0
0
0
0
0
0
0
0
0
0
0
0
0
0
0
0
0
0
0
0
0
0
0
0
0
0
0
0
0
0
0
0
0
0
0
0
0
0
0
0
0
0
0
0
0
0
0
0
0
0
0
0
0
0
0
0
0
0
0
0
0
0
0
0
0
0
0
0
0
0
0
0
0
0
0
0
0
0
0
0
0
0
0
0
0
0
0
0
0
0
0
0
0
0
0
0
0
0
0
0
0
0
0
0
0
0
0
0
0
0
0
0
0
0
0
0
0
0
0
0
0
0
0
0
0
0
0
0
0
0
0
0
0
0
0
0
0
0
0
0
0
0
0
0
0
0
0
0
0
0
0
0
0
0
0
0
0
0
0
0
0
0
0
0
0
0
0
0
0
0
0
0
0
0
0
0
0
0
0
0
0
0
0
0
0
0
0
0
0
0
0
0
0
0
0
0
0
0
0
0
0
0
0
0
0
0
0
0
0
0
0
0
0
0
0
0
0
0
0
0
0
0
0
0
0
0
0
0
0
0
0
0
0
0
0
0
0
0
0
0
0
0
0
0
0
0
0
0
0
0
0
0
0
0
0
0
0
0
0
0
0
0
0
0
0
0
0
0
0
0
0
0
0
0
0
0
0
0
0
0
0
0
0
0
0
0
0
0
0
0
0
0
0
0
0
0
0
0
0
0
0
0
0
0
0
0
0
0
0
0
0
0
0
0
0
0
0
0
0
0
0
0
0
0
0
0
0
0
0
0
0
0
0
0
0
0
0
0
0
0
0
0
0
0
0
0
0
0
0
0
0
0
0
0
0
0
0
0
0
0
0
0
0
0
0
0
0
0
0
0
0
0
0
0
0
0
0
0
0
0
0
0
0
0
0
0
0
0
0
0
0
0
0
0
0
0
0
0
0
0
0
0
0
0
0
0
0
0
0
0
0
0
0
0
0
0
0
0
0
0
0
0
0
0
0
0
0
0
0
0
0
0
0
0
0
0
0
0
0
0
0
0
0
0
0
0
0
0
0
0
0
0
0
0
0
0
0
0
0
0
0
0
0
0
0
0
0
0
0
0
0
0
0
0
0
0
0
0
0
0
0
0
0
0
0
0
0
0
0
0
0
0
0
0
0
0
0
0
0
0
0
0
0
0
0
0
0
0
0
0
0
0
0
0
0
0
0
0
0
0
0
0
0
0
0
0
0
0
0
0
0
0
0
0
0
0
0
0
0
0
0
0
0
0
0
0
0
0
0
0
0
0
0
0
0
0
0
0
0
0
0
0
0
0
0
0
0
0
0
0
0
0
0
0
0
0
0
0
0
0
0
0
0
0
0
0
0
0
0
0
0
0
0
0
0
0
0
0
0
0
0
0
0
0
0
0
0
0
0
0
0
0
0
0
0
0
0
0
0
0
0
0
0
0
0
0
0
0
0
0
0
0
0
0
0
0
0
0
0
0
0
0
0
0
0
0
0
0
0
0
0
0
0
0
0
0
0
0
0
0
0
0
0
0
0
0
0
0
0
0
0
0
0
0
0
0
0
0
0
0
0
0
0
0
0
0
0
0
0
0
0
0
0
0
0
0
0
0
0
0
0
0
0
0
0
0
0
0
0
0
0
0
0
0
0
0
0
0
0
0
0
0
0
0
0
0
0
0
0
0
0
0
0
0
0
0
0
0
0
0
0
0
0
0
0
0
0
0
0
0
0
0
0
0
0
0
0
0
0
0
0
0
0
0
0
0
0
0
0
0
0
0
0
0
0
0
0
0
0
0
0
0
0
0
0
0
0
0
0
0
0
0
0
0
0
0
0
0
0
0
0
0
0
0
0
0
0
0
0
0
0
0
0
0
0
0
0
0
0
0
0
0
0
0
0
0
0
0
0
0
0
0
0
0
0
0
0
0
0
0
0
0
0
0
0
0
0
0
0
0
0
0
0
0
0
0
0
0
0
0
0
0
0
0
0
0
0
0
0
0
0
0
0
0
0
0
0
0
0
0
0
0
0
0
0
0
0
0
0
0
0
0
0
0
0
0
0
0
0
0
0
0
0
0
0
0
0
0
0
0
0
0
0
0
0
0
0
0
0
0
0
0
0
0
0
0
0
0
0
0
0
0
0
0
0
0
0
0
0
0
0
0
0
0
0
0
0
0
0
0
0
0
0
0
0
0
0
0
0
0
0
0
0
0
0
0
0
0
0
0
0
0
0
0
0
0
0
0
0
0
0
0
0
0
0
0
0
0
0
0
0
0
0
0
0
0
0
0
0
0
0
0
0
0
0
0
0
0
0
0
0
0
0
0
0
0
0
0
0
0
0
0
0
0
0
0
0
0
0
0
0
0
0
0
0
0
0
0
0
0
0
0
0
0
0
0
0
0
0
0
0
0
0
0
0
0
0
0
0
0
0
0
0
0
0
0
0
0
0
0
0
0
0
0
0
0
0
0
0
0
0
0
0
0
0
0
0
0
0
0
0
0
0
0
0
0
0
0
0
0
0
0
0
0
0
0
0
0
0
0
0
0
0
0
0
0
0
0
0
0
0
0
0
0
0
0
0
0.001730234708
-0.001730317958
2.630713988e-05
7.325611282e-05
-0.001734994018
-7.421398373e-05
0.0008701460353
0.0008658058532
-8.887968422e-05
0.001716186274
8.175632578e-05
0.00176384594
2.560113843e-05
-0.0008815462377
-0.0008818997885
6.679250426e-05
-0.001776537342
-6.764468771e-05
0.0008892468238
0.0008881427016
7.034997349e-05
0.0008738335029
0.0008722292673
0.001808127412
2.60077663e-05
-0.0009034840312
-0.0009044041361
6.526201819e-05
-0.001813362391
-6.404807223e-05
0.0009064040007
0.0009057444438
6.61873022e-05
0.0008897361541
0.0008906818551
0.00185048504
2.639761648e-05
-0.0009244954062
-0.0009256617217
6.117935927e-05
-0.001851008806
-6.241427519e-05
0.001852243722
0.001821175224
6.44511045e-05
0.0009472600056
-0.0009472621077
1.414246929e-05
-0.0004730427178
5.583034057e-07
-6.669368145e-07
0.0004731513512
0.0004727045901
-0.0009447238548
-2.82834856e-06
6.088730446e-05
-0.001888322923
-6.078434739e-05
0.001888219965
0.001857397964
6.093092657e-05
0.0009699743181
-0.0009699743181
1.258200881e-05
-0.0009699743692
1.021652263e-05
-1.021663664e-05
0.0009699744832
0.0004730271511
8.23026918e-08
-0.001937707085
0.0008898285894
3.470461161e-05
1.820684721e-05
9.571355423e-05
-0.003827036278
0.001933262228
0.00191721909
-5.745143992e-05
-6.170715487e-05
0.001891391767
6.104906943e-05
0.001720079883
-0.001719345693
3.237840226e-05
-1.762490252e-05
0.001628900275
1.697778933e-05
-0.001711744682
-8.614066965e-05
0.001709005668
-9.928265677e-05
0.001662339369
0.0001119494828
1.194660299e-05
-0.0004340134426
-1.220528553e-05
0.0004342721251
-0.0008664534833
-3.599862711e-05
0.0008688155581
3.363655228e-05
-0.001734335763
-7.767743117e-05
0.0002312550765
-0.003455288619
-0.0002358964464
0.003460845044
-0.0002455065559
0.003401692408
0.0002357554252
0.003514602976
-0.003524335235
0.0001432773763
-3.208004823e-05
3.20080699e-05
0.001763917919
3.222595031e-05
0.001732821308
-3.206041345e-05
1.310396696e-05
-0.0004397865564
-1.278557201e-05
0.0004394681614
-1.060767608e-05
-0.0004357101581
0.0004352253403
1.109249386e-05
-0.001776101949
-7.406858081e-05
0.0002259409707
-0.003541490185
-0.000227315726
0.003543063007
0.003485066864
0.0002294206692
0.003607736953
-0.003612087625
0.0001425234412
-3.215230942e-05
3.208070971e-05
0.001808199012
0.001769188255
-3.215101277e-05
-2.637521616e-05
0.001787426352
2.630339925e-05
-0.0008928399633
-0.0008945145721
-3.59395638e-06
-0.000447466116
3.588351242e-06
0.0008945157291
-0.0004470440079
3.424773618e-06
-0.0004407974735
0.0008829149029
-3.752482623e-06
-0.0004417897204
1.084320996e-05
-0.0004498557075
-1.090791523e-05
0.0004499204128
-1.288713418e-05
-0.0004450140651
0.000444364972
1.353622731e-05
-0.001813550975
-7.115159911e-05
0.0002188931144
-0.003607700223
-0.0002216260101
0.00361751372
0.003557544783
0.0002245000718
0.003695542244
-0.003696251279
0.0001415736237
-3.237283223e-05
3.230320477e-05
0.001850554667
0.001813641594
-3.21379857e-05
-2.584959088e-05
0.001829824487
2.620490525e-05
-0.0009145471964
-0.0009156326053
-1.485769164e-06
-0.0004579547586
1.403288332e-06
0.0004580372395
3.915516316e-06
-0.0004527540164
0.000906006893
-3.830038717e-06
-0.0004533383542
1.935699437e-05
-0.0009167592137
-1.965069681e-05
0.0009170529161
-2.088539635e-05
-0.000909752769
1.893652027e-05
0.0004564551057
0.0004552465394
0.003782659019
0.0001420875412
-0.001888864239
-0.001894217179
-3.279989863e-05
-0.000946708854
3.253165688e-05
0.001894237101
0.001856431211
-3.244394324e-05
-1.407792578e-05
0.000937409899
-0.0009375013453
1.416937208e-05
2.277134009e-07
-0.0004696080627
2.035076905e-07
0.0004691768416
6.448718663e-07
-0.0004627098756
0.0004628761407
-8.111369437e-07
0.0004719126789
3.64792237e-06
-0.0004706376561
-4.922945164e-06
1.766906729e-05
-0.0009369191745
-1.736235282e-05
0.00093661246
-1.878067507e-05
-0.0009281356739
0.0009281436897
1.877265928e-05
0.003808082679
0.0001349478471
-0.001866836426
-0.001937707085
-2.972494472e-05
-0.0009677327673
2.972494473e-05
0.001937707085
-0.0009509162038
0.001898629208
-3.279459785e-05
-1.413238314e-05
0.0009580914775
-0.0009580032004
1.40441061e-05
-1.340010577e-06
-0.0004762522777
1.898102077e-07
0.000477402478
-8.827858277e-07
-0.0004714079958
0.0004719264799
3.643017116e-07
0.00198063163
-0.00198063163
2.364418514e-05
-0.00198063163
1.891293529e-05
-1.89129353e-05
0.00198063163
0.0009704146992
1.021645844e-05
2.022036659e-06
0.0008589566556
-2.714260085e-06
-0.0004284472339
-0.0004298171982
-1.450757691e-06
0.0008651138978
1.530440059e-06
-0.0004330275518
-0.0004321660283
0.0008678743097
1.835214719e-05
-2.014887022e-05
-0.0008660775866
0.0008600310352
-0.0008606915665
2.682567973e-06
-0.0004357713899
-1.022378289e-05
0.0004353874967
-0.0004331349108
0.0004334940639
1.15874498e-05
-7.714994701e-05
-0.001726118872
7.532740624e-05
0.0008662230563
0.0008617183569
-2.915791908e-05
0.0004322272211
2.764104876e-05
-0.0008638452616
1.1659789e-05
-0.0004359640634
-1.146711557e-05
-0.0004403012199
3.015637421e-06
0.0008815795788
-0.0004408692227
-0.000873675222
3.341343597e-06
0.0008737559988
-3.422120332e-06
2.595458232e-05
0.001749889162
-2.602845887e-05
-0.001749815285
1.691206604e-06
-2.259500349e-06
-0.0004365085721
-0.0004365983562
-1.034121959e-06
-0.0004403012427
1.034144749e-06
0.0008653428214
-1.851757869e-06
-0.0004321811287
-0.0004327606926
0.0008732276943
1.853361081e-06
-0.0004368111441
-0.0004365787047
-0.0004439271474
-1.21542498e-05
0.000443194263
-0.0004412281266
0.0004405928533
1.373924024e-05
-3.534144373e-05
-0.000881711931
0.0008818824119
3.517096284e-05
-1.340829471e-05
1.362283e-05
-0.0004414426619
1.273023264e-05
-0.000444353911
-1.230346904e-05
1.189030235e-05
-0.0004359406714
-0.0004400468278
-1.314802325e-05
-0.0008791414536
-3.534593489e-05
0.0008791459447
-0.0004521662333
3.581889617e-06
0.000904164486
-0.000451664626
-0.0004482154136
0.0008966101579
-3.262963534e-06
-0.0004487257372
0.001793458941
-2.594889453e-05
-0.0008964375185
-0.0008974477442
7.895025615e-07
-7.053441991e-07
-0.000448299572
-1.444424241e-06
-0.0004520835462
1.361737079e-06
-1.115293487e-06
-0.000440716302
-0.0004476280693
9.514558751e-07
-0.000907234934
-2.065904336e-05
0.0004536718483
0.0004533367327
-0.0004501240101
0.0004499781645
1.098905557e-05
-6.401968426e-05
-0.001797896788
6.430198513e-05
0.0008987707688
0.0008988437179
-2.305761456e-05
0.0004491921067
2.237356319e-05
-0.0008986320654
2.22603272e-05
-0.0009071344909
-2.236077028e-05
1.315353023e-05
-0.0004454373627
0.0004489103431
-0.0008981325833
-1.135632262e-05
-1.233475929e-05
-0.001793370299
-6.560224031e-05
0.0008979766038
0.000896976251
-0.0004623737757
5.639711959e-07
0.0004624546763
-0.0004582047481
0.0004582016396
-1.482660665e-06
0.001833818306
-2.643074187e-05
-0.0009163768325
-0.0009168603222
8.629503263e-07
-1.115680515e-06
-0.0004579520179
4.230690337e-07
-0.0004621196322
-6.77212527e-07
-1.44430783e-06
-0.0004527541328
-0.0004578724832
7.806749497e-07
-0.0009274614216
-1.881654156e-05
0.0009274972881
-0.0009186533486
0.0009186585451
1.935179785e-05
-0.0004729925815
-1.225007283e-06
0.000473334803
-0.000469184018
0.0004693541817
5.754964154e-08
0.0009384901964
-1.407459366e-05
-0.0009384935285
-6.516451377e-07
-0.0004691628627
0.0004677113756
2.103132173e-06
-1.325041704e-06
1.06977889e-06
-0.0004689287552
7.925925845e-07
-0.0004722967291
-1.488445021e-06
8.253619757e-08
-0.0004623693428
-0.0004698730859
-1.060018563e-06
-3.09381889e-06
0.0004743548526
3.439049956e-05
-0.001887337157
-3.40154594e-05
0.0009435653669
0.0009433967497
-0.0009374485352
0.0009371259749
1.799162761e-05
3.643066642e-06
-0.0004691580069
-0.0009780645665
-4.643690127e-06
0.0009735759868
5.657031028e-06
3.47523885e-06
-0.0004765882944
0.0004772114532
-1.963169291e-06
0.0009590792348
-1.431178367e-05
-0.0009588998343
5.982837756e-06
-0.0009477538581
0.0009482895217
-6.518501315e-06
2.46849647e-06
-2.842056309e-06
-0.0004762147346
-4.264739151e-07
-0.0009780693632
3.101070653e-06
-2.669800056e-06
8.757923488e-08
-0.0004707029825
1.656866929e-06
-0.0004754406481
-0.0009471462064
4.899808158e-06
0.000948229236
0.003433675334
-0.003451792377
0.0001456647958
3.239068346e-05
0.001730069974
3.853066137e-05
0.001723339584
-3.612784303e-05
-2.831016269e-05
0.001719923114
-0.001719783664
2.817071269e-05
-3.850216807e-06
3.964908055e-06
0.000859916344
8.539536393e-06
0.0008703982917
-1.106351837e-05
6.065910107e-05
-0.0004251954168
1.611888773e-05
0.000348417428
-0.0004454898825
-1.893647427e-05
0.0004518109766
1.261538013e-05
0.001745494523
-0.001745664573
2.612463181e-05
3.342511711e-06
0.0008732265262
3.427314188e-06
0.0008653433142
-3.427806907e-06
0.0001228002623
-0.0004599571241
-4.373338724e-05
0.0003808902491
-0.001850459295
-6.941961371e-05
0.0002130817419
-0.003650042665
-0.0002155105941
0.003698029818
0.003639120498
0.000219095093
0.0001211839084
-0.0004678066572
-3.993954743e-05
0.0003865622962
1.149872887e-05
-0.0009318782335
-1.199270665e-05
0.0004662772639
0.0004660949473
-6.37530921e-06
-0.0004639808177
0.0004638985935
6.457533339e-06
-1.165453768e-06
-0.0009466300255
6.492728785e-07
4.290043648e-05
-0.001902024396
-3.916656361e-05
0.001898290523
-0.001890828938
3.493228534e-05
0.0009454062208
0.0009448809315
3.425482308e-06
0.0008651157296
0.0008589985951
-3.89215632e-06
0.001714687972
-2.718529514e-05
-0.00171581284
-3.651701277e-07
0.0004311905911
1.279511673e-06
-0.0004321049326
0.0004482298095
1.569202374e-05
-9.546963042e-06
-0.0004543748702
0.0004341787807
-3.796704202e-06
-0.000434905248
4.523171502e-06
-4.262151453e-05
3.56190745e-05
-0.0008594510433
0.0004322482536
-0.000864407516
-3.101209918e-05
-0.00171980539
-7.398228037e-05
0.0008594567233
0.0008571810003
-0.0004644360385
-6.730456186e-06
0.0004647911854
-1.099010999e-05
-0.0004624029771
0.0004635996156
9.793471443e-06
-6.363343115e-05
-0.001836058804
0.001836635859
6.305637692e-05
-2.146728592e-05
2.117859743e-05
-0.0009183646601
2.062219181e-05
-0.0009272602083
-2.082340509e-05
2.166139512e-05
-0.000909153837
-0.000916758002
-2.146849761e-05
-0.001833422666
-6.378167739e-05
0.001833570913
-5.152194795e-06
-0.0004723391471
0.000473883327
3.608014841e-06
0.0004719797413
5.095662962e-06
-0.0004719026361
-5.172768173e-06
-3.349346838e-06
-0.0009463586113
3.099025122e-06
0.0004729405432
0.0004736683899
-0.0008247452097
-2.966888459e-06
0.000824679597
3.032501162e-06
0.001775517404
4.509093222e-05
-4.86349801e-05
-2.600941093e-05
-0.0008654441855
-0.0008805197597
0.0008589052121
-0.0008767479819
3.619491702e-05
-0.0008632504116
-3.718894851e-05
0.000864440733
-0.001730625314
-0.0001013687158
0.0008672797067
0.0008347366729
5.130755215e-05
7.867009842e-05
-1.947817189e-05
2.038328255e-05
-0.0008256503204
-0.0005475923032
0.0006082514042
-2.915842912e-05
-0.0008660472028
2.728265219e-05
0.0004337760753
0.0004341469045
-1.874014742e-05
-9.039177383e-05
-0.0004384603819
-1.474432538e-05
1.148462643e-05
-0.0004422301835
-0.0004364597283
-7.475835866e-06
-0.000861801903
-2.661818215e-05
0.0004304041366
0.0004288575194
-1.256586235e-05
-0.0004381494679
0.0004382238327
1.249149761e-05
-0.0004382045728
-1.255531581e-05
0.0004381940262
-1.050484826e-05
-0.0004487037793
0.0004486439817
1.05646459e-05
-0.0004495403083
-1.1050879e-05
0.0004500863391
-0.0004579693452
1.087418068e-05
-8.084258985e-06
0.0004551794235
-0.0004663646728
0.0005876964554
1.468479688e-06
-2.012804959e-05
-0.0009125127211
0.0009125123064
2.012846429e-05
-1.47916435e-05
9.200699425e-06
-0.0004607737287
1.112531139e-05
-0.0004587262431
-1.036841344e-05
-1.344642633e-05
4.299806513e-05
-0.0004509082202
0.0004213565814
-0.0004577462483
-1.700251934e-05
-0.0009119278885
-2.022319579e-05
0.0004560168822
0.0004560061524
-0.0004661632244
2.23942856e-06
0.0004663316825
-2.407886612e-06
8.396493068e-06
0.0009324528482
-8.478871785e-06
-0.0009323704694
-8.470567582e-06
0.000937338901
-0.0009374292361
8.560902691e-06
1.011584302e-05
-0.0009364034515
-1.033760771e-05
0.0009366252162
-0.0009328645582
1.092753744e-05
0.0004670188341
0.0004664169155
0.0005985260431
-2.047494026e-06
-0.0004752946406
4.167455583e-06
-0.0004756497054
0.0004762549077
-4.772657897e-06
8.944720933e-06
0.0009536197805
-9.035123049e-06
-0.0009535293784
-9.036373105e-06
0.0009579160202
8.593497166e-06
-0.000478521288
-0.0004789518563
8.707554539e-06
0.0009472903465
-8.965132896e-06
-0.0009470327682
0.0009521934275
-0.0009521101512
8.86144468e-06
-0.0004740063107
3.382271946e-06
0.0004747914943
0.0004397105363
3.580734445e-06
0.0001075540228
-0.0005508452935
0.0004290880993
-6.474828255e-07
-0.0004288057866
-2.404627319e-06
0.0008620926021
2.084320593e-06
-0.0004300797014
-0.000431692594
8.40701157e-07
-1.532328384e-06
0.0004297797265
-9.577763623e-07
0.0004358413334
4.826979214e-06
6.339230045e-06
-3.156381969e-05
0.0004330384615
-0.0004078138718
0.0004316406495
3.906426831e-07
0.0008641680805
-1.449208506e-06
-0.0004329096602
-0.0004322138391
-4.722889579e-06
0.0008714300319
-0.0008720177993
5.310656923e-06
-9.484869985e-07
4.477340317e-07
0.0004346795337
2.553512423e-05
0.0004344142679
-1.171958256e-05
-0.0004351510046
4.952002604e-07
0.000433698028
-0.0004336699463
0.0004338457567
-1.124297415e-06
0.0008656708777
-4.152131299e-06
-0.000866241636
-1.092902475e-06
-0.000436373748
-0.0004345906032
3.020333014e-06
-1.258183452e-05
-0.0004349511072
0.0004338304668
1.370247489e-05
-0.0004336195196
-1.261347499e-05
0.0004336511601