/*--------------------------------*- C++ -*----------------------------------*\
| =========                 |                                                 |
| \\      /  F ield         | OpenFOAM: The Open Source CFD Toolbox           |
|  \\    /   O peration     | Version:  v1912                                 |
|   \\  /    A nd           | Website:  www.openfoam.com                      |
|    \\/     M anipulation  |                                                 |
\*---------------------------------------------------------------------------*/
FoamFile
{
    version     2.0;
    format      ascii;
    class       volScalarField;
    location    "2.31";
    object      k;
}
// * * * * * * * * * * * * * * * * * * * * * * * * * * * * * * * * * * * * * //

dimensions      [0 2 -2 0 0 0 0];


internalField   nonuniform List<scalar> 
12556
(
36.90870603
36.90878497
36.90894565
36.90925925
36.95457997
36.95578845
36.9579245
36.96221066
36.97012614
36.98224429
36.99721631
37.00692018
37.00920736
37.00614332
36.99528112
36.98113498
36.96985502
36.96219697
36.95818112
36.95590389
36.90974017
36.90902037
36.90866545
36.90842121
36.72751601
36.72779246
36.72828994
36.72951522
36.7758337
36.78186528
36.79382952
36.83241214
36.86896987
36.9262561
36.99864492
37.03646695
37.04880502
37.03847484
37.00130827
36.93710831
36.8792263
36.84030751
36.79602579
36.7827296
36.73154859
36.7290423
36.7278492
36.72719308
36.54767828
36.5484122
36.54984155
36.55276191
36.60156261
36.61630206
36.64464647
36.7081026
36.79471896
36.91878377
37.03433951
37.10751894
37.13376573
37.11617304
37.05086258
36.94233056
36.81892229
36.72826849
36.6491058
36.61827828
36.55822132
36.55234109
36.54958421
36.54846302
36.36923795
36.37027961
36.37292582
36.37933731
36.43346765
36.46340637
36.52431662
36.63354155
36.79537386
36.97477033
37.1429178
37.26517981
37.31876111
37.29202114
37.18798768
37.01799288
36.83269482
36.66689488
36.5304866
36.46951929
36.3915114
36.37994275
36.37443498
36.37230515
36.19261506
36.19448746
36.19956939
36.21203159
36.27543262
36.32914871
36.4427852
36.62274291
36.85401291
37.10682358
37.36638717
37.59079974
37.71581881
37.67012427
37.49060748
37.20683938
36.91722813
36.67601958
36.45458862
36.3415705
36.23378407
36.21174949
36.20183848
36.19800153
36.01717325
36.02015079
36.02870178
36.05009339
36.13061984
36.22053077
36.41297436
36.65608487
36.966624
37.33227083
37.77758332
38.28000152
38.63219988
38.5149465
38.07580935
37.57362031
37.1020399
36.73707808
36.42856072
36.23989894
36.08769002
36.04811282
36.03127
36.02473326
35.84425934
35.84932805
35.86381942
35.89970891
35.99873038
36.13956512
36.42051509
36.73199793
37.14762818
37.67998302
38.49003529
39.88618843
40.6286246
40.50324104
39.14030372
38.16816188
37.4021072
36.85870805
36.44344218
36.16892928
35.95254
35.88961714
35.86278143
35.85243455
35.67516496
35.68277137
35.70459524
35.7584268
35.88151896
36.08581658
36.45067769
36.84441385
37.38588296
38.14118426
39.5126072
42.68261764
43.55770952
40.83910694
39.01035563
37.80924903
37.03456302
36.48576204
36.12616293
35.83151388
35.73819882
35.69770652
35.68230479
35.51357385
35.52515262
35.55743449
35.63410492
35.78331722
36.05711227
36.50134291
36.98239751
37.65319814
38.62399131
40.49447861
45.3356886
48.73933051
42.89508766
40.00735671
38.2945453
37.2498025
36.54861746
36.10630928
35.7254474
35.59596765
35.53897376
35.51733387
35.36169237
35.37744183
35.42065949
35.52171007
35.70461045
36.04836635
36.56634187
37.13358211
37.9199027
39.05775515
41.22524273
46.54811568
52.21656696
44.74648538
40.98046375
38.7766838
37.47509989
36.62549733
36.10587277
35.63631509
35.46689185
35.39057037
35.36150599
35.22319982
35.2447201
35.30190445
35.43231113
35.64422017
36.05339583
36.63992999
37.28512235
38.16535095
39.42873671
41.8045773
47.0914577
53.88255147
46.10102568
41.76137563
39.19004857
37.68507043
36.70601239
36.11517379
35.56319164
35.35272037
35.25629118
35.21892163
35.09780784
35.12438155
35.19383992
35.35162944
35.59824769
36.06803271
36.71643151
37.42896189
38.38891437
39.75702897
42.32772155
46.85887096
54.58998982
46.94488095
42.30387409
39.50433797
37.86467218
36.78157624
36.12745289
35.50693636
35.25487124
35.13786166
35.09183189
34.98648979
35.01952029
35.10581496
35.29365605
35.5607974
36.08346138
36.78620932
37.56503363
38.58684034
40.05297941
42.87042684
46.3208125
43.40292027
54.41012514
47.36460197
42.62094364
39.69588936
38.00120071
36.84556015
36.13903788
35.45881957
35.17197037
35.03488006
34.98052417
34.88562325
34.92435251
35.02502906
35.23668114
35.54584195
36.12549598
36.8954534
37.71413267
38.79495133
40.37077011
43.46299794
44.82422207
54.34306489
54.38706345
47.47592151
42.68127032
39.79257343
38.10277193
36.89526122
36.14702354
35.41499817
35.09972508
34.9444515
34.88246442
34.79296928
34.83698538
34.95041464
35.18349935
35.51852968
36.13978349
36.96815891
37.87310904
39.06301999
40.7434044
43.83785125
41.11773452
55.26770649
53.66894963
47.11518156
42.56682624
39.80079484
38.16863811
36.92428896
36.1431667
35.37221064
35.03346035
34.8625003
34.7939502
34.70353405
34.75231578
34.87657827
35.12865059
35.48683002
36.13976776
37.02473083
38.05034613
39.44090127
41.33858169
44.32832524
35.60460659
53.65327059
52.04031614
46.3005479
42.26318033
39.74989104
38.18968551
36.92976897
36.12129841
35.32248372
34.96632195
34.78382809
34.70979076
34.61525872
34.66812623
34.80092224
35.06843211
35.44593317
36.1235279
37.04989462
38.18313555
39.87614865
42.13078916
43.9600833
27.49372115
52.72571571
49.95123438
45.17917906
41.85616602
39.68962624
38.17700102
36.90770629
36.08073709
35.26479461
34.89693608
34.70463662
34.625984
34.52329701
34.57957745
34.71905188
34.99914445
35.39258493
36.08548083
37.03937767
38.2071659
40.12821201
42.61156472
40.39320436
32.8593198
51.31227399
47.99570127
44.18583637
41.5097162
39.58527251
38.11391351
36.84494386
36.01541163
35.19241009
34.81762667
34.62036659
34.53821641
34.42822758
34.48721008
34.63142557
34.92042742
35.32517789
36.02613015
36.99545156
38.17857767
40.08854083
42.30113284
33.80223032
42.43911791
49.87835776
46.69169437
43.60423203
41.24848585
39.42264154
38.00252254
36.75238846
35.92943719
35.10727458
34.72962778
34.52935731
34.445114
34.32578624
34.38685138
34.5346065
34.83039471
35.24372436
35.94734146
36.92229598
38.10959534
39.97698871
41.7386213
31.37409982
42.14464871
48.66996407
46.00152971
43.18289668
40.96813514
39.22836202
37.85904523
36.63677215
35.8253806
35.00903281
34.63111651
34.42936347
34.34371466
34.2197424
34.28229441
34.43221474
34.73156489
35.14919634
35.85185055
36.82654044
38.01039193
39.81432318
41.13549986
29.54826887
40.90791663
47.57654271
45.37298279
42.7815382
40.68442846
39.01836174
37.69519483
36.50376055
35.70635762
34.90010911
34.52435121
34.32231935
34.23583926
34.10513745
34.16874549
34.32033146
34.62244312
35.04331653
35.74260907
36.7132959
37.88821343
39.61228936
40.51213104
28.0553407
39.65850778
46.56183018
44.78396939
42.40154836
40.40590301
38.80212583
37.51938492
36.35798961
35.57558165
34.78062946
34.40775524
34.20591723
34.11896175
33.98916799
34.05343487
34.20573582
34.50788595
34.92794788
35.62241526
36.58672605
37.74858651
39.37985963
39.8894891
26.86296011
38.42648139
45.6120399
44.22780727
42.04046853
40.13637406
38.58537107
37.33743132
36.20339932
35.43596062
34.65449993
34.28588531
34.08475597
33.99759742
33.86415237
33.9288603
34.08192561
34.38477658
34.8051472
35.49373814
36.4501683
37.5956879
39.12339429
39.2831599
25.92865183
37.22236198
44.71714907
43.69929892
41.69556748
39.8767429
38.37140967
37.15317699
36.04323987
35.29000637
34.52054093
34.1555013
33.95491085
33.86762684
33.7416461
33.80655342
33.95960461
34.26042307
34.67651803
35.35872696
36.30635081
37.43242199
38.84753704
38.70036391
25.20678779
36.05947329
43.87432972
43.19410749
41.36470884
39.62663194
38.16199239
36.96912255
35.87999649
35.13970787
34.38414502
34.02388191
33.82411828
33.73680652
33.60868614
33.67372114
33.82716906
34.12801534
34.54372585
35.2191456
36.15732463
37.26056156
38.55824555
38.14256101
24.65616758
34.93781232
43.06977042
42.70846732
41.04605432
39.38525694
37.95786281
36.78682028
35.71546045
34.98672474
34.24123639
33.88394293
33.68447676
33.59705058
33.48355974
33.54856912
33.70161949
33.99908262
34.40772718
35.07639392
36.00454065
37.0812871
38.26058997
37.61119546
24.25384808
33.84763397
42.29427668
42.23930823
40.73800354
39.15180623
37.75923225
36.60721534
35.55092882
34.83224295
34.10026137
33.74773083
33.54890488
33.46139845
33.34437124
33.40935901
33.56264666
33.86027675
34.2698369
34.93153283
35.84895768
36.89564963
37.95832608
37.1075942
23.97886639
32.7911677
41.54123291
41.7840217
40.43907946
38.92545308
37.56599098
36.43082272
35.38728654
34.67732369
33.95182338
33.6010099
33.40205674
33.31429587
33.22047977
33.28534131
33.43800882
33.73116972
34.13035362
34.78536475
35.69124232
36.70476727
37.6548503
36.63037047
23.80444067
31.76789249
40.80893852
41.34051241
40.14796861
38.70542396
37.37790028
36.25791757
35.22515316
34.52252828
33.81092488
33.46488983
33.26633491
33.17835971
33.07533445
33.14009762
33.29286848
33.58675657
33.9905129
34.63850782
35.5318745
36.50977846
37.35279767
36.17758013
23.70518178
30.77925952
40.09392536
40.90688662
39.86345981
38.49096585
37.19463004
36.08859833
35.06494488
34.36861972
33.65801791
33.31209696
33.11299882
33.02458399
32.95672538
33.0213235
33.17338437
33.46191895
33.84994362
34.49142567
35.37124488
36.31180196
37.05394732
35.74804573
23.66149345
29.83198998
39.39514682
40.48166578
39.58451053
38.28138542
37.01581423
35.92285547
34.90695281
34.21569368
33.52190261
33.18095908
32.98201292
32.8932492
32.8040971
32.86855434
33.02051202
33.31025285
33.71021747
34.34453632
35.20976585
36.11184403
36.75985917
35.34086053
23.65857556
28.92626664
38.71262862
40.06373911
39.3102847
38.07607612
36.84108332
35.76059066
34.75138195
34.06453134
33.36268644
33.0202492
32.82046185
32.73106899
32.69570961
32.75999643
32.91133995
33.19561522
33.57017659
34.19822413
35.04792374
35.91073137
36.4706778
34.95437212
23.68112526
28.06091327
38.04524191
39.6522242
39.04007944
37.87448398
36.67006174
35.60165348
34.59844947
33.91479463
33.238
32.9004371
32.70049854
32.61067102
32.53182122
32.59594467
32.74687786
33.03147624
33.43258744
34.0531835
34.88637761
35.70925385
36.18666622
34.58660077
23.71740259
27.23882787
37.39318778
39.24687529
38.77337775
37.67616726
36.50244346
35.44597047
34.44861807
33.76796749
33.06585718
32.72651126
32.52561198
32.43496372
32.4400258
32.50402301
32.65459673
32.93649349
33.29578196
33.91070219
34.72678905
35.50809807
35.90828552
34.23688774
23.76186898
26.46151753
36.75786451
38.84847887
38.5098391
37.48076362
36.3379433
35.29334918
34.30319387
33.6241109
32.96441786
32.62703
32.42561635
32.33449097
32.23032562
32.29411322
32.44405301
32.72486518
33.16679858
33.77404797
34.57442147
35.30847314
35.63741651
33.90742488
23.80900654
25.72950974
36.14479579
38.46004917
38.25075624
37.28858577
36.17661975
35.14377375
34.1663785
33.48906099
32.74267313
32.40368846
32.20081965
32.10850142
45.12398864
49.3839275
43.98203222
46.43143517
53.20051736
49.85393233
47.07594409
54.89571463
53.50924862
46.91180157
55.55899273
55.00538631
46.3571483
39.98497877
42.49795547
55.84923267
55.59810259
45.35718581
48.87363771
40.20364955
53.81319285
56.3093276
55.87361174
42.22528283
40.60209283
43.46645392
40.37274998
54.25647538
46.00273805
48.17400945
43.39680436
41.49031906
41.06223395
45.31179119
44.26161337
57.15403277
60.25778949
51.90297691
45.6974416
44.01146466
41.6717121
46.11517996
45.43221215
46.84654122
49.35235773
50.42636821
55.03427884
54.65782688
53.74887624
47.35559697
46.16630628
42.21430711
46.42023613
46.18291348
47.06156666
45.27953474
47.50588004
56.79829983
55.71489808
42.7530603
46.36585412
46.43079499
46.62792374
40.06099948
42.70680525
40.66814159
57.99991997
57.66323207
43.35970375
45.89983821
46.33610371
46.01455237
33.21531256
36.46556787
43.7684833
51.36867148
49.29292968
50.15050252
52.40056153
44.99758763
49.64499822
60.2459909
54.63093768
47.07659028
53.37485426
58.77479208
50.55480105
51.27563569
46.00382015
52.12978289
50.66559917
52.5996714
52.28674946
54.78681804
56.8718411
51.73893442
58.21793275
56.68310502
58.94840844
58.37413918
51.48119809
47.71988501
49.16803294
46.92577195
48.76801124
46.70190879
50.57086739
48.8959918
55.51137356
55.12922507
54.43965925
57.17691143
57.44348325
56.60404474
57.1309832
54.25347722
42.85348534
45.14181465
47.03360493
44.06377124
41.29194961
46.56384752
44.21854945
57.59500267
56.92085342
36.63444508
39.86722515
46.59770142
43.7969503
37.69399911
34.0065675
41.13588157
37.93045721
45.86479
58.21430777
58.04152504
40.16619276
40.5974848
33.15259081
45.96708384
45.33622645
32.20417852
86.31342249
33.9048108
32.23549149
44.64375485
40.27446823
44.06040997
41.96872022
43.9465311
48.37641687
44.49650864
69.61931102
50.27685483
45.87524398
51.34028701
50.88906079
59.12679736
54.54992095
48.3956492
47.6551993
69.29382982
47.30009691
45.52869329
49.14351141
58.50136887
58.312099
50.69734552
48.77199579
44.29304504
59.69066739
47.94507648
57.4065174
45.51696056
52.24939676
46.39209532
45.0359533
41.63974908
55.35783875
57.79488272
57.95989157
57.4832252
57.76348886
55.29124188
39.32201194
60.67373843
41.61532089
42.43957909
41.98535556
44.4058089
45.35559744
42.42682408
42.47474472
75.87182032
50.77125021
69.18513299
48.85191996
64.42959447
49.78193514
59.33462729
59.53331016
54.74401802
54.72376176
41.64373442
52.86788809
56.37001328
42.53873652
41.43377933
56.26264614
43.35930241
56.22252707
41.50333034
46.14172783
45.75873509
50.85499527
48.3205458
60.95741656
35.41507092
43.78832477
43.26563818
44.46138956
43.97921816
35.54994944
65.06661925
60.27636901
51.30868918
60.74576507
61.86209934
55.38596978
60.32830296
51.61389387
47.14968003
54.49983708
47.04696515
60.8676428
55.43648275
47.88337789
58.30907923
64.85059274
58.46243185
58.05522013
51.4432056
46.83965151
51.35029054
52.72726809
50.83068586
54.71912458
47.29964886
50.32690074
52.66650753
55.94907938
56.12757859
57.4867457
56.24863202
55.66346653
56.79319823
56.40367608
57.3683579
59.34327589
54.27718086
53.16304133
55.43408576
54.59903476
59.28739465
47.82718737
47.69370852
49.84510805
49.73934722
55.7371302
57.31709469
55.65311577
42.9605288
42.77083601
45.45839673
45.29914445
41.51851787
44.17932484
57.25757543
41.28528172
41.42001717
38.62603001
45.07478879
44.62099745
45.62687321
45.21731358
38.79366816
39.3782764
36.71456065
36.55075183
40.03638462
39.88005091
70.59810567
39.32415729
53.45540823
51.59936197
43.063826
42.56773023
32.56258572
32.8844842
41.90667035
46.66113465
33.42350123
85.21021364
48.35930253
76.00380534
33.34626419
42.33579527
56.38944147
42.50742709
69.47624508
40.58485827
42.28421639
43.74633043
45.29001761
45.78198344
44.24805389
36.98756794
42.43042884
55.72934333
55.6121998
56.21415972
58.45007761
43.53117591
51.13280673
55.21701528
53.97816537
39.44292403
58.62787497
58.56084322
49.81698646
44.38215579
44.01251761
47.32511611
48.90706757
44.19126876
44.50028464
58.19269833
61.89419857
60.02672786
60.13071072
54.81881509
44.64384983
44.42986918
51.09688516
50.63438281
54.44791419
46.26955956
47.84492196
47.56331058
48.18976729
47.93473831
46.43196169
46.61817187
46.26295728
41.65652312
33.76102252
39.90536215
39.44932257
79.05547272
58.6668945
49.56048165
59.76171169
64.25640066
62.3875406
56.19881793
50.81748204
49.16753448
52.73979386
51.33278083
56.59429092
55.23294741
51.50508153
51.32564175
56.35161919
48.3711816
48.47850899
48.26816179
42.52834508
43.10620387
47.13469677
44.45293289
44.40594113
55.33009255
57.29543818
57.38865174
57.3419629
56.49993373
57.13065121
56.89085512
57.31733894
57.18581588
56.50574101
44.00744022
47.05779846
46.7312875
47.46558878
47.16275676
44.16112105
43.60101347
37.45847281
37.84134142
33.94227983
34.24330954
41.82597792
46.10212815
41.59584965
42.36875526
37.99151449
38.42134997
44.68138032
57.34522593
44.82948734
49.74470516
75.21957635
40.67892805
37.22246711
35.1928178
40.67023958
33.63722804
33.87188878
33.11195745
39.02553317
61.27508183
38.18641424
41.10788268
40.22337512
39.30173881
38.87333997
32.98888553
41.92877368
40.66832521
47.42527325
32.10993437
99.43724715
44.64010518
41.6816402
45.07153086
33.71815113
32.37874515
61.29690741
60.74293978
59.94056983
58.84042909
58.55698727
39.81978399
40.26538672
69.79873802
57.25119654
57.11311798
51.74725472
65.52400197
51.81216483
65.93754223
52.96624647
50.2974446
43.18971813
42.83216894
57.09292538
65.66363219
58.64222468
46.01363019
39.26409151
61.32831878
75.07841989
46.38663692
57.90784705
81.9955531
40.93100411
44.36069805
39.60209885
40.41551112
73.882257
76.28544362
59.80248054
55.26842282
64.54922393
60.75967168
54.39416271
50.65202565
57.72392694
57.01827699
56.71982587
58.56633186
59.99280292
59.54043019
57.71676172
46.24299412
45.00583888
54.76347682
52.56528886
51.60327543
46.77992662
51.85098313
51.16958833
54.49020081
50.6521906
46.77808877
43.80294109
45.08018427
41.6157521
49.76264699
48.52387195
47.72438161
46.06630866
44.64426058
48.03189107
46.65148159
46.13587915
47.60103037
39.95517399
39.78568045
40.55113809
40.04091718
34.30844313
35.94805475
41.11923481
40.69479817
63.29582698
62.57350668
62.08337247
55.11496204
55.81996219
53.89602138
54.84245286
62.44418346
58.3970732
56.32847181
56.17678218
55.99508311
56.29315431
58.74680939
58.96638152
52.38956729
53.57150281
62.89750984
63.43431479
64.67679246
63.72967177
59.47757424
65.46667362
66.9856283
65.94545599
66.5805626
65.75883569
67.47271443
66.3250194
56.6414692
63.72212044
64.85786674
45.17771292
51.58772818
50.54337496
52.57527566
51.87092715
45.87808835
49.10362945
48.3927866
50.18129005
49.3488288
52.37819968
55.27565417
54.63319149
56.03179909
55.47926723
52.93302538
48.51073005
53.50764829
52.81308954
54.4113401
53.7361105
48.94811358
51.96986672
51.52185499
55.40480623
56.34959399
53.41102912
52.20678917
41.93018936
41.36863324
42.90466719
42.1272164
40.47192385
39.92288534
41.19009055
40.6373436
47.26789206
46.6086295
48.1643063
47.49387119
45.30237958
43.41865342
46.37024186
45.71235944
43.22812984
43.26283058
44.26200661
43.3928444
57.07563478
44.37380186
45.79494041
43.28938348
43.88393053
36.95330887
37.30706513
43.44573266
34.61727956
34.36776989
34.98738884
34.71916762
34.19982549
42.05602796
34.44918815
36.51113188
39.37327596
41.30500279
45.94645982
38.92700559
36.13970726
39.8114024
38.96136579
35.43194892
35.10492756
35.94144058
35.5552056
44.83507204
38.57431066
39.09140944
65.64524646
40.99878132
64.2463396
56.0380226
63.749483
40.99546737
78.16215561
40.15231726
74.792051
65.51960737
37.0853465
35.88559662
33.34090563
33.57019318
40.51482219
39.30318301
33.10937978
33.29190321
70.84240447
32.92238453
38.67050654
37.93682959
85.79953102
90.9350032
32.06561038
94.69931201
78.19651461
43.59686432
33.6479843
84.96541111
56.45846536
93.68510869
60.53206609
32.51940237
43.08104792
40.90013257
39.42385981
68.85118695
68.27315074
55.03533643
48.95136909
48.55973745
69.33436024
39.38115039
44.34661589
40.89888393
57.97134574
58.09463026
55.73204942
47.29889144
46.31401163
50.99116765
58.55336306
46.97130807
47.2792262
41.84408091
42.23253369
45.00440896
52.66295118
57.34240852
60.61535066
49.85359689
48.80494904
48.73185494
48.80053899
48.81346506
50.00558195
41.34025468
40.20713389
44.56694565
50.57823364
52.6334055
57.84696136
41.66035565
41.25267879
36.07266403
61.60469952
63.5067962
56.19688827
48.69185898
48.53918321
48.57795084
48.36652363
44.85600726
45.58613026
45.94382569
47.04493528
49.27908509
37.5776851
42.22477883
41.79467773
56.8950449
53.24481931
42.48867852
32.69773978
32.74718246
34.18256438
49.45384394
71.94793242
63.61503984
39.47356153
43.90634007
41.7948937
32.17253243
33.83783519
32.61693383
32.66094627
32.26848474
70.36274107
58.42148118
46.81007893
49.8091287
68.20750651
40.38756578
40.03764963
47.80667089
58.79405946
48.59255753
46.80959173
49.3619483
43.38632787
42.07106449
40.55950882
78.63660328
81.964561
83.54883789
71.16842899
80.455707
43.72528886
44.14776321
47.90311962
71.74121991
65.30888081
62.04421277
75.07358065
71.81877044
42.01526979
48.99188268
47.03872432
61.06948377
60.06035323
48.2163606
51.24443282
50.17924231
41.49360709
57.10060413
43.42380021
44.20631106
54.46975953
42.52329559
44.11449592
64.68899223
65.62509285
61.07493805
61.21905242
59.7072817
59.54627563
56.08921337
57.35825295
56.889464
59.34991517
59.08204636
59.78959272
50.54751499
51.99488067
58.34682235
60.15088712
67.25237905
62.72565935
67.16122144
67.57522824
64.02771142
43.19500565
45.83279289
45.22304139
50.18444409
49.89990047
46.55536607
42.71742379
42.42876668
44.70207374
44.2852532
51.33888131
53.99803492
53.59757733
56.45442723
56.03798925
54.09726829
47.65493699
50.91616005
50.58051144
53.1956207
52.80316257
49.85478698
44.06478383
44.65264428
48.23639423
47.2713762
43.29228239
43.8729537
48.13363474
48.72094126
50.16608854
40.79146588
40.61487565
42.1814675
41.95496601
37.99066621
40.36180647
40.21710544
49.39403155
47.31692925
47.93061282
56.11853532
55.44430901
45.03018246
45.83341953
56.81440626
55.13580053
55.47841299
55.41066446
44.44683871
45.40707404
42.76219667
42.36251862
37.94788116
39.23890715
43.24276678
42.8816368
34.37247004
34.43490452
36.82876315
36.4220252
34.1825432
34.26221415
70.63184125
32.52913112
34.18101415
33.20783441
109.9514326
32.35570347
42.87319567
73.40268211
66.57616334
32.29452881
32.33231937
33.5013476
83.41473947
89.37719538
86.71188337
70.10542333
33.21941348
32.21154937
32.25024229
47.37644556
39.61059649
39.59921021
68.2966926
67.28106585
52.16235352
49.70290984
41.53785753
59.8899138
62.48473905
65.64690246
45.72343338
66.61534254
58.2701672
67.10823053
65.25460028
48.16723343
45.78805479
46.76195701
53.03078788
54.74656183
55.19091866
54.03711275
54.33682187
61.32133885
60.99795571
61.41394406
60.07187525
60.48614147
60.66527141
51.19009367
46.82085816
47.16764924
46.30449158
46.5321876
51.50011594
63.40988225
62.60214609
62.71101495
61.88846348
62.26181204
62.86989445
51.21395127
48.24106394
48.64158305
47.51013034
47.8750341
51.27129027
53.48971743
53.44274079
52.71175557
52.77605066
37.56479153
40.19422079
40.04873727
34.02899185
36.56057468
36.42746376
36.96613622
36.7184112
34.11802083
71.8528806
73.34315689
64.67600998
73.21133925
33.1240955
33.06438462
33.27808402
33.21020089
32.63233145
34.53773966
32.81434402
32.96127091
33.72290071
36.09571472
35.97833328
36.31541761
36.20234924
33.79311712
33.42858521
33.34033705
34.6395515
33.61907701
33.09164817
74.10750414
70.87584781
54.12841398
73.6375933
35.82723195
34.61625461
38.93368622
33.05758077
35.17920903
35.04682816
32.13570188
98.72810141
99.74860909
65.1656613
92.60968982
83.99279729
32.50734506
32.5725532
33.7847201
32.31715599
66.29565683
73.95557161
66.92104059
69.99849069
64.61058559
54.3151933
71.87895366
65.6168174
59.63362948
58.98819076
69.84097097
53.23639115
59.90432123
58.32445175
54.90895927
62.10337964
54.9936441
58.71476941
67.05173632
68.66960001
59.82884166
65.68955053
70.45839569
65.19376296
67.07719034
63.88302997
68.31457416
78.51471307
78.06473023
76.41710498
49.29687159
69.02737858
62.05964269
76.58977514
78.6052602
53.66824749
58.97735937
64.58186192
80.56246443
67.71902728
50.95605974
54.37175898
70.5038394
65.8646277
71.23206542
63.09083353
66.85276218
70.29451869
72.37612392
71.60189125
56.47736244
57.16384799
57.5225346
56.03714439
56.1771375
55.96430198
58.825173
59.13867211
59.53685268
58.18446152
58.54745303
58.33503505
45.81994736
46.71737902
46.72975415
52.15101743
51.93790372
48.91470771
53.24471878
53.16899441
52.11671206
51.31755857
52.11717817
48.69036199
46.34227193
46.22570661
46.6910317
46.54046336
47.34767996
60.54701017
53.8848625
42.64143392
62.78153347
62.5478083
62.05728051
46.43800503
60.54555455
59.58057082
42.50771468
42.81389295
51.58735584
64.05056417
61.76193724
58.31203818
57.85090434
56.76690542
59.39498689
58.85509677
58.54131956
68.5970377
68.32030335
61.79027305
69.33222333
71.6865183
63.90902464
68.27614881
68.54402348
64.40282994
62.75589138
62.74895158
62.69413739
62.72631179
64.07346309
65.89888408
66.35483594
66.51572421
70.43956996
70.15229336
70.67255406
70.61172181
66.33863733
67.8849316
69.58975286
71.17205904
68.10993392
48.54867488
48.35681471
45.15348986
46.0608174
49.45149054
49.25258701
43.30113027
42.99628732
43.93556808
43.60658963
54.80614724
54.39816703
51.83644502
53.50899116
55.62750115
55.21619632
51.6597912
51.30251561
48.11653615
49.37618526
52.41102582
52.03747941
51.91741984
49.8694774
50.30818371
49.02618177
49.44922653
51.55294295
52.74120313
51.57738508
52.0270366
50.75071153
51.17999581
52.61559727
41.73673559
38.32702786
38.50776271
38.00103746
38.16636691
41.55338163
42.5811189
39.1095159
39.37836589
38.68821699
38.88967066
42.34002297
40.27610975
37.05440998
37.22290192
36.7716039
36.93788202
40.13111814
41.00454908
37.68033492
37.84584827
37.3577566
37.53099985
40.82927309
41.23981753
41.03819742
47.04932015
44.6342053
44.85542842
44.18158065
44.38335399
46.8202129
41.7040875
41.4846091
39.41656147
39.35405561
44.98879097
42.63155467
42.71046754
39.77493903
40.31116691
44.16638585
46.17197201
43.74614265
43.91286099
43.30568596
43.42336958
45.90089774
39.93814212
39.83462328
55.36991507
54.96300466
56.60487861
47.23871
50.56854782
44.71166232
54.26958294
54.92662815
53.51111689
53.94587316
45.30075813
43.36901599
49.87698398
46.89982868
53.843828
54.19165347
43.64614341
37.02030382
39.54531619
39.40100401
39.87971655
39.74530335
37.22228817
34.55334788
34.4269491
34.90022188
34.78663886
34.0974538
33.61723621
34.80715828
38.09128213
37.40332419
39.07662537
38.75764906
36.45493655
36.93465731
35.06996651
36.02098935
36.4545537
39.55553852
36.49175562
36.68037373
36.14655767
36.4150294
39.47277797
35.32513162
35.20408408
35.80165219
35.67001346
62.7216922
45.98513824
47.651546
42.72631112
44.30241551
63.88289595
62.36554483
61.36109712
49.76644067
55.11559448
64.63636392
73.45604409
54.35802199
58.02661447
46.77132972
50.63320208
75.3468904
32.88342512
32.82940594
32.99714531
32.95356169
33.67563788
33.98275719
36.14850239
32.61631174
32.59070099
32.7534754
32.69852457
33.42544943
35.65169525
35.5160844
35.87270885
35.74885228
33.48413647
33.17890333
35.19765363
34.91214187
35.43532429
35.26782363
33.2160821
69.25238511
34.91267574
34.67141345
32.73828436
83.7708016
105.1448316
107.7722043
105.3680233
105.2086422
87.61944399
32.14751478
87.30651969
69.48333126
73.04439185
33.5696752
32.37689175
32.44205405
84.52901983
91.23669055
89.99572919
77.52991923
83.1061645
95.00038763
92.0137151
65.09223578
88.11058456
79.41502343
32.33271725
32.18521643
32.93756943
36.73542531
36.78601582
36.85750044
36.8065013
36.88678057
36.90918035
36.91459442
36.99649244
36.97780099
37.01940624
37.07257772
37.02886276
37.08367278
37.10456722
37.04762358
37.10627433
37.09788837
37.0437435
37.09054909
37.05090623
37.01649421
37.03284538
36.96170307
36.95536834
36.93593952
36.85091179
36.89253131
36.82753949
36.76680427
36.8487451
36.64652585
36.75074612
36.76936073
36.79026831
36.91333339
36.88839237
36.95446726
37.07225229
37.0088546
37.10712571
37.19346114
37.09438765
37.21484952
37.25457647
37.13188493
37.25926485
37.24976014
37.12496794
37.23757614
37.16987936
37.07144727
37.14050082
37.03112858
36.9716616
36.99019239
36.86468373
36.84859761
36.82423447
36.70818556
36.74595835
36.6214155
36.77853157
36.7527646
36.83375437
37.00656088
36.92985214
37.06515647
37.24020817
37.10403643
37.29610104
37.44776703
37.24081132
37.49164194
37.57803061
37.31363073
37.5902248
37.58458832
37.30771674
37.56406003
37.43845505
37.22245743
37.39109457
37.21273894
37.06382142
37.14608548
36.9490209
36.87811955
36.88740695
36.72088542
36.70584234
36.64378594
36.85577416
36.79282838
36.93184809
37.17644679
37.04189331
37.265026
37.55099709
37.30242008
37.65201543
37.96722902
37.54270489
38.06948616
38.30214736
37.69939549
38.32536308
38.31610073
37.69633192
38.24066762
37.98671928
37.55315696
37.89253908
37.57196528
37.28203858
37.461342
37.14286271
36.98622645
37.04601659
36.79116251
36.73241057
36.70960551
36.99313218
36.8845601
37.09559209
37.44529658
37.23466173
37.58137391
38.07276088
37.65735966
38.2750856
39.05052696
38.15496335
39.35951008
40.25326095
38.56614519
40.30174285
40.06597954
38.53561302
39.69102289
39.04975631
38.19902072
38.82329361
38.18867352
37.70143135
37.99421998
37.46820147
37.21168828
37.31612089
36.92891128
36.81851922
36.81163428
37.17985812
37.03591616
37.31766078
37.8103394
37.53049084
38.01429267
38.84365319
38.24584275
39.24083254
41.59477287
39.45082591
40.69766277
41.23949103
40.16543386
41.94468242
41.94022255
40.64248612
41.3444299
40.64392961
40.13835907
40.36398351
39.1101771
38.39330981
38.77242117
37.9334613
37.57263692
37.70224829
37.13478096
36.97489814
36.94519761
37.40889813
37.23783921
37.58522319
38.23136827
37.9186691
38.50703592
39.68292363
39.0632172
39.78046796
40.41648036
40.08990989
43.13042875
43.83928352
43.27082094
45.58204367
44.09368912
42.65848605
42.38871596
40.2618851
39.39160385
39.73327675
38.49402887
38.06472956
38.16783518
37.39271554
37.19647702
37.09567754
37.64568804
37.46825149
37.85517043
38.62579188
38.3325675
38.95607641
40.36496311
39.86959425
40.69838919
41.52763849
41.28739457
45.53580226
46.78697544
46.55701464
50.3037634
47.41888401
46.20541947
44.33688343
41.42850247
40.57863092
40.71411299
39.07875875
38.64825499
38.65679673
37.66973914
37.46264234
37.24896082
37.87166087
37.70320883
38.10767494
38.9724412
38.71653586
39.34162187
40.90527472
40.50979616
41.38157238
42.30963641
42.13274472
46.65683392
48.22432676
48.13291964
53.00913605
49.77737642
49.02813672
45.83018006
42.4148825
41.72250779
41.56280867
39.59297691
39.22618904
39.09280618
37.92800818
37.73716497
37.39962964
38.08090868
37.92368586
38.33805867
39.27843044
39.05080755
39.67980684
41.37827306
41.02571466
41.94569693
42.95133991
42.78703104
47.0898265
47.80819494
47.97252171
54.24155335
51.11478559
50.74202185
46.80842217
43.10551256