/*--------------------------------*- C++ -*----------------------------------*\
| =========                 |                                                 |
| \\      /  F ield         | OpenFOAM: The Open Source CFD Toolbox           |
|  \\    /   O peration     | Version:  v1912                                 |
|   \\  /    A nd           | Website:  www.openfoam.com                      |
|    \\/     M anipulation  |                                                 |
\*---------------------------------------------------------------------------*/
FoamFile
{
    version     2.0;
    format      ascii;
    class       volScalarField;
    location    "2.93";
    object      k;
}
// * * * * * * * * * * * * * * * * * * * * * * * * * * * * * * * * * * * * * //

dimensions      [0 2 -2 0 0 0 0];


internalField   nonuniform List<scalar> 
12556
(
36.90870302
36.90875473
36.90882804
36.9089349
36.95440164
36.95491624
36.95584437
36.95800412
36.96231005
36.96982848
36.98077507
36.9926401
37.00207804
37.00254735
36.9939934
36.98296633
36.97231046
36.96416672
36.95943434
36.95656965
36.91046439
36.90928415
36.90873469
36.90842323
36.72744712
36.72764437
36.72787004
36.72835749
36.77401495
36.77673745
36.78246409
36.8133743
36.83378755
36.86936544
36.92174887
36.98397005
37.01749127
37.02068179
36.99430977
36.94313762
36.89007922
36.84972811
36.80266195
36.78636588
36.73328087
36.72996007
36.72828066
36.72742261
36.54739401
36.54789762
36.54855605
36.54976053
36.59652693
36.60362586
36.61773076
36.66267969
36.71327254
36.79895455
36.9158302
37.01860407
37.07288127
37.07815291
37.03591374
36.95025767
36.83977379
36.74793909
36.66302069
36.626527
36.56321268
36.55493176
36.55110498
36.54955549
36.36866762
36.36920977
36.37032686
36.37327478
36.42218185
36.43730788
36.46849372
36.5409354
36.64812481
36.81470529
36.993645
37.14463073
37.22678451
37.22418793
37.15041752
37.02111383
36.86148114
36.70361931
36.5561287
36.48544789
36.40002345
36.38529941
36.37791506
36.37501349
36.19192294
36.1927723
36.19499618
36.2007433
36.25404112
36.28171941
36.34217059
36.45943079
36.65941995
36.91048144
37.18777141
37.43391348
37.57210816
37.55344485
37.40809945
37.1896035
36.95208481
36.72609497
36.49949169
36.3698682
36.24970753
36.2211119
36.20790466
36.20274897
36.01676308
36.01799634
36.02182595
36.0322064
36.09362133
36.14124286
36.24723454
36.43618325
36.72460454
37.09888645
37.55974772
38.05811757
38.38240662
38.28658693
37.91586124
37.51521233
37.13694816
36.80699788
36.49992318
36.28537407
36.11201341
36.06183164
36.03997987
36.03135945
35.84431591
35.84656432
35.85341461
35.8701198
35.94271382
36.01767381
36.18739778
36.45452734
36.84760405
37.39953702
38.20065114
39.48126608
40.25164118
40.06493601
38.85140767
38.05316905
37.4347228
36.95118075
36.5311049
36.23675265
35.98648137
35.90780885
35.87353384
35.86007577
35.67535592
35.67885992
35.68945598
35.71579622
35.80400878
35.91423157
36.16105538
36.49833848
37.01418379
37.78500025
39.09498204
41.96138563
42.95934202
40.37146911
38.82238023
37.84466573
37.15520521
36.59475365
36.21506256
35.87552679
35.75995214
35.70930292
35.68962136
35.51240126
35.51814244
35.53467908
35.57466254
35.67696775
35.8324717
36.16057573
36.5655905
37.2070645
38.18767538
39.93344638
44.18348151
47.71371816
42.24409509
39.74799923
38.33292013
37.40168402
36.68044138
36.21569746
35.7785807
35.62058013
35.55007631
35.52291924
35.35672069
35.36484361
35.38772073
35.44255446
35.56421528
35.77095659
36.17384074
36.64870689
37.4043484
38.55129348
40.55721006
45.24334114
51.0261475
43.95335142
40.67672062
38.83719959
37.66128708
36.77809213
36.22551682
35.69663112
35.49301639
35.4002015
35.36441325
35.21098609
35.22263858
35.25422517
35.327952
35.46704395
35.72692334
36.20079236
36.74215178
37.59854903
38.87684856
41.06986342
45.54536533
52.66204426
45.23067596
41.47105631
39.2937027
37.90766508
36.87485551
36.239528
35.62836335
35.3799941
35.26398684
35.21880781
35.07507492
35.08992288
35.1295042
35.22159648
35.38382512
35.69716277
36.23618999
36.84157382
37.78754366
39.18089183
41.55450624
45.21646551
53.36009001
46.07300692
42.07115724
39.66158508
38.11667446
36.96044828
36.25428414
35.57420671
35.28203685
35.143772
35.0889735
34.95028387
34.9694156
35.02044531
35.13394212
35.31195
35.67900121
36.27352337
36.94347483
37.96931385
39.47370241
42.075112
44.66589231
45.61329477
53.16631146
46.55980018
42.46709905
39.91849719
38.27395101
37.02715155
36.26529412
35.52734779
35.19835306
35.03910762
34.97536155
34.83455937
34.85776888
34.91934101
35.05115235
35.26085364
35.68221007
36.34671161
37.06721079
38.17394321
39.81004744
42.66277266
43.19270477
55.51785559
53.1301621
46.7606544
42.65791762
40.06832523
38.37744093
37.0735049
36.26887219
35.48144583
35.12465621
34.94696526
34.87531382
34.72698522
34.75420728
34.82580366
34.97534132
35.20776672
35.67367286
36.38847372
37.1757732
38.36076485
40.10646439
43.04816592
39.20269411
55.55903216
52.51020784
46.6167781
42.66508383
40.11612533
38.43020004
37.09376577
36.26000277
35.43422532
35.05603466
34.8630055
34.78490326
34.62423893
34.65535885
34.73621884
34.9029192
35.15759234
35.66072758
36.41975763
37.28657071
38.57491273
40.4524033
43.25450445
33.82183884
53.63055896
51.3011074
46.14558893
42.50748301
40.07779642
38.43038267
37.08653331
36.22979128
35.3781543
34.98544722
34.78188388
34.69865455
34.52529493
34.56003549
34.64897614
34.83124993
35.10638779
35.63968886
36.43418244
37.36748367
38.79690758
40.82713064
42.97498382
26.70516545
52.14839311
49.84715146
45.39700803
42.21041334
39.99398342
38.3925729
37.04698763
36.17738123
35.3127148
34.91173588
34.6997353
34.61248234
34.42627929
34.46436475
34.56048732
34.7571587
35.05114847
35.60816586
36.42919465
37.40004627
38.94034109
41.06972153
41.99515347
25.06412634
50.80724462
48.42203103
44.62841537
41.86579613
39.83892793
38.29770095
36.9645892
36.09788281
35.23134051
34.82714814
34.61207879
34.52204515
34.32779021
34.36884579
34.47100816
34.67997693
34.98989865
35.56501947
36.40616791
37.40203929
38.96995906
41.05559168
40.12933476
26.53793503
49.49497848
47.28048741
44.03019063
41.53980447
39.63212331
38.15519603
36.85196729
35.99698023
35.13677793
34.73352213
34.51745775
34.4261653
34.22584864
34.26958702
34.37722034
34.59754497
34.9218002
35.51063772
36.3656055
37.37955503
38.95506168
40.85166061
38.45362268
27.93133582
48.27099884
46.45998011
43.5289152
41.2070393
39.40044187
37.98340128
36.71714729
35.87824721
35.029152
34.62934486
34.41384764
34.32201513
34.12345911
34.1695175
34.28173325
34.51125873
34.84672224
35.44605847
36.3108071
37.33768211
38.90483793
40.54148941
36.71444467
29.18500384
47.15052815
45.71624958
43.06228963
40.88034198
39.15874797
37.79476487
36.56622772
35.74540318
34.9113437
34.51725353
34.30349152
34.21168362
34.01575361
34.06394838
34.18065635
34.41915909
34.76515697
35.37261361
36.24449287
37.28056543
38.82395853
40.15174225
34.92088895
30.31436128
46.12554789
45.03265729
42.62685601
40.56555589
38.91527097
37.59740562
36.40410171
35.60191929
34.78364
34.39574868
34.18413351
34.09269205
33.90872024
33.95876651
34.07928451
34.32465298
34.67783237
35.29180284
36.16915244
37.21138724
38.71516672
39.71109737
33.12532132
31.1598761
45.18362545
44.40017206
42.21764844
40.26449913
38.67461098
37.3964334
36.23478049
35.45074679
34.65015964
34.26963206
34.06059071
33.96975161
33.79506435
33.8469389
33.97160965
34.224647
34.58584204
35.20520157
36.08703844
37.13244121
38.57932886
39.22747254
31.38808723
31.69038082
44.31342361
43.8113175
41.83072603
39.97662895
38.43914081
37.19503366
36.06133406
35.29435898
34.50959251
34.13550179
33.92879914
33.83862878
33.68479882
33.73827882
33.86643745
34.12478855
34.49005915
35.11422287
35.99998213
37.04513239
38.41615529
38.71244193
29.69569748
31.9351897
43.50539729
43.25991792
41.46321662
39.70064333
38.20988186
36.99520834
35.88598336
35.13463355
34.36744599
34.00082772
33.79666271
33.70722174
33.56598666
33.62120161
33.7535407
34.01914865
34.39153002
35.02003661
35.90930115
36.94980754
38.22690784
38.17586889
27.99888054
31.97027685
42.7489879
42.74067492
41.11274308
39.43522583
37.98704324
36.79810825
35.71025321
34.97307531
34.21931453
33.85817373
33.65598943
33.5672025
33.45485176
33.51157746
33.64726333
33.91699231
34.29080095
34.92357786
35.81580649
36.84612301
38.01519842
37.6233077
26.37700457
31.85262538
42.03794822
42.24926957
40.77733609
39.17929448
37.77048503
36.60436435
35.5351964
34.81069508
34.07382648
33.71985752
33.51990993
33.43177187
33.33149701
33.38999882
33.5300321
33.80717069
34.18877565
34.82555306
35.71986231
36.73362011
37.78426957
37.05947023
24.86431637
31.62499296
41.36793605
41.78234246
40.45533698
38.93192671
37.55989411
36.41425485
35.36148499
34.64838727
33.92107524
33.57111497
33.37266964
33.28505091
33.22227987
33.28226142
33.42551801
33.70561106
34.08557361
34.72648331
35.62154904
36.61215838
37.53626131
36.48700157
23.45153319
31.33605835
40.7347287
41.33732813
40.14539423
38.69236185
37.35493462
36.22788917
35.18956847
34.48656187
33.77648526
33.43353514
33.23700178
33.1498839
33.09410015
33.15597473
33.30376515
33.59177498
33.98212559
34.62676268
35.52077989
36.48202245
37.27519238
35.90900838
22.16349146
31.01651922
40.13475625
40.91187775
39.84629491
38.45990938
37.15524749
36.04525313
35.01973459
34.32586694
33.61971455
33.27907786
33.0836386
32.99688875
32.99012016
33.05344304
33.20430688
33.49407939
33.87808814
34.52666402
35.41748605
36.3437675
37.00538331
35.33080924
21.04393311
30.6819126
39.56491163
40.50403144
39.55703385
38.23398965
36.96050073
35.86629027
34.85218648
34.16629601
33.48044839
33.14688994
32.9530291
32.86662689
32.85547897
32.92086761
33.07643221
33.37471995
33.77471281
34.4264071
35.311607
36.19801601
36.72784858
34.75600722
20.05521347
30.34268698
39.02335267
40.11253544
39.27695153
38.0141829
36.77041607
35.6909075
34.68707256
34.00857543
33.3174327
32.98460716
32.79161304
32.70544958
32.76106009
32.82781764
32.98628115
33.28549215
33.67104391
34.32615843
35.20307974
36.04532311
36.44320633
34.18591603
19.17583833
30.0099444
38.50936676
39.73670442
39.00567275
37.8001648
36.58472798
35.51895664
34.52457335
33.85230512
33.19004106
32.86400945
32.67215425
32.58620652
32.61658884
32.68563404
32.84897057
33.15644292
33.56928724
34.22629588
35.09203542
35.88615649
36.15207848
33.6203128
18.40254027
29.69188698
38.02308275
39.37641395
38.74299647
37.59169018
36.4032324
35.35039354
34.36515836
33.6989705
33.01381058
32.68843819
32.497487
32.41168304
32.53689647
32.60719923
32.77315802
33.0827489
33.46799
34.12755935
34.97940443
35.7209593
35.85506253
33.0571497
17.74796317
29.39466901
37.56516245
39.03171943
38.48864712
37.38848373
36.22571857
35.18506987
34.21023047
33.54864247
32.91013577
32.58825068
32.39785622
32.31213336
32.35373148
32.42704155
32.5991583
32.9178334
33.37240632
34.03192407
34.86861653
35.55085355
35.55488081
32.49809037
17.18583471
29.12191716
37.1387557
38.70468712
38.24333991
37.19076403
36.05228771
35.02303132
34.06424188
33.40729055
32.68312799
32.36294333
32.17352948
32.08788879
44.00379398
48.25169009
43.34714838
45.14627174
51.92176504
48.71127399
45.5553567
53.6321081
52.2268481
45.27546161
54.31725804
53.74661676
44.70440046
41.41424074
44.62778099
54.60977928
54.35781512
43.70393032
51.41607975
41.75268913
55.09314318
55.07221352
54.63262074
41.57947291
40.21105461
42.84189356
39.97810742
52.12528307
45.03936967
47.18377264
42.68428556
40.94944043
40.41654277
44.14192597
43.22436835
56.0633372
58.06988895
50.72070107
44.81031582
43.25543437
40.94905637
44.80898553
44.25043614
45.46894296
47.45678183
48.42406545
54.81346083
54.29619168
52.52964671
46.35548341
45.2547677
41.4464592
44.9259173
44.84880605
45.4598133
43.78993565
45.80329912
56.32470099
55.43544808
41.95571899
44.77031572
44.92129504
44.9913823
38.92300935
41.41359873
39.85264659
57.1872443
56.9567154
42.55175912
44.26359558
44.73262591
44.34165413
32.61833625
35.54482549
42.09751381
53.47556837
51.80636124
48.47831405
50.43443961
44.14125825
48.04097124
57.98939186
52.46485423
46.12427644
51.42043263
56.61802143
48.54136411
49.22906021
44.7644867
49.93529808
48.63292818
50.5713288
50.08092592
54.38665903
55.84266739
50.51137626
56.94543503
55.98246725
56.82365362
57.05248323
50.26285122
45.99565467
47.29173102
45.51627117
46.94003113
45.08505804
48.5486623
47.05451187
55.26959981
54.90203515
53.16296329
56.49658272
56.74053981
55.93094628
56.45293948
52.97329223
41.55141534
43.66452424
45.42024771
42.68310713
40.10378933
44.96033461
42.82500742
56.91235228
56.42004646
35.70629602
38.74175966
44.95960935
41.33643654
36.73733897
33.38150876
39.95561053
36.95500583
42.52337961
57.43324659
57.21527393
39.69521441
39.95051332
32.55660541
44.29260261
47.96850382
31.92930306
78.82066328
33.28733548
31.94535624
47.23462557
39.74657002
43.05385576
41.26167953
43.0188848
46.96767648
43.6989338
63.91116851
48.12326739
44.64830547
49.30077155
49.13931497
49.97313918
53.31911983
47.33853632
46.64813003
58.87148616
48.90490532
47.30511357
51.23267711
57.73279976
57.52349656
48.96900463
47.30477715
43.30915281
56.38928931
46.34303373
54.24088063
44.64821235
50.42106184
45.48620805
46.84787849
42.99589322
54.11270273
56.98461045
57.0958166
56.77025658
56.96792445
54.04277505
39.42069812
51.49368477
43.74236405
41.95671073
41.46976026
43.6385403
44.42590987
41.94478663
41.94879388
68.89049375
49.02075414
63.65208369
47.10333552
59.93230855
48.14364676
57.65539144
57.79860029
54.47326934
54.44016412
41.0902537
46.56999619
55.99054211
41.5825232
41.97607107
48.40650387
41.84390724
55.87429202
40.27918247
44.52852322
44.16766994
51.97327947
49.80159077
52.37833127
34.53119176
42.25772781
41.73447978
42.91898867
42.44475768
34.672485
60.85522086
56.873502
49.46819803
57.23573909
58.2500199
52.69085153
56.88810123
49.73377799
45.94054994
51.80161745
45.69322465
57.42878044
52.60823532
46.55254523
54.99243317
60.68010709
56.03937921
55.64557011
49.32315319
45.19575366
49.24068446
50.53897668
48.72444809
52.1177129
45.6060969
48.28012628
50.44574368
55.22707502
55.35640869
56.49094653
54.65683739
54.04890875
55.25334301
54.82410535
56.41500413
57.57173252
52.67437606
51.611479
53.81463327
52.98723535
57.56612051
46.09759901
45.97792879
47.9021158
47.80793595
55.45772228
49.12374586
55.38695123
41.6662772
41.48963036
43.95688
43.81208761
42.34375379
46.0117739
56.6700421
42.38742104
40.96476346
37.56876327
43.51374434
43.07433721
44.04191766
43.65110242
37.72599236
39.37231108
35.81307519
35.66627354
38.9152229
38.76773533
60.34005125
39.95788102
54.13285904
52.59538215
41.53257487
41.03574644
32.09726736
32.82641928
41.27028603
42.66568681
32.8252272
75.24979391
43.40895439
65.82802427
32.74781273
44.64553159
48.05284493
40.84900282
63.48739548
40.03702599
40.77053273
42.96509339
43.75221197
44.16018778
42.6441835
34.84683822
41.48751732
56.0593941
54.4119189
54.98284579
55.4533715
41.37654658
45.80171708
55.55522712
54.55133256
40.44487789
57.86083752
57.79052637
51.81393292
43.55258744
43.19967232
45.87123192
47.11666332
43.43059488
43.67304748
56.82164588
60.02880556
58.72219288
58.12502293
54.58891038
44.85877742
45.04984581
48.5618354
47.96112079
54.16147926
44.68914813
46.1004557
45.84321699
46.41732404
46.1825783
44.83591913
44.97312351
44.64205465
40.42362384
33.07091407
38.64248115
38.19564279
71.47730258
53.19016582
52.18490671
57.38531587
61.46369714
60.36175669
54.014516
49.42948199
47.91573433
51.21348444
49.90431818
54.39206822
54.70654302
49.64222015
48.9081053
55.48070612
46.57894434
46.68836647
46.49012927
41.29429664
41.82424651
45.47518959
45.21863078
45.45575158
55.09995923
56.61184028
56.00558511
55.92346057
55.93219245
55.64764914
55.36611349
55.88703499
55.7169423
55.94336772
42.62312079
45.37979454
45.07810956
45.75403366
45.47630219
42.76494676
42.25785597
36.62934976
36.98592217
33.74720673
34.01697414
40.61001171
44.54204581
40.44267816
41.14775046
37.12813332
37.53049279
43.24840696
56.73600259
46.64847982
50.8878013
64.928675
39.79580639
36.29624567
34.39418241
39.51367991
33.41478754
33.66995082
32.87145383
37.96835057
53.23070847
38.35969506
39.65388107
38.79867185
38.05036185
37.62303925
32.40084256
40.70583284
40.99527459
50.0161992
31.87256699
92.0429568
43.09038668
41.28314508
45.57037826
33.10157954
32.06548153
57.22001002
56.52299089
56.04008924
50.00558672
49.84576567
39.93506631
39.92866761
59.21122285
54.29557905
54.18662149
49.44453552
60.11645271
49.58361478
60.60891103
50.42186202
45.25175318
41.29841768
44.65457508
49.52788177
54.96098607
50.4466894
42.37447399
39.82395227
52.85856204
65.02166074
42.50972577
49.72226154
71.80253354
39.83848751
41.39438624
39.54755569
39.68416928
63.67528405
69.25186336
56.54943928
52.68910684
60.54797779
57.39657548
51.94445937
48.74005896
54.41627803
56.38954696
55.63965212
57.11568775
58.07159433
58.3186504
56.91569038
45.9812519
45.08916395
54.52781826
47.80860187
47.770593
45.31399529
47.36334919
47.71796419
54.21088733
47.76871039
46.33375023
41.79834691
42.4192302
41.32503539
50.76498165
49.78772486
44.06435762
47.71896771
46.21659433
49.40334015
48.23384839
43.17005149
43.3797205
40.9617767
40.10041529
39.27107494
38.7762585
33.51026105
35.04674466
39.82143095
39.41054202
59.39293022
58.80297675
58.3692704
52.69325533
53.30700029
51.60598199
52.44926792
58.6831518
55.2562492
53.60600804
53.4366896
53.45175746
53.61731735
55.55075175
55.71989718
50.29905654
51.32113199
58.95253917
59.43208713
61.24690076
60.64703116
57.08024756
62.43739941
63.39150598
63.42716254
62.34201529
61.52148148
63.6845986
62.17205653
54.30262139
60.23123823
61.33411468
43.72601839
49.42758614
48.51090801
50.28772338
49.6750829
44.34142652
47.24102325
46.61175274
48.19191668
47.45763574
50.08235301
52.63213261
52.07149031
53.30318275
52.8110459
50.56755221
46.67698234
51.09649799
50.4942421
51.8795217
51.29449239
47.06671974
50.70817632
49.79256346
54.83179073
55.4947402
52.30987614
51.10407517
40.76997846
40.25391817
41.66538274
40.95089365
39.43135287
38.92677093
40.09057088
39.58174944
45.60660113
45.01387427
46.408743
45.80975027
43.83150626
42.13255715
44.79797499
44.20371813
44.05594445
43.59651686
45.79105262
44.4593549
49.3225648
43.79601002
44.83849319
43.47725823
43.50351448
36.15222596
36.48835835
42.11467608
34.21385066
33.9892402
34.53869153
34.30846266
33.87328841
40.82654388
34.14065645
35.8098595
38.42243756
40.16629847
44.40086051
38.01164083
35.55400729
38.82527004
38.05555758
34.93138109
34.64406425
35.37993967
35.0419442
43.38879891
37.67484848
38.16058862
54.93518299
41.35259749
53.80608949
48.73560698
53.46501905
41.12461747
67.47776935
39.59770775
64.97518289
56.66599815
36.1686622
35.03219729
33.10836889
33.34311008
39.36661653
38.22638933
32.87907397
33.05365473
60.0351309
32.34535245
37.42189243
36.70076144
75.80249448
82.48453202
31.81015114
86.63397867
67.69458256
41.44021085
33.03241839
74.63616329
47.80996907
84.9868928
50.46250291
32.19823223
42.49115743
40.41366483
39.09409653
57.8897007
57.4040638
53.7903753
47.90052883
47.51432243
57.86684486
40.17166621
41.41721075
39.79788022
57.107045
57.13890909
54.49146866
45.82700583
45.13469041
48.70714917
54.58693897
45.70614893
45.8715758
41.38982185
41.74629743
44.20832822
50.69416294
54.57601957
57.44368435
47.90681922
47.03622195
46.94082135
47.09563665
47.05953554
48.04373626
43.08141318
41.47183805
41.70644271
51.58961828
53.28746892
57.10192729
40.34385124
39.95083016
35.16880039
58.27511944
59.98217084
53.89358385
46.89867072
46.74683547
46.7638995
46.58082462
43.42364373
44.08738524
44.41095848
45.40448655
47.39688305
36.57959332
40.88399096
40.47309115
49.28789388
46.69545683
40.62099218
32.3850696
32.42932204
33.53639617
44.70631857
61.43028641
54.46297834
39.47972242
45.85635046
43.61893075
31.90435086
33.22224967
32.32925916
32.36017798
31.97314897
64.55264226
49.72002213
42.96778983
44.79133258
57.97354367
40.14217003
40.29561973
49.25483294
55.61280051
47.38979654
45.7628483
47.87235595
45.23639024
40.78567783
40.20686848
68.50793833
71.37105617
73.17832796
61.0760694
70.01005624
43.10549522
43.39503542
46.40604737
65.70530496
60.7733893
58.13520044
68.78593434
65.79752491
41.23369137
44.46231211
43.36807
51.28878071
50.68455456
44.15234652
51.94820598
51.10054547
41.35283062
48.76575494
42.23889937
42.5352794
47.6698487
40.71227511
41.53593354
60.53328713
61.32858637
57.55738403
57.63568067
56.43689198
56.27726836
53.29244913
54.37676927
53.97503543
56.09284295
55.86496676
56.43057505
48.73579177
49.96481888
55.1652923
56.58001048
62.41990434
58.55006801
62.53234125
62.89750914
60.01011401
41.98252189
44.30902878
43.75830654
48.16798009
47.92049858
44.94543263
41.54007167
41.28582972
43.29725222
42.92849045
49.17090325
51.49140749
51.14531398
53.60226186
53.24540244
51.58027448
45.91798576
48.80994559
48.517872
50.79692876
50.45713021
47.86617467
42.70157512
43.23854649
46.4645014
45.59824853
41.99426248
42.52637937
46.38403513
46.90952443
48.18825472
39.81445822
39.65866745
41.06491974
40.86465092
37.36330927
39.42663862
39.2974257
47.49958654
45.64964582
46.20176604
48.66991912
48.35379057
42.96928643
43.4155914
48.8900315
48.28360157
48.7098594
55.16958419
45.61089314
46.92636215
41.39713963
41.01566135
36.92974194
38.14955139
41.85547233
41.51139532
33.71856745
33.78731
35.92698499
35.53305993
33.53509441
33.6294273
60.5079923
32.16546369
33.28455719
32.51418426
110.3224282
32.15625666
41.35488778
62.29269323
54.79923888
32.04862048
32.085592
32.89106401
73.39678308
79.57564012
76.7755726
59.35551985
32.6576981
31.97918914
32.01164909
42.90267715
39.9815436
39.60260781
57.73452902
56.88958753
46.44189814
44.83386837
40.40404112
56.87201422
57.36512733
60.9570805
42.49830432
55.88537478
50.43904919
56.22230776
55.02796163
43.90188589
44.75838438
45.5048614
50.27759809
54.19258969
54.59480057
53.56786335
53.87449404
59.64586024
58.85373675
59.16346784
58.20077797
58.52165922
59.15688688
48.36134746
47.64165321
47.93040793
47.21902202
47.41289606
48.31456063
61.00818675
59.89479293
59.91843186
59.467425
59.72520569
60.68334822
49.23324738
48.80568348
49.1246815
48.20358876
48.50930862
49.0153448
52.83418809
52.98804889
52.07904482
52.26630221
36.72650334
39.13026352
38.99544356
33.84111923
35.65574658
35.5466404
36.00146172
35.7868705
33.93073918
61.77316278
63.35197042
55.45328919
62.88613685
32.8278653
32.77646766
32.9553351
32.90088674
32.45473605
33.84119182
32.48549403
32.62661811
33.5062569
35.27364741
35.17342704
35.45615762
35.36249496
33.58222253
33.09162891
33.0133842
33.98517655
33.25637572
32.91704268
62.69932083
60.44163491
47.72142558
63.28266864
34.73692051
33.78720454
39.03629654
32.45913837
34.24440885
34.10002714
31.87168539
90.69783021
91.82819876
63.03550417
83.06430791
73.09924944
32.23516438
32.29020142
33.16783061
32.01532211
61.62604714
67.37184782
61.88068878
64.29907569
59.81964218
51.30220049
66.09227821
60.69348358
50.50206446
50.12595134
59.29544277
46.97381652
51.50432606
55.22704126
52.29790629
56.99446314
51.56799435
54.84696503
61.95438437
63.48930973
55.82616861
60.73065836
64.6403281
54.67878356
56.14966092
53.85701295
58.46159147
67.95645085
67.90570572
66.10684713
44.20873085
59.44432862
53.00548187
66.59058423
68.0707559
46.92970272
50.40826454
54.83775814
70.44268622
57.88342143
44.96989019
47.03123626
64.8540278
61.23865324
65.25685325
59.35696116
62.20493211
64.90899342
66.35144121
65.68653041
55.81398676
56.12608855
56.45907582
55.3273571
55.55095457
55.50013092
57.81502048
57.53201719
57.85908276
56.84275186
57.16865565
57.37363542
45.67397662
47.89585889
47.87508562
47.70035681
47.83060504
46.08594145
48.15303588
47.82950818
47.33329068
48.11155926
48.50858457
47.13049832
47.28547626
47.18833517
47.78581127
47.56952251
46.66375113
50.97155326
47.18935346
41.46637084
52.47662454
52.43159174
52.11287461
43.14409329
50.98805827
50.50406081
41.94333017
42.02935379
45.95480663
60.01631025
58.12332956
55.19742211
54.79827247
53.8702394
56.10242529
55.67194646
55.39626954
63.66238789
63.35349641
57.9886841
64.03470932
66.19925726
59.87013886
63.43660549
63.63108189
61.0730204
59.79868553
59.7209389
59.82090562
59.83967546
60.85461751
62.85578847
63.06344814
62.20418242
65.43470561
65.35056269
65.30046004
65.43630503
62.05792182
63.86826336
64.79399917
66.74848077
63.91824898
46.72161843
46.55462689
43.68514624
44.50546822
47.52281329
47.34812769
42.05772486
41.78799378
42.61989667
42.32877049
52.18749939
51.83649425
49.60852467
51.06853978
52.89322329
52.54014053
49.46098251
49.14977794
46.33053918
47.44249672
50.11608338
49.79147021
50.50696347
50.09274617
50.43362356
49.43358407
49.76911263
50.08090077
51.8102174
51.34154693
51.59596898
50.76410739
51.07790883
51.51620121
40.59212413
37.57680284
37.73953162
37.28309143
37.43387968
40.42416542
41.36897015
38.27562037
38.51616691
37.89959295
38.08033601
41.14708387
39.25056061
36.42313496
36.57913482
36.16793942
36.3208207
39.11909089
39.91923071
36.99155125
37.14432107
36.69816131
36.85808051
39.75904629
40.21946593
40.04121136
45.41073873
43.23479548
43.43310134
42.82552788
43.00630787
45.20392396
40.63778324
40.44282487
38.59398243
38.49225216
43.54779391
41.42067011
41.49135845
38.87088988
39.36429669
42.80886077
44.61984431
42.43057629
42.57997827
42.02914935
42.13634635
44.37342055
39.04588769
38.94731345
47.99300826
47.91888879
48.8506634
44.15692443
45.70877672
44.09335985
48.01243828
48.28315948
47.88639596
47.98147212
44.47854888
43.36867165
45.78335053
44.510649
47.66066757
47.72678435
43.36039114
36.22068372
38.52455387
38.39066908
38.83702444
38.71223156
36.40844944
34.15501501
34.04327845
34.46537918
34.36566546
33.82599449
33.75260126
34.37025126
37.09381798
36.40626724
38.08829806
37.81377503
35.53178611
36.2757327
34.7519511
35.46972796
35.83505072
38.59042067
35.91534674
36.0842387
35.61890398
35.83894802
38.51321805
34.8381799
34.72925794
35.25898444
35.14223621
52.90725488
42.66522996
43.63236131
41.11764425
41.80847073
53.61475838
52.36375748
51.81184461
44.89248956
48.03377284
53.92857096
63.47743962
47.3269336
50.06966106
42.75941763
44.97950723
64.68497874
32.62237237
32.56501531
32.72206984
32.68034743
33.08429191
33.38815131
35.29618201
32.36540292
32.32806794
32.50363985
32.4414415
33.19115789
34.88927452
34.77561526
35.0826276
34.97615902
33.25476269
32.94115088
34.4790702
34.27313818
34.69576371
34.56492797
32.98515585
59.1468703
33.99056705
33.72075346
32.20435712
74.29130122
97.62964972
102.765118
97.56708858
98.17866418
79.05015926
31.99129057
77.98834596
57.60051647
61.73958065
32.95843066
32.11783926
32.18112292
74.44147685
82.40613094
80.33140678
66.7116278
73.00205497
87.42910726
82.80304383
54.66537604
78.69121298
69.25591668
32.15789792
31.9417554
32.41755284
36.69820167
36.72699667
36.82717499
36.73924782
36.78974285
36.85834319
36.80945324
36.8850192
36.9066051
36.90978374
36.98321553
36.96671202
37.00278372
37.04630094
37.01146202
37.05269392
37.06021952
37.02196956
37.05803441
37.03379861
37.00637492
37.02079104
36.96504983
36.95833643
36.94350519
36.86782606
36.90296619
36.84551374
36.78437421
36.85886583
36.56804887
36.62980669
36.69798207
36.65731643
36.76480071
36.77458683
36.80376941
36.92554285
36.88761415
36.96516262
37.07291853
36.99689321
37.10187597
37.16442273
37.06578856
37.17549692
37.1812191
37.08077497
37.17520029
37.13246512
37.05058639
37.11136608
37.02846396
36.9746797
36.99583705
36.88810406
36.8679891
36.85076034
36.74067073
36.76649104
36.47571724
36.60128695
36.61494996
36.6516651
36.818198
36.77098565
36.8780457
37.06397386
36.9496864
37.1253606
37.29459483
37.11248693
37.34064543
37.4417152
37.21330648
37.46189986
37.46638079
37.23004903
37.44619647
37.36125382
37.1751434
37.32417243
37.18765831
37.05723597
37.13592285
36.97501264
36.90298462
36.92136318
36.76597193
36.74183334
36.43601808
36.62945649
36.60311499
36.70215799
36.9494647
36.84390134
37.04143417
37.34163874
37.11841524
37.4460061
37.76414528
37.37880578
37.85678813
38.081157
37.54557835
38.10875465
38.10640884
37.56239495
38.02995526
37.83364251
37.45459257
37.75621205
37.50280505
37.24869079
37.41542814
37.16129178
37.01122021
37.08045461
36.85401493
36.78138125
36.44734221
36.70938937
36.6450938
36.81232153
37.17420902
36.99697258
37.31455051
37.81323749
37.43752224
38.00984154
38.73065903
37.93124333
39.0007277
39.88915896
38.32544182
39.91053238
39.6766971
38.30014251
39.32432938
38.76102785
38.01470792
38.56882446
38.05030666
37.61559241
37.89427121
37.47483326
37.22680843
37.34906796
37.01077657
36.88582028
36.48531923
36.83193985
36.73651115
36.97034527
37.476423
37.24295207
37.68457171
38.4951791
37.96711877
38.86093688
40.94012558
39.0788482
40.19528039
40.80004449
39.77626551
41.43912759
41.47520557
40.24772292
40.8711239
40.18749955
39.71074696
39.94111483
38.88454394
38.23278472
38.60839395
37.92260258
37.57510408
37.7307607
37.23946926
37.06100149
36.54679075
36.98229006
36.86642179
37.15791472
37.81343241
37.5587646
38.08990661
39.21521659
38.68345431
39.32534702
39.89072856
39.60809336
42.33669646
43.00237631
42.5247053
44.78161368
43.38452991
42.05821339
41.77616201
39.94761577
39.13559746
39.51049772
38.48222538
38.05622771
38.2072643
37.5251769
37.30633682
36.62685184
37.14629949
37.0228149
37.35514605
38.13512271
37.89613674
38.46450954
39.79695152
39.37441914
40.10635991
40.83602703
40.63295144
44.35243717
45.49379544
45.30225064
49.18836325
46.49062301
45.35831992
43.56514546
41.04731633
40.22691374
40.45277435
39.07514292
38.62957523
38.71460556
37.83524265
37.60158495
36.71830901
37.3132471
37.18796345
37.55053639
38.42998675
38.21122692
38.79818462
40.26945256
39.92207372
40.69257351
41.50659029
41.3529916
45.32967935
46.60483151
46.58165069
51.80115359
48.71181507
48.0057462
44.95742545
42.00078702
41.30558066
41.28659136
39.62273023
39.21908549
39.18672108
38.13145094
37.90970827
36.81699115
37.47898336
37.35480989
37.74094488
38.7050563
38.50014936
39.10622349
40.70225398
40.37794633
41.19722519
42.08315796
41.93541104
45.52430252
46.0832482
46.24181393
53.01505891
49.97028559
49.62070625
45.90235447
42.72934213