/*--------------------------------*- C++ -*----------------------------------*\
| =========                 |                                                 |
| \\      /  F ield         | OpenFOAM: The Open Source CFD Toolbox           |
|  \\    /   O peration     | Version:  v1912                                 |
|   \\  /    A nd           | Website:  www.openfoam.com                      |
|    \\/     M anipulation  |                                                 |
\*---------------------------------------------------------------------------*/
FoamFile
{
    version     2.0;
    format      ascii;
    class       pointVectorField;
    location    "2.93";
    object      pointDisplacement;
}
// * * * * * * * * * * * * * * * * * * * * * * * * * * * * * * * * * * * * * //

dimensions      [0 1 0 0 0 0 0];


internalField   nonuniform List<vector> 
26316
(
(0 0 0)
(0 0 0)
(0 0 0)
(0 0 0)
(0 0 0)
(0 0 0)
(0 0 0)
(0 0 0)
(0 0 0)
(0 0 0)
(0 0 0)
(0 0 0)
(0 0 0)
(0 0 0)
(0 0 0)
(0 0 0)
(0 0 0)
(0 0 0)
(0 0 0)
(0 0 0)
(0 0 0)
(0 0 0)
(0 0 0)
(0 0 0)
(0 0 0)
(0 0 0)
(0 0 0)
(0 0 0)
(0 0 0)
(0 0 0)
(0 0 0)
(0 0 0)
(0 0 0)
(0 0 0)
(0 0 0)
(0 0 0)
(0 0 0)
(0 0 0)
(0 0 0)
(0 0 0)
(0 0 0)
(0 0 0)
(0 0 0)
(0 0 0)
(0 0 0)
(0 0 0)
(0 0 0)
(0 0 0)
(0 0 0)
(0 0 0)
(0 0 0)
(0 0 0)
(0 0 0)
(0 0 0)
(0 0 0)
(0 0 0)
(0 0 0)
(0 0 0)
(0 0 0)
(0 0 0)
(0 0 0)
(0 0 0)
(0 0 0)
(0 0 0)
(0 0 0)
(0 0 0)
(0 0 0)
(0 0 0)
(0 0 0)
(0 0 0)
(0 0 0)
(0 0 0)
(0 0 0)
(0 0 0)
(0 0 0)
(0 0 0)
(0 0 0)
(0 0 0)
(0 0 0)
(0 0 0)
(0 0 0)
(0 0 0)
(0 0 0)
(0 0 0)
(0 0 0)
(0 0 0)
(0 0 0)
(0 0 0)
(0 0 0)
(0 0 0)
(0 0 0)
(0 0 0)
(0 0 0)
(0 0 0)
(0 0 0)
(0 0 0)
(0 0 0)
(0 0 0)
(0 0 0)
(0 0 0)
(0 0 0)
(0 0 0)
(0 0 0)
(0 0 0)
(0 0 0)
(0 0 0)
(0 0 0)
(0 0 0)
(0 0 0)
(0 0 0)
(0 0 0)
(0 0 0)
(0 0 0)
(0 0 0)
(0 0 0)
(0 0 0)
(0 0 0)
(0 0 0)
(0 0 0)
(-6.496590315e-07 6.862990845e-06 2.775557562e-17)
(0 0 0)
(0 0 0)
(-3.58386788e-07 7.687568345e-05 3.330669074e-16)
(1.655074586e-06 6.534983445e-05 2.775557562e-16)
(0 0 0)
(0 0 0)
(0 0 0)
(0 0 0)
(0 0 0)
(0 0 0)
(0 0 0)
(0 0 0)
(0 0 0)
(0 0 0)
(0 0 0)
(0 0 0)
(0 0 0)
(0 0 0)
(0 0 0)
(0 0 0)
(0 0 0)
(0 0 0)
(0 0 0)
(0 0 0)
(0 0 0)
(0 0 0)
(0 0 0)
(0 0 0)
(0 0 0)
(0 0 0)
(0 0 0)
(0 0 0)
(0 0 0)
(0 0 0)
(0 0 0)
(0 0 0)
(0 0 0)
(0 0 0)
(0 0 0)
(0 0 0)
(0 0 0)
(0 0 0)
(0 0 0)
(0 0 0)
(0 0 0)
(0 0 0)
(0 0 0)
(0 0 0)
(0 0 0)
(0 0 0)
(0 0 0)
(0 0 0)
(0 0 0)
(0 0 0)
(0 0 0)
(0 0 0)
(0 0 0)
(0 0 0)
(0 0 0)
(0 0 0)
(0 0 0)
(0 0 0)
(0 0 0)
(0 0 0)
(0 0 0)
(-4.047281001e-05 9.855326381e-05 4.857225733e-16)
(-0.0002328900368 0.000618237318 3.080868893e-15)
(-3.045805646e-06 8.336260955e-06 4.163336342e-17)
(-0.0004419984838 0.001657850555 7.993605777e-15)
(-0.001096634998 0.003998062437 1.990074772e-14)
(-0.001300323693 0.005415844396 2.696454171e-14)
(-0.0006071587925 0.002599298908 1.254552018e-14)
(-0.0007370440597 0.00547758269 2.645106356e-14)
(-0.001288277438 0.009357060897 4.658773367e-14)
(-0.001071592401 0.01033883675 5.147271498e-14)
(-0.0006334121148 0.006233535228 3.008704397e-14)
(-2.271833501e-05 0.007289323699 3.519406988e-14)
(-2.31849026e-05 0.01168388509 5.820344207e-14)
(0.0003661013996 0.0115320282 5.745404152e-14)
(0.0002121538746 0.007169544843 3.462508058e-14)
(0.0006999387106 0.005495045821 2.653433029e-14)
(0.001242392913 0.009376333014 4.672651155e-14)
(0.001359556454 0.008192145655 4.082845173e-14)
(0.0007354137364 0.004599899064 2.221833828e-14)
(0.0004318719256 0.001678483808 8.10462808e-15)
(0.001072413748 0.004029708744 2.009503675e-14)
(0.00080642523 0.002692499178 1.341982081e-14)
(0.000252230646 0.0008703404904 4.204969706e-15)
(0 0 0)
(4.245943371e-05 0.0001061323475 5.273559367e-16)
(0 0 0)
(0 0 0)
(0 0 0)
(0 0 0)
(0 0 0)
(0 0 0)
(0 0 0)
(0 0 0)
(0 0 0)
(0 0 0)
(0 0 0)
(0 0 0)
(0 0 0)
(0 0 0)
(0 0 0)
(0 0 0)
(0 0 0)
(0 0 0)
(0 0 0)
(0 0 0)
(0 0 0)
(0 0 0)
(0 0 0)
(0 0 0)
(0 0 0)
(0 0 0)
(0 0 0)
(0 0 0)
(0 0 0)
(0 0 0)
(0 0 0)
(0 0 0)
(0 0 0)
(0 0 0)
(0 0 0)
(0 0 0)
(0 0 0)
(0 0 0)
(0 0 0)
(0 0 0)
(0 0 0)
(0 0 0)
(0 0 0)
(0 0 0)
(0 0 0)
(0 0 0)
(-0.0001130335661 0.0001809200256 1.026956298e-15)
(-0.0006173499906 0.001054093229 6.009082121e-15)
(-0.0001462615548 0.0002586023358 1.415534356e-15)
(-0.002084263251 0.004612464484 2.536859611e-14)
(-0.003331119371 0.007130446801 4.060640713e-14)
(-0.004245299511 0.009930811311 5.651035195e-14)
(-0.002863072027 0.006920140404 3.803901638e-14)
(-0.004432980638 0.01481286293 8.135159213e-14)
(-0.005854074514 0.01896905348 1.078581668e-13)
(-0.005873414716 0.02182287014 1.24067423e-13)
(-0.004545293944 0.01740112337 9.556244684e-14)
(-0.003513288363 0.02380555553 1.307565167e-13)
(-0.004347270271 0.02871529819 1.633415625e-13)
(-0.003401370852 0.03026849275 1.722372245e-13)
(-0.002778475822 0.02527831985 1.388889004e-13)
(6.659477061e-05 0.02722012387 1.497274527e-13)
(0.0001298650175 0.03228994021 1.840194663e-13)
(0.00136556496 0.03205010227 1.827427099e-13)
(0.001071358733 0.02699476701 1.485478407e-13)
(0.003586764787 0.02378589517 1.310340725e-13)
(0.004521167036 0.02866240131 1.636607516e-13)
(0.005232172787 0.02670844788 1.525585214e-13)
(0.004118687435 0.02195191497 1.209587985e-13)
(0.004414798996 0.01483551314 8.176792576e-14)
(0.005874078849 0.01896303541 1.083577672e-13)
(0.005554007512 0.01598111472 9.131584378e-14)
(0.00406574753 0.01216938802 6.707134848e-14)
(0.002068947297 0.004664057075 2.568778523e-14)
(0.003310488293 0.007186872965 4.103661855e-14)
(0.002338814459 0.004692819875 2.678413047e-14)
(0.001298063725 0.002703146495 1.487698853e-14)
(0 0 0)
(0.0001122214238 0.0001828795528 1.040834086e-15)
(0 0 0)
(0 0 0)
(0 0 0)
(0 0 0)
(0 0 0)
(0 0 0)
(0 0 0)
(0 0 0)
(0 0 0)
(0 0 0)
(0 0 0)
(0 0 0)
(0 0 0)
(0 0 0)
(0 0 0)
(0 0 0)
(0 0 0)
(0 0 0)
(0 0 0)
(0 0 0)
(0 0 0)
(0 0 0)
(0 0 0)
(0 0 0)
(0 0 0)
(0 0 0)
(0 0 0)
(0 0 0)
(0 0 0)
(0 0 0)
(0 0 0)
(0 0 0)
(0 0 0)
(0 0 0)
(0 0 0)
(0 0 0)
(0 0 0)
(0 0 0)
(0 0 0)
(-4.863234907e-05 5.581682163e-05 3.747002708e-16)
(0 0 0)
(-0.002068791313 0.002957544683 1.890154699e-14)
(-0.003074072202 0.004212519717 2.804700916e-14)
(-0.004807408986 0.007046994911 4.687916721e-14)
(-0.003531084606 0.005393718562 3.444466934e-14)
(-0.008045537819 0.01547218943 9.856004901e-14)
(-0.009757655381 0.01804818299 1.196959198e-13)
(-0.01089352921 0.02205447978 1.46174739e-13)
(-0.009171267487 0.01929933101 1.228600555e-13)
(-0.01036753752 0.03034208016 1.92998395e-13)
(-0.01180694019 0.03326361595 2.202960037e-13)
(-0.01124482432 0.03638928759 2.410294186e-13)
(-0.009973038474 0.03352136848 2.132322097e-13)
(-0.006744205525 0.04064570129 2.588901316e-13)
(-0.007433855186 0.04316759083 2.863820292e-13)
(-0.005648950914 0.0445294526 2.956523915e-13)
(-0.005154017355 0.04213471716 2.685490719e-13)
(0.0003501120335 0.04396541538 2.809280586e-13)
(0.0004053267234 0.0461484328 3.073097332e-13)
(0.002475439359 0.04591974703 3.060884879e-13)
(0.002240812556 0.04372211946 2.796235465e-13)
(0.007306255247 0.04043652872 2.592648318e-13)
(0.008107534498 0.04289558655 2.867706073e-13)
(0.009603131252 0.04105336005 2.746830541e-13)
(0.008604899264 0.03847583623 2.468719673e-13)
(0.01060620206 0.03015022352 1.936784066e-13)
(0.01213135976 0.0329617037 2.208927485e-13)
(0.0121711078 0.02951590715 1.978278652e-13)
(0.01052489441 0.02670086494 1.715294573e-13)
(0.008016155509 0.01535671665 9.858780459e-14)
(0.009993807739 0.01823934847 1.222910662e-13)
(0.008608589513 0.01451817256 9.736655926e-14)
(0.006821367423 0.01205264802 7.73964226e-14)
(0.002361325521 0.003403408304 2.184363801e-14)
(0.003529588751 0.004872235628 3.261280135e-14)
(0.001991157648 0.002591396315 1.733335697e-14)
(0.001137744515 0.001545346499 9.908740495e-15)
(0 0 0)
(0 0 0)
(0 0 0)
(0 0 0)
(0 0 0)
(0 0 0)
(0 0 0)
(0 0 0)
(0 0 0)
(0 0 0)
(0 0 0)
(0 0 0)
(0 0 0)
(0 0 0)
(0 0 0)
(0 0 0)
(0 0 0)
(0 0 0)
(0 0 0)
(0 0 0)
(0 0 0)
(0 0 0)
(0 0 0)
(0 0 0)
(0 0 0)
(0 0 0)
(0 0 0)
(0 0 0)
(0 0 0)
(0 0 0)
(0 0 0)
(0 0 0)
(0 0 0)
(0 0 0)
(0 0 0)
(-0.0002247704838 0.0002138075312 1.637578961e-15)
(-0.0005111456102 0.0004625482778 3.719247132e-15)
(-0.00181521437 0.001730110339 1.391942117e-14)
(-0.00122043747 0.001222339384 9.353628982e-15)
(-0.007164511628 0.008556546747 6.529499164e-14)
(-0.008474565206 0.009639009336 7.724376694e-14)
(-0.0109173116 0.01327568632 1.062205879e-13)
(-0.009466432273 0.01208544348 9.209299989e-14)
(-0.01490429748 0.02400100301 1.821043316e-13)
(-0.01645736296 0.02520404477 2.009364897e-13)
(-0.01732528749 0.0290265299 2.311900671e-13)
(-0.01583864377 0.02793544206 2.116917752e-13)
(-0.01557400775 0.03836798069 2.901706653e-13)
(-0.01653929497 0.03863767166 3.069489107e-13)
(-0.01523485358 0.04089390332 3.249067682e-13)
(-0.01439566092 0.04072048732 3.080730115e-13)
(-0.008951654452 0.04538369387 3.441691376e-13)
(-0.009263113647 0.04440526186 3.536893001e-13)
(-0.006900611405 0.0447759153 3.570616025e-13)
(-0.006708429849 0.04606556861 3.497341305e-13)
(0.0004216481178 0.04661766497 3.552991235e-13)
(0.0003728048848 0.04483088135 3.589628594e-13)
(0.002807599494 0.04475938003 3.589073483e-13)
(0.002824956929 0.04649026905 3.547995231e-13)
(0.009802266282 0.04500197844 3.448907826e-13)
(0.01005899792 0.04396055077 3.541750226e-13)
(0.0122586183 0.0431683237 3.483463518e-13)
(0.01185809613 0.04388128231 3.367722767e-13)
(0.01612968948 0.03775758811 2.907951657e-13)
(0.01714672991 0.03796525276 3.080175004e-13)
(0.01795484831 0.03539574885 2.876726635e-13)
(0.01671466803 0.03477658956 2.682853939e-13)
(0.01539393382 0.02425362654 1.872807465e-13)
(0.0169651886 0.02537850268 2.06279438e-13)
(0.01552851222 0.02152596157 1.748323708e-13)
(0.01392758314 0.02033463288 1.56902269e-13)
(0.007572861672 0.009076292942 6.979139489e-14)
(0.008926835068 0.01016139501 8.222589276e-14)
(0.006433332831 0.006912166375 5.585809593e-14)
(0.005270584412 0.005961523236 4.578282198e-14)
(0.000347733095 0.0003358204277 2.581268532e-15)
(0.0005973903075 0.0005482100937 4.413136523e-15)
(1.516470661e-05 1.325643097e-05 1.110223025e-16)
(0 0 0)
(0 0 0)
(0 0 0)
(0 0 0)
(0 0 0)
(0 0 0)
(0 0 0)
(0 0 0)
(0 0 0)
(0 0 0)
(0 0 0)
(0 0 0)
(0 0 0)
(0 0 0)
(0 0 0)
(0 0 0)
(0 0 0)
(0 0 0)
(0 0 0)
(0 0 0)
(0 0 0)
(0 0 0)
(0 0 0)
(0 0 0)
(0 0 0)
(0 0 0)
(0 0 0)
(0 0 0)
(0 0 0)
(-2.139436093e-05 1.308099812e-05 1.387778781e-16)
(-5.837938564e-07 3.817397527e-07 0)
(0 0 0)
(-0.001604584077 0.001229234527 1.168509733e-14)
(-0.002025210597 0.001457872883 1.475208844e-14)
(-0.004200797394 0.00318785969 3.22103455e-14)
(-0.003584049363 0.002893782275 2.747801986e-14)
(-0.01162646481 0.01121984115 1.059291543e-13)
(-0.01265505078 0.01148287287 1.152689055e-13)
(-0.01536375512 0.01490795218 1.493388746e-13)
(-0.01455565234 0.01502683542 1.415673134e-13)
(-0.02007471027 0.02607796869 2.446376435e-13)
(-0.0209063867 0.02551974051 2.54476995e-13)
(-0.02143884742 0.02857989728 2.848415948e-13)
(-0.02068601359 0.02935521822 2.752381656e-13)
(-0.01859509206 0.03633411903 3.408662241e-13)
(-0.01899242074 0.03477316578 3.470002063e-13)
(-0.01706365008 0.03563919704 3.560068906e-13)
(-0.01681547183 0.03755844123 3.524819325e-13)
(-0.009722349256 0.03820036229 0)
(-0.00988203461 0.03584163964 0)
(-0.008654885184 0.03583018921 0)
(-0.007360395706 0.03587033177 0)
(-0.007270488443 0.03703766065 0)
(-0.007228998323 0.03817791154 0)
(0.000189663901 0.03802715124 0)
(0.0001594601828 0.03689302763 0)
(0.001401962076 0.03686093234 0)
(0.001425433857 0.03799512851 0)
(0.0101782838 0.03766812494 0)
(0.01018434464 0.03650233726 0)
(0.01019873721 0.03531826894 0)
(0.01143377177 0.03524972205 0)
(0.01265146213 0.03520410379 0)
(0.01265997487 0.03754463885 0)
(0.01908458605 0.03564550281 3.432254481e-13)
(0.01936996896 0.03402358667 3.490679967e-13)
(0.02083869294 0.03261555022 3.350791866e-13)
(0.02039658127 0.03397127412 3.274602811e-13)
(0.02059654672 0.02596089058 2.504663144e-13)
(0.02133359887 0.02521104803 2.595285098e-13)
(0.02024825842 0.02214902921 2.279010314e-13)
(0.01933266912 0.02256285111 2.175759573e-13)
(0.01246710069 0.01193532442 1.146860384e-13)
(0.0136344407 0.0122411382 1.254135684e-13)
(0.01074118077 0.009108489135 9.311995619e-14)
(0.009674106699 0.008745689865 8.387734951e-14)
(0.002153350286 0.001667784742 1.591782262e-14)
(0.002691630978 0.001956917836 1.988686993e-14)
(0.0009642523678 0.0006687705699 6.786238238e-15)
(0.0006560611056 0.0004846015034 4.62130334e-15)
(0 0 0)
(0 0 0)
(0 0 0)
(0 0 0)
(0 0 0)
(0 0 0)
(0 0 0)
(0 0 0)
(0 0 0)
(0 0 0)
(0 0 0)
(0 0 0)
(0 0 0)
(0 0 0)
(0 0 0)
(0 0 0)
(0 0 0)
(0 0 0)
(0 0 0)
(0 0 0)
(0 0 0)
(0 0 0)
(0 0 0)
(0 0 0)
(0 0 0)
(0 0 0)
(0 0 0)
(0 0 0)
(-0.000192773872 8.516330539e-05 1.276756478e-15)
(-0.0001098564444 5.319022233e-05 7.21644966e-16)
(-8.987214941e-05 4.731431784e-05 5.967448757e-16)
(-0.00290992484 0.001688174177 2.119138198e-14)
(-0.003017920622 0.001610447719 2.19685381e-14)
(-0.005587229874 0.003145282186 4.27990976e-14)
(-0.005439533117 0.003328513739 4.167499679e-14)
(-0.01462240811 0.01071026919 1.32963085e-13)
(-0.01485732239 0.01001572774 1.350031198e-13)
(-0.01768442603 0.01274932675 1.713906794e-13)
(-0.01743322105 0.01365451149 1.690730889e-13)
(-0.0226005558 0.02222362435 2.73836509e-13)
(-0.0228402745 0.02066565417 2.763345108e-13)
(-0.0231315228 0.02282136107 3.050615316e-13)
(-0.02291371721 0.0245785774 3.027161855e-13)
(-0.01963021736 0.02876474261 3.5513259e-13)
(-0.01973971143 0.02655010753 3.560068906e-13)
(-0.0174796471 0.02671445088 0)
(-0.01741506281 0.02902243442 3.589628594e-13)
(-0.01014938217 0.0288570511 0)
(-0.01018725549 0.02768698586 0)
(-0.008976988126 0.02766186559 0)
(-0.008939269926 0.02883009025 0)
(0.01009436396 0.02835424434 0)
(0.01007048634 0.02719516675 0)
(0.01128012187 0.02715825562 0)
(0.01130522781 0.02831558389 0)
(0.01968714012 0.02790780848 3.572142582e-13)
(0.01967612708 0.02568441747 3.58074681e-13)
(0.02163821928 0.02510490171 3.508027202e-13)
(0.0215704204 0.02719592108 3.488043188e-13)
(0.02338085555 0.02220205099 2.853411951e-13)
(0.02364883406 0.0206375898 2.8907432e-13)
(0.022830145 0.01843070545 2.579603198e-13)
(0.0225167425 0.01978485188 2.54088417e-13)
(0.01600028945 0.01153778771 1.47284962e-13)
(0.01635835195 0.0108356459 1.5068502e-13)
(0.01328232574 0.008311631823 1.1524115e-13)
(0.01294242766 0.008816933633 1.122435478e-13)
(0.003905254928 0.002284319846 2.883804306e-14)
(0.004409908669 0.002369012763 3.257116798e-14)
(0.002103122329 0.001078820608 1.47937218e-14)
(0.001731326183 0.0009667198588 1.21846977e-14)
(0 0 0)
(0 0 0)
(0 0 0)
(0 0 0)
(0 0 0)
(0 0 0)
(0 0 0)
(0 0 0)
(0 0 0)
(0 0 0)
(0 0 0)
(0 0 0)
(0 0 0)
(0 0 0)
(0 0 0)
(0 0 0)
(0 0 0)
(0 0 0)
(0 0 0)
(0 0 0)
(0 0 0)
(0 0 0)
(0 0 0)
(0 0 0)
(0 0 0)
(0 0 0)
(0 0 0)
(0 0 0)
(-0.0003164510331 8.63070664e-05 2.095545959e-15)
(-0.0002858181335 9.001835623e-05 1.887379142e-15)
(-0.0002507433989 8.956508155e-05 1.665334537e-15)
(-0.003585994005 0.00141356553 2.610411887e-14)
(-0.003708134331 0.001289717024 2.699229729e-14)
(-0.006466413528 0.002375931422 4.950206911e-14)
(-0.006313445071 0.002627864617 4.833633493e-14)
(-0.01579033901 0.007889250342 1.432742813e-13)
(-0.01598312543 0.007058541561 1.449396159e-13)
(-0.01879124059 0.008880459287 1.815769757e-13)
(-0.01860094339 0.009942219965 1.798700078e-13)
(-0.02353352473 0.01577190363 2.83453816e-13)
(-0.02368438758 0.01403458623 2.848415948e-13)
(-0.02384726502 0.01538802279 3.122363479e-13)
(-0.02371603727 0.017313268 3.110706137e-13)
(-0.01999232299 0.01979445835 3.573946694e-13)
(-0.02006179258 0.01752555077 3.576028362e-13)
(-0.01771738021 0.01753095192 0)
(-0.0176595318 0.01982115083 0)
(-0.01040600277 0.0196303713 0)
(-0.01043563814 0.018484494 0)
(-0.009228569914 0.01845291483 0)
(-0.009198775308 0.0195987879 0)
(0.009876257474 0.01910775781 0)
(0.009845912294 0.01795515364 0)
(0.01105273719 0.01792241239 0)
(0.01108327918 0.01907442705 0)
(0.0195399793 0.0188402914 3.589212261e-13)
(0.01947847175 0.01654292254 3.589628594e-13)
(0.02164638349 0.0162952977 3.548411565e-13)
(0.02167582698 0.01853982328 3.542999227e-13)
(0.02432386501 0.01557713114 2.988442827e-13)
(0.0244276487 0.01374495226 3.006761506e-13)
(0.02386248908 0.01240770987 2.711858516e-13)
(0.02371166932 0.01403566914 2.690486722e-13)
(0.0176426593 0.008567383418 1.628419621e-13)
(0.01789465964 0.007635688116 1.652983306e-13)
(0.01485324466 0.005994622457 1.291466933e-13)
(0.01458950822 0.006698320069 1.267735916e-13)
(0.005056399317 0.002000610064 3.737288257e-14)
(0.005261782087 0.001832896908 3.889943923e-14)
(0.002713470029 0.0009038160097 1.909583602e-14)
(0.002558125775 0.0009673478141 1.801336857e-14)
(0 0 0)
(0 0 0)
(0 0 0)
(0 0 0)
(0 0 0)
(0 0 0)
(0 0 0)
(0 0 0)
(0 0 0)
(0 0 0)
(0 0 0)
(0 0 0)
(0 0 0)
(0 0 0)
(0 0 0)
(0 0 0)
(0 0 0)
(0 0 0)
(0 0 0)
(0 0 0)
(0 0 0)
(0 0 0)
(0 0 0)
(0 0 0)
(0 0 0)
(0 0 0)
(0 0 0)
(0 0 0)
(-0.0004668139467 4.856845283e-05 3.094746681e-15)
(-0.0004208622692 6.153457993e-05 2.789435349e-15)
(-0.0003799494177 7.157308188e-05 2.511879593e-15)
(-0.00401231255 0.0008379945344 2.919886555e-14)
(-0.004135529952 0.0006723674731 3.008704397e-14)
(-0.006996644943 0.001207524121 5.354050536e-14)
(-0.006844801865 0.001514397382 5.237477119e-14)
(-0.01645969854 0.004414246907 1.490058077e-13)
(-0.01664750573 0.003505088306 1.506295089e-13)
(-0.01944902444 0.004398746384 1.873640132e-13)
(-0.01926404704 0.005540278208 1.857264342e-13)
(-0.02407106158 0.008699430985 2.881861416e-13)
(-0.02421694998 0.006898652304 2.894906537e-13)
(-0.02431584046 0.007534520766 3.160804951e-13)
(-0.02418928872 0.009511714561 3.150119054e-13)
(-0.02025764133 0.01070897629 3.58074681e-13)
(-0.02032281728 0.008434387701 3.582273367e-13)
(-0.01794475899 0.008389330685 0)
(-0.01788829208 0.01067351108 0)
(-0.01063948139 0.01048306933 0)
(-0.01066830833 0.00934163228 0)
(-0.009462878485 0.009310362203 0)
(-0.009448357448 0.009881130986 0)
(-0.009433849098 0.01045142206 0)
(0.00962049427 0.009897361797 0)
(0.009586761508 0.008749203097 0)
(0.01079225712 0.008718409315 0)
(0.01082613925 0.009866192237 0)
(0.01927668524 0.009648264524 3.589351039e-13)
(0.01920461147 0.007356366641 3.588795927e-13)
(0.02133316044 0.007202153593 3.540084892e-13)
(0.02142826599 0.009472940615 3.54480334e-13)
(0.02418585382 0.007943204513 2.994549053e-13)
(0.02405030922 0.006012624683 2.983585601e-13)
(0.02348106359 0.00542546422 2.686184608e-13)
(0.02362048536 0.007167727823 2.697564394e-13)
(0.0176700747 0.00442138913 1.636468738e-13)
(0.01754359157 0.003358257434 1.626337953e-13)
(0.014525474 0.002643592604 1.266348137e-13)
(0.01464097447 0.003474971081 1.275646255e-13)
(0.005118852617 0.001058401443 3.787248293e-14)
(0.005051738628 0.0008066853518 3.738676035e-14)
(0.00255936847 0.0003924599578 1.802724636e-14)
(0.002606682173 0.0005166254068 1.836031327e-14)
(0 0 0)
(0 0 0)
(0 0 0)
(0 0 0)
(0 0 0)
(0 0 0)
(0 0 0)
(0 0 0)
(0 0 0)
(0 0 0)
(0 0 0)
(0 0 0)
(0 0 0)
(0 0 0)
(0 0 0)
(0 0 0)
(0 0 0)
(0 0 0)
(0 0 0)
(0 0 0)
(0 0 0)
(0 0 0)
(0 0 0)
(0 0 0)
(0 0 0)
(0 0 0)
(0 0 0)
(0 0 0)
(-0.0006685307997 -4.322082204e-05 4.427014311e-15)
(-0.0006138862521 -1.380283707e-05 4.066191828e-15)
(-0.0005610348832 1.104611369e-05 3.719247132e-15)
(-0.004520910426 0.0001073706181 3.28903571e-14)
(-0.004656725914 -0.0001048166114 3.387568004e-14)
(-0.007632243019 -0.0001677319419 5.835609773e-14)
(-0.007467651333 0.0001989032533 5.712097462e-14)
(-0.01722309088 0.000653897956 1.555422457e-13)
(-0.01742180543 -0.0003382305624 1.572353359e-13)
(-0.02020906126 -0.0003775068129 1.940392291e-13)
(-0.02001446163 0.0008481799527 1.923322612e-13)
(-0.02465916101 0.00139422906 2.934180676e-13)
(-0.02480959996 -0.0004738559978 2.947364575e-13)
(-0.02482662721 -0.000514820257 3.203687315e-13)
(-0.0246975813 0.001517950256 3.192862641e-13)
(-0.02051302804 0.001594411389 3.586159147e-13)
(-0.02057453809 -0.0006888977006 3.587130593e-13)
(-0.018168326 -0.0007527635914 0)
(-0.01811283233 0.00153277055 0)
(-0.01086847176 0.001342765676 0)
(-0.01089663688 0.000200248735 0)
(-0.009693278502 0.0001689805554 0)
(-0.009679063249 0.0007402355017 0)
(-0.009664797736 0.001311382882 0)
(0.009342011519 0.0007254938652 0)
(0.009305030186 -0.0004209850852 0)
(0.01050939049 -0.0004505270517 0)
(0.01054662876 0.0006956263801 0)
(0.01894697188 0.0004863094338 3.580330477e-13)
(0.01883696271 -0.00179299064 3.573252805e-13)
(0.02074581049 -0.001796471534 3.48721052e-13)
(0.02093393474 0.0004275721711 3.507472091e-13)
(0.02317080129 0.0003090167224 2.89143709e-13)
(0.02267700067 -0.001496173039 2.835232049e-13)
(0.02204634652 -0.001326358543 2.538386168e-13)
(0.02245268243 0.0002907309172 2.581129754e-13)
(0.01624577063 0.0002419629311 1.509625758e-13)
(0.01583357285 -0.0006979627377 1.472433286e-13)
(0.01284475699 -0.0005069337173 1.122574256e-13)
(0.01322836129 0.000211262643 1.155464613e-13)
(0.004128777046 7.672497094e-05 3.057276654e-14)
(0.00390705291 -0.0001111755631 2.893518758e-14)
(0.001737308782 -4.507385551e-05 1.224020885e-14)
(0.001886003096 3.559181824e-05 1.329492072e-14)
(0 0 0)
(0 0 0)
(0 0 0)
(0 0 0)
(0 0 0)
(0 0 0)
(0 0 0)
(0 0 0)
(0 0 0)
(0 0 0)
(0 0 0)
(0 0 0)
(0 0 0)
(0 0 0)
(0 0 0)
(0 0 0)
(0 0 0)
(0 0 0)
(0 0 0)
(0 0 0)
(0 0 0)
(0 0 0)
(0 0 0)
(0 0 0)
(0 0 0)
(0 0 0)
(0 0 0)
(0 0 0)
(-0.0008449693064 -0.0001971377309 5.606626274e-15)
(-0.0008738336808 -0.0001669986116 5.787037516e-15)
(-0.0007976744404 -0.000118819961 5.287437155e-15)
(-0.005100825203 -0.0008220332296 3.708144902e-14)
(-0.005274510489 -0.001093602091 3.834432771e-14)
(-0.008372366716 -0.00180932457 6.396272401e-14)
(-0.00816564585 -0.001368721488 6.239453398e-14)
(-0.01805614788 -0.003448970786 1.626337953e-13)
(-0.01829743516 -0.004538338475 1.646877079e-13)
(-0.0210616538 -0.005512043978 2.01505479e-13)
(-0.02082776836 -0.004189174738 1.994515664e-13)
(-0.02527986636 -0.006180437874 2.98885916e-13)
(-0.02545250756 -0.008122054049 3.004263505e-13)
(-0.02537069702 -0.008786884966 3.249345237e-13)
(-0.02522630248 -0.006695219564 3.236994006e-13)
(-0.02075317966 -0.00754250351 3.589351039e-13)
(-0.02081087533 -0.009828271139 3.589628594e-13)
(-0.01838847717 -0.009892239678 0)
(-0.01833347531 -0.007607223633 0)
(-0.01109031299 -0.007796346832 0)
(-0.01111746679 -0.008938784399 0)
(-0.009916383739 -0.008969726572 0)
(-0.00990269504 -0.008398298294 0)
(-0.00988896454 -0.007827296052 0)
(0.009037940491 -0.008423863893 0)
(0.008997715306 -0.00956648547 0)
(0.01020167636 -0.009595060748 0)
(0.01024227309 -0.008452449038 0)
(0.01842610791 -0.008524440631 3.536199111e-13)
(0.01824581578 -0.01070872706 3.515659985e-13)
(0.01983594656 -0.01032499164 3.377437219e-13)
(0.02010997538 -0.008267658994 3.413103133e-13)
(0.02128649428 -0.006496248437 2.675359934e-13)
(0.02091760478 -0.008066022824 2.63372657e-13)
(0.01984823485 -0.007018105618 2.297884105e-13)
(0.02048375237 -0.00573541183 2.368383267e-13)
(0.01398511571 -0.003091340372 1.303124275e-13)
(0.01310738985 -0.003669459282 1.221939216e-13)
(0.01016676597 -0.002653403077 8.9012131e-14)
(0.01104698567 -0.002272330205 9.668654766e-14)
(0.002771930888 -0.0004699871366 2.053912596e-14)
(0.002420842351 -0.0005243670988 1.793010185e-14)
(0.00078634717 -0.0001614195104 5.551115123e-15)
(0.0009897441715 -0.0001587835291 6.980527267e-15)
(0 0 0)
(0 0 0)
(0 0 0)
(0 0 0)
(0 0 0)
(0 0 0)
(0 0 0)
(0 0 0)
(0 0 0)
(0 0 0)
(0 0 0)
(0 0 0)
(0 0 0)
(0 0 0)
(0 0 0)
(0 0 0)
(0 0 0)
(0 0 0)
(0 0 0)
(0 0 0)
(0 0 0)
(0 0 0)
(0 0 0)
(0 0 0)
(0 0 0)
(0 0 0)
(0 0 0)
(0 0 0)
(-0.001502386964 -0.000603709023 9.950373858e-15)
(-0.001369682031 -0.0004924635008 9.076073226e-15)
(-0.001172191837 -0.0003721548197 7.771561172e-15)
(-0.005832876252 -0.002016507372 4.238276397e-14)
(-0.006267375771 -0.002454488268 4.551914401e-14)
(-0.009508350958 -0.003893441231 7.253919687e-14)
(-0.008976336452 -0.003243731561 6.851463841e-14)
(-0.01911272511 -0.007996854822 1.71612724e-13)
(-0.01947123365 -0.009247115651 1.746658373e-13)
(-0.02214456953 -0.01112865949 2.10984008e-13)
(-0.02184658262 -0.00966855921 2.083888617e-13)
(-0.02601578535 -0.01408247504 3.05491743e-13)
(-0.02611678557 -0.01606056396 3.061578768e-13)
(-0.02599762133 -0.01733167618 3.303191054e-13)
(-0.02583462159 -0.01516741651 3.289174488e-13)
(-0.02098101138 -0.01668239279 0)
(-0.02103913923 -0.01896711336 0)
(-0.01861310758 -0.01903037514 0)
(-0.01858426654 -0.01788840731 0)
(-0.01855574116 -0.01674632486 0)
(-0.01130498158 -0.01693538425 0)
(-0.01131837951 -0.01750586417 0)
(-0.01071767311 -0.01752112717 0)
(-0.01070433249 -0.01695080508 0)
(-0.0008869275162 -0.01734761758 0)
(-0.0009011031818 -0.01763194191 0)
(-0.0009133673121 -0.01791637012 0)
(-0.0003250679277 -0.01792530153 0)
(-0.0002977317686 -0.01735699773 0)
(0.008689857348 -0.01755043464 0)
(0.00864094802 -0.01868804516 0)
(0.008591569443 -0.01982532452 0)
(0.01100658291 -0.01988346015 0)
(0.01110229958 -0.01760738655 0)
(0.009896526809 -0.01757902873 0)
(0.01758735956 -0.01697226899 3.429201367e-13)
(0.01727195517 -0.01887281693 3.380351554e-13)
(0.01843776273 -0.01776878111 3.178013408e-13)
(0.01893482388 -0.0161382345 3.254341241e-13)
(0.01912436232 -0.01199343734 2.418620859e-13)
(0.01843262966 -0.01304697945 2.334243909e-13)
(0.01710793228 -0.01109986284 1.98951966e-13)
(0.01783132092 -0.01025118341 2.071676164e-13)
(0.01086183749 -0.004964162206 1.013911177e-13)
(0.01020778955 -0.005268885301 9.532652445e-14)
(0.007469831308 -0.003605969654 6.548928067e-14)
(0.008045886316 -0.0034373165 7.051303985e-14)
(0.001144794386 -0.0004094493713 8.493206138e-15)
(0.0009306221206 -0.0003767155684 6.89726054e-15)
(7.37902118e-05 -2.839820211e-05 5.273559367e-16)
(0.0001409800149 -4.791846749e-05 9.992007222e-16)
(0 0 0)
(0 0 0)
(0 0 0)
(0 0 0)
(0 0 0)
(0 0 0)
(0 0 0)
(0 0 0)
(0 0 0)
(0 0 0)
(0 0 0)
(0 0 0)
(0 0 0)
(0 0 0)
(0 0 0)
(0 0 0)
(0 0 0)
(0 0 0)
(0 0 0)
(0 0 0)
(0 0 0)
(0 0 0)
(0 0 0)
(0 0 0)
(0 0 0)
(0 0 0)
(0 0 0)
(0 0 0)
(-0.001424797658 -0.0008169054869 9.492406861e-15)
(-0.001610163942 -0.0008547541557 1.071365219e-14)
(-0.001720562777 -0.0008403540774 1.143529715e-14)
(-0.006942613451 -0.003698457183 5.064004771e-14)
(-0.006719602095 -0.003892394155 4.901634654e-14)
(-0.0100271935 -0.006080088178 7.679967773e-14)
(-0.01029416589 -0.005739083495 7.885359032e-14)
(-0.02036136077 -0.01320369674 1.832978214e-13)
(-0.02003625363 -0.01413834274 1.802724636e-13)
(-0.02267968544 -0.0169485326 2.166322677e-13)
(-0.0229956315 -0.01579196195 2.198102811e-13)
(-0.02666339255 -0.02243560653 3.134159599e-13)
(-0.0264599549 -0.02421527448 3.105848911e-13)
(-0.02614365595 -0.02593774169 3.325534292e-13)
(-0.02628528773 -0.02398673299 3.349404087e-13)
(-0.02094570025 -0.02585080272 0)
(-0.02100638573 -0.02813582717 0)
(-0.01857359106 -0.02820043712 0)
(-0.01854325537 -0.02705819028 0)
(-0.01851290558 -0.02591541267 0)
(-0.01121462773 -0.02610923969 0)
(-0.01124497752 -0.0272520173 0)
(-0.01002863326 -0.02728432086 0)
(-0.01001345132 -0.02671266666 0)
(-0.009998283476 -0.02614154325 0)
(-0.0106064556 -0.02612539147 0)
(-0.001483610037 -0.02636767519 0)
(-0.001498776865 -0.02693879863 0)
(-0.001513958298 -0.02751045285 0)
(-0.0002975766674 -0.0275427574 0)
(-0.0002672268807 -0.02639997979 0)
(0.008247411149 -0.02662611079 0)
(0.008186725672 -0.02891113524 0)
(0.01058341702 -0.02886390182 3.576028362e-13)
(0.01067264724 -0.02666939817 3.586853037e-13)
(0.01635041322 -0.02422093681 3.237687896e-13)
(0.01593884296 -0.02569898615 3.168576512e-13)
(0.01675429773 -0.02372890814 2.923772335e-13)
(0.01724801985 -0.02246690103 3.000932836e-13)
(0.01604270194 -0.01524247402 2.038230695e-13)
(0.01539318123 -0.01587662009 1.95815586e-13)
(0.01373186989 -0.01296560753 1.601496713e-13)
(0.01467151585 -0.01277218444 1.710298569e-13)
(0.0077046517 -0.005340061779 7.201184093e-14)
(0.006714952362 -0.005048456387 6.275535647e-14)
(0.004564012588 -0.003214384581 4.003741783e-14)
(0.00520054873 -0.003374371883 4.560241074e-14)
(0.0001916090099 -0.0001046676583 1.415534356e-15)
(8.654884556e-05 -5.137098938e-05 6.383782392e-16)
(0 0 0)
(0 0 0)
(0 0 0)
(0 0 0)
(0 0 0)
(0 0 0)
(0 0 0)
(0 0 0)
(0 0 0)
(0 0 0)
(0 0 0)
(0 0 0)
(0 0 0)
(0 0 0)
(0 0 0)
(0 0 0)
(0 0 0)
(0 0 0)
(0 0 0)
(0 0 0)
(0 0 0)
(0 0 0)
(0 0 0)
(0 0 0)
(0 0 0)
(0 0 0)
(0 0 0)
(0 0 0)
(0 0 0)
(0 0 0)
(-0.000332766866 -0.0002474875062 2.220446049e-15)
(-0.0006038197438 -0.0004233455857 4.024558464e-15)
(-0.0008971016378 -0.0005907317282 5.967448757e-15)
(-0.005148763604 -0.003705886083 3.758104938e-14)
(-0.004398811464 -0.003373389661 3.211320099e-14)
(-0.007167286327 -0.00576040891 5.492828414e-14)
(-0.008108078097 -0.006114020603 6.213085602e-14)
(-0.01755926699 -0.01543488657 1.579569808e-13)
(-0.01627816224 -0.01526215484 1.464939281e-13)
(-0.01890533028 -0.01877582823 1.805500194e-13)
(-0.02020784776 -0.0188139035 1.929012505e-13)
(-0.02459289807 -0.02799486911 2.87964097e-13)
(-0.02351194855 -0.02854026 2.753214323e-13)
(-0.0237282135 -0.03117318481 3.007594174e-13)
(-0.02465165262 -0.03038258465 3.125277814e-13)
(-0.02094532086 -0.03462011486 3.550909566e-13)
(-0.02063573891 -0.03628124608 3.492345302e-13)
(-0.01864523639 -0.03703010404 3.559375017e-13)
(-0.01874372225 -0.03503601956 3.587685704e-13)
(-0.01145739783 -0.03525039904 0)
(-0.01151809741 -0.03753595427 0)
(-0.009085355816 -0.03760056281 0)
(-0.009024656242 -0.03531500758 0)
(-0.01024105358 -0.0352827026 0)
(-0.001726378392 -0.03550883459 0)
(-0.001787077965 -0.03779438982 0)
(0.0006456795487 -0.03785899878 0)
(0.000706379122 -0.03557344355 0)
(0.007945316626 -0.03544660171 3.557709682e-13)
(0.007784443096 -0.03712218842 3.502476087e-13)
(0.009887089738 -0.03603660705 3.395062009e-13)
(0.01014940207 -0.03469151386 3.476385846e-13)
(0.01459067302 -0.02913920042 2.910727215e-13)
(0.0139607535 -0.02964049154 2.784716902e-13)
(0.01429046754 -0.02658272141 2.49703036e-13)
(0.01502875943 -0.0263072847 2.627065232e-13)
(0.01273664657 -0.01619492164 1.620092949e-13)
(0.01183412368 -0.01598550738 1.504352198e-13)
(0.01004908946 -0.01242778021 1.171007735e-13)
(0.01093504284 -0.01272834194 1.275091144e-13)
(0.004298219298 -0.003989223022 4.016231792e-14)