/*--------------------------------*- C++ -*----------------------------------*\
| =========                 |                                                 |
| \\      /  F ield         | OpenFOAM: The Open Source CFD Toolbox           |
|  \\    /   O peration     | Version:  v1912                                 |
|   \\  /    A nd           | Website:  www.openfoam.com                      |
|    \\/     M anipulation  |                                                 |
\*---------------------------------------------------------------------------*/
FoamFile
{
    version     2.0;
    format      ascii;
    class       volScalarField;
    location    "1.03";
    object      k;
}
// * * * * * * * * * * * * * * * * * * * * * * * * * * * * * * * * * * * * * //

dimensions      [0 2 -2 0 0 0 0];


internalField   nonuniform List<scalar> 
12556
(
36.9087084
36.90878401
36.90892258
36.90915769
36.95450915
36.95558329
36.95752747
36.96155872
36.96923482
36.98135281
36.99753278
37.00784567
37.01106232
37.00884864
37.00144215
36.98539011
36.97290567
36.96398534
36.95911736
36.95634338
36.91015418
36.90916788
36.90869826
36.90842026
36.72748367
36.72772188
36.72812848
36.72919107
36.77538342
36.78090056
36.79214607
36.83002174
36.86587441
36.92392416
36.99982719
37.04084745
37.05745388
37.05025097
37.02139443
36.95938534
36.89437531
36.84937638
36.80114794
36.7851644
36.73256007
36.72953302
36.72807679
36.72731062
36.5475665
36.54824881
36.54952072
36.55209979
36.60063162
36.6144849
36.64162107
36.70419861
36.79057778
36.91763631
37.04002387
37.1196654
37.15289257
37.13917015
37.081785
36.97980259
36.85345441
36.74901121
36.66056069
36.62405291
36.56121503
36.55377877
36.5503645
36.54900227
36.36897979
36.3698928
36.37223671
36.3781993
36.43185038
36.46054593
36.52009472
36.62849014
36.79235957
36.98174035
37.16299741
37.29351352
37.35379424
37.32912818
37.23105584
37.06834258
36.88114056
36.70749708
36.55247609
36.48107492
36.39655033
36.38286587
36.37617305
36.3735875
36.19230344
36.19400892
36.1987245
36.21050576
36.27320465
36.32542706
36.43781916
36.61758439
36.85737575
37.13102945
37.41187907
37.64730928
37.77699891
37.73332343
37.55232639
37.27195364
36.98162948
36.7304079
36.49310684
36.3621561
36.24345359
36.21674108
36.20474675
36.20010811
36.01697776
36.01970173
36.02771692
36.04827576
36.12808919
36.21656451
36.40859228
36.65437409
36.98335862
37.38201605
37.86265044
38.383645
38.7344776
38.62123964
38.17082971
37.66108111
37.18576747
36.80876227
36.48750842
36.27268532
36.10251155
36.05537378
36.03530194
36.02747782
35.84456628
35.84939351
35.86344037
35.89865897
35.99686879
36.1369414
36.41889523
36.73661127
37.18008881
37.76346209
38.63345195
40.08255587
40.84554679
40.7061345
39.2909011
38.29277112
37.51166122
36.95033712
36.51322344
36.21680324
35.97324632
35.89931872
35.86766849
35.85539181
35.67645413
35.68380358
35.70524988
35.7588892
35.88189828
36.0876194
36.45611016
36.85793912
37.4358209
38.2610627
39.7361235
43.03538934
43.85843669
41.07448838
39.18389281
37.95233957
37.14888432
36.56835302
36.18842258
35.85878612
35.75032909
35.70317199
35.68511217
35.51657988
35.52808328
35.56052393
35.6381997
35.78818995
36.06629511
36.51681518
37.01000112
37.72595502
38.78473652
40.80113545
45.93861822
49.2673101
43.2276807
40.23678316
38.47300462
37.38689245
36.64427521
36.18182679
35.75935736
35.61073498
35.54497852
35.51988541
35.36716793
35.38305391
35.42701837
35.53073157
35.71683742
36.06962215
36.59584847
37.17933775
38.01860643
39.25961724
41.60096243
47.27352791
52.83329999
45.16402541
41.26529305
38.98891477
37.63099188
36.73210875
36.18784293
35.67660982
35.48457843
35.39754958
35.36424856
35.23221618
35.25433772
35.31355049
35.44940375
35.66689223
36.08825679
36.68742162
37.35456251
38.29454305
39.67013272
42.23580796
47.95116359
54.52630391
46.58163191
42.09547074
39.43086161
37.85684142
36.82044268
36.19953862
35.60945931
35.37390418
35.26502868
35.22269961
35.11139499
35.13908049
35.21188414
35.37788409
35.63452854
36.1190101
36.7852742
37.526454
38.55038823
40.03370005
42.80641184
47.80996753
55.24702741
47.47279081
42.67378364
39.76283851
38.04466635
36.90000554
36.21302609
35.5585803
35.27996082
35.14938204
35.09779887
35.00592003
35.04081705
35.13245024
35.3326585
35.61460589
36.15198139
36.87960815
37.69091395
38.77647157
40.35840763
43.39154885
47.30977243
42.84118862
55.08004505
47.924467
43.01082138
39.95794016
38.1819498
36.96395094
36.22457623
35.51524241
35.20123674
35.04992123
34.98962484
34.91205139
34.95347976
35.06158726
35.28967932
35.61525366
36.21631329
37.01726181
37.87298186
39.01616526
40.70110347
44.02302111
45.84890506
53.6364213
55.07170955
48.05299991
43.06960117
40.04851349
38.27722645
37.01068224
36.23097242
35.47449519
35.13306682
34.96338639
34.89534582
34.82748925
34.87514174
34.99826961
35.25214699
35.60787109
36.25629116
37.11951248
38.06810661
39.31868997
41.09962397
44.41986021
42.26245969
55.18847466
54.35448888
47.6824689
42.93459043
40.03723034
38.33171405
37.03434451
36.2272479
35.43326667
35.07025755
34.88518483
34.81068283
34.74703908
34.80047105
34.93682864
35.21420013
35.59751068
36.28413839
37.20742486
38.2918211
39.75801818
41.76130575
44.96966835
37.16068325
53.73632161
52.70937143
46.81861397
42.58917006
39.95975843
38.33763473
37.0308753
36.204972
35.38359073
35.00545414
34.80969519
34.7300286
34.66840525
34.72697425
34.87431688
35.17163207
35.57807363
36.29350065
37.26908952
38.47759113
40.29297949
42.69922389
44.72639473
28.65516759
53.15140605
50.53793551
45.60542194
42.13125734
39.87271098
38.31005694
37.00365032
36.16110189
35.32431813
34.93718825
34.73280711
34.64897703
34.58647854
34.64953792
34.80603029
35.12031893
35.54644716
36.28376762
37.29385025
38.55029287
40.64471552
43.32411762
40.546644
35.52783136
51.82761648
48.44165949
44.51172273
41.74157171
39.75252372
38.23676004
36.93399414
36.09006923
35.24861576
34.85748851
34.64971605
34.5629681
34.50158996
34.56842396
34.7320924
35.05950493
35.50069102
36.25130261
37.28448027
38.56629732
40.66793737
42.95785225
31.77580371
45.34895806
50.38491362
47.01880735
43.86709431
41.44866139
39.56930669
38.11144537
36.83179244
35.99647286
35.1586977
34.76780071
34.55875444
34.47058724
34.40926786
34.47925808
34.64886869
34.98705275
35.4402548
36.19866615
37.24605853
38.54213658
40.6036642
42.30756433
28.57289007
45.01603072
49.17348564
46.28464751
43.40490856
41.13681281
39.35233667
37.95160117
36.70459778
35.88327674
35.05441331
34.6663879
34.45769385
34.36885548
34.31309606
34.38561763
34.55971809
34.90519831
35.36592882
36.12838905
37.18324061
38.48512146
40.47422502
41.57201836
26.23604851
43.9601129
48.10942812
45.62880051
42.96708196
40.82246772
39.11883155
37.77004396
36.558715
35.7539886
34.93849031
34.5557515
34.34865586
34.25975523
34.20802477
34.28264479
34.46069018
34.812401
35.27932472
36.04339545
37.10188379
38.40264339
40.29124814
40.79136064
24.39144923
42.91135331
47.14017623
45.02250051
42.55527064
40.51435026
38.87885139
37.57580517
36.39920688
35.6121498
34.81123193
34.43440412
34.22938743
34.14080877
34.10112384
34.17740479
34.3583447
34.71331907
35.18227388
35.94652108
37.00622551
38.29976938
40.06397276
40.00211332
22.92595055
41.89624376
46.24548452
44.45635026
42.16697132
40.2165138
38.63838311
37.37504496
36.23031216
35.46093135
34.67683819
34.30720092
34.10475956
34.01678496
33.98474673
34.06248002
34.24633143
34.60500125
35.07685354
35.84030648
36.89966322
38.18019393
39.79913401
39.22487642
21.75429594
40.91579669
45.41227536
43.92374181
41.79875291
39.93012553
38.40092889
37.17179077
36.0554916
35.30304592
34.53417373
34.17087927
33.9708186
33.88354333
33.87032205
33.94921267
34.13507977
34.49453418
34.96474746
35.72699476
36.78487539
38.04614708
39.50444411
38.47363269
20.81335161
39.9636771
44.63023
43.4195427
41.44777042
39.65488062
38.16839159
36.96866032
35.87736886
35.1406203
34.38892909
34.03308019
33.83564189
33.74915622
33.74505843
33.8250626
34.01335389
34.37548771
34.84770675
35.60843136
36.66373694
37.89874594
39.18675887
37.757216
20.0549111
39.03560696
43.89095511
42.93949826
41.11171612
39.38990047
37.94160317
36.76727911
35.69781953
34.97540775
34.2368835
33.88649492
33.69112319
33.60536064
33.62702826
33.70791469
33.89768337
34.25896701
34.72678261
35.48605964
36.53742967
37.73887126
38.85579942
37.08041557
19.44264513
38.1351319
43.19020844
42.48014108
40.78869369
39.13423804
37.72081618
36.5686398
35.51819078
34.80864579
34.08688575
33.74369487
33.55066735
33.46563694
33.49470017
33.57653236
33.76846417
34.13233475
34.60334357
35.36095071
36.40662494
37.56774841
38.519296
36.44497705
18.94892084
37.26381976
42.52267836
42.03854084
40.47703034
38.88695202
37.50593377
36.37328389
35.33938985
34.64142738
33.92909417
33.58988236
33.39843436
33.31400022
33.37700103
33.45955568
33.65257858
34.01430378
34.47776956
35.23388678
36.27174289
37.38697979
38.18238327
35.85060599
18.54501742
36.42249436
41.88195657
41.61232515
40.17531524
38.64720249
37.29672314
36.18150327
35.1620443
34.474313
33.77923217
33.44706603
33.2576245
33.17377205
33.23806346
33.32148388
33.51647541
33.8812188
34.35131936
35.10544922
36.13309444
37.19833749
37.84645333
35.29563102
18.21635767
35.61109577
41.26358067
41.19951075
39.88230664
38.41420391
37.09285828
35.99340781
34.98657377
34.30807788
33.61675536
33.28681573
33.09851055
33.01509163
33.12481682
33.20884856
33.40466724
33.76620918
34.22371649
34.97606373
35.99099734
37.0035235
37.51342908
34.77787717
17.95724297
34.82953013
40.66438799
40.79843301
39.5969305
38.18724288
36.89398204
35.8090096
34.81328003
34.14280298
33.47195472
33.14913313
32.96247169
32.87946292
32.9779639
33.06283612
33.26041642
33.62546352
34.09650862
34.84610571
35.84589819
36.80402654
37.18487951
34.29484381
17.76179237
34.07790017
40.08327658
40.40778542
39.3183001
37.96570173
36.69974349
35.62824181
34.64239133
33.97930639
33.30277378
32.98052168
32.79472532
32.71199953
32.87410469
32.95948308
33.15777134
33.51926828
33.96863809
34.71590268
35.69836247
36.60117257
36.86208198
33.84359581
17.6236106
33.35589628
39.51871615
40.02652537
39.04566743
37.74902554
36.50979092
35.45098414
34.47415958
33.8172303
33.17006484
32.85463826
32.67000713
32.58753287
32.7158772
32.8021128
33.00192157
33.36622905
33.8427264
34.58606365
35.54909405
36.39613101
36.54578984
33.42126036
17.53716777
32.66383058
38.97017605
39.65388065
38.77847372
37.53677581
36.32384523
35.2771992
34.30910402
33.65814962
32.98707317
32.67208993
32.48832166
32.40601047
32.62747037
32.71412465
32.91460957
33.27767031
33.71717693
34.45771845
35.39978135
36.18984536
36.23659598
33.02567685
17.49681844
32.00323759
38.4383084
39.28950604
38.5162795
37.32857308
36.1416376
35.1067252
34.14869038
33.50215516
32.87907519
32.56751738
32.38427697
32.30204995
32.42480988
32.51250114
32.71470236
33.07989463
33.59846413
34.33378272
35.25557281
35.98387826
35.93693814
32.65761889
17.49548144
31.37784412
37.92788537
38.93595301
38.25984575
37.12459083
35.9632157
34.93956837
33.99766595
33.35563371
32.64304683
32.33287556
32.15049177
32.06832403
45.70653217
49.97203203
44.2946137
47.14320611
53.87901016
50.44741493
47.91614912
55.57552788
54.1895282
47.85463659
56.23215387
55.68405359
47.34233252
40.46597716
42.11775536
56.52549091
56.2716818
46.3850425
47.62247562
40.5689675
53.04355209
56.98995283
56.55074597
42.53461012
40.81776518
43.77589399
40.56258884
55.40401292
46.52291657
48.68220383
43.74862251
41.75582242
41.42254378
45.95471032
44.80598435
57.92584274
61.51864459
52.51359257
46.14456045
44.38985259
42.09058437
46.85600607
46.08661451
47.61720016
50.45123644
51.55583104
55.33234488
55.09205415
54.390693
47.87006033
46.63234731
42.68251365
47.27423163
46.93809242
47.96409598
46.22701372
48.53779284
57.0857783
55.89894045
43.26652459
47.31340553
47.29677956
47.58967827
40.84541201
43.56785789
43.10245407
58.4774099
58.06265931
43.91420131
46.90646811
47.29066758
47.02840694
33.6732806
37.12521201
44.75388255
49.95121678
48.01924169
51.05792361
53.47754896
45.47349959
50.51755557
61.51738737
55.79739962
47.56488118
54.40818244
59.92600488
51.68553223
52.38998922
46.67343534
53.34357147
51.82383505
53.69926646
53.50149112
55.24208451
57.60760147
52.37887325
59.0566507
57.22313787
60.08439002
59.23461264
52.11570796
48.75974342
50.26079896
47.71203882
49.8496497
47.69949173
51.72563885
49.98287947
55.6838246
55.41476589
55.12225757
57.57055897
57.82539112
57.12644589
57.53466099
54.93607625
43.71877601
46.08429132
47.94888375
44.961217
42.09562944
47.55606956
45.12167311
57.98177173
57.22327549
37.30128023
40.64688764
47.56231208
47.9839771
38.39231415
34.4909038
41.93551489
38.63404455
50.90135161
58.69231999
58.52542563
42.22267222
40.91033189
33.60881959
46.9842476
44.30349966
32.45051903
90.91926117
34.38573709
32.4944034
43.70204162
40.56148756
44.58693747
42.33430188
44.41630638
49.12648259
44.94772068
72.88157692
51.38681002
46.53217123
52.43544232
51.8361933
68.73556364
55.20505063
48.95882405
48.1837622
78.26216111
46.6082661
44.92464821
48.06518042
58.98124226
58.79483391
51.62900918
49.55118735
44.79480954
61.42253068
48.75349965
58.89420415
45.96612803
53.21800826
46.85434452
44.46905737
42.0237349
56.03223125
58.25671587
58.46006534
57.87656551
58.2204113
55.96637498
40.6474455
69.35256832
41.38521022
42.66108387
42.23256011
44.82376113
45.82104367
42.69105085
42.73623752
80.6057325
51.68502715
72.53702241
49.79454556
66.9548583
50.63164938
60.4273948
60.67121078
55.11760269
55.10913111
43.45996689
60.00989822
56.60263047
44.84350887
42.36971097
65.06734881
46.33641854
56.43705993
42.33124711
47.1388665
46.75096044
50.22022596
47.60731349
69.50517605
36.04529002
44.77032441
44.25044444
45.4442644
44.96183684
36.17259217
67.16155834
62.05266203
52.30677677
62.56833608
63.65896897
56.83888164
62.12014699
52.63507844
47.81665221
55.78106728
47.72221361
62.55533898
56.78584627
48.61450124
59.84948387
66.924992
59.77572375
59.36057517
52.63071791
47.80364312
52.53436214
53.90793658
52.00616677
56.12737201
48.28505586
51.47433696
53.8648622
56.55818382
56.75855352
58.17134265
57.10585546
56.53443834
57.62216875
57.25354664
58.03322645
60.34970141
55.14329908
54.00135395
56.30801841
55.46992108
60.27899587
48.86993018
48.73106495
50.97079101
50.86085561
55.93976335
66.56348971
55.86088763
43.81994654
43.62228761
46.4081296
46.24268077
42.34507728
43.77486256
57.59933154
41.94861622
43.0176315
39.37591808
46.06082791
45.60448723
46.61743803
46.20431212
39.54826811
40.81009106
37.38408707
37.21101429
40.80591291
40.64581514
79.55701914
40.32254356
53.05164989
51.02286772
44.05012469
43.55833851
32.86148313
32.99581307
45.51539109
54.98554363
33.88958343
91.20620082
57.58279633
83.20471179
33.81119093
41.89399237
65.40919955
47.12304524
72.13509435
42.59117023
45.40308396
44.32268866
46.24595811
46.78271782
45.2521482
38.6949311
43.01263874
55.59307119
56.28501923
56.89382332
60.18675531
47.31250889
58.20074415
55.00432313
53.64644294
40.30914909
59.08388256
59.03272251
48.75335116
44.82678144
44.42621005
47.89579946
49.90227864
44.58027797
44.92596479
59.1275509
63.14462436
61.2450811
61.35765797
55.1471124
45.92451119
45.2797746
56.10458199
55.89184425
54.84166843
47.25327958
48.86309132
48.57925083
49.20779383
48.95341503
47.42179793
47.62195731
47.2617753
42.48851762
34.2718303
40.7562657
40.29306852
84.22113227
64.5043103
48.27324569
61.08293041
66.02192533
63.70329557
57.35688719
51.56175866
49.82826293
53.56395894
52.10103759
57.76081567
55.74874857
55.50098476
56.10619633
57.02623847
49.43521965
49.48848098
49.28510486
43.34023487
43.94053394
48.14946359
45.23252498
44.8814328
55.57817069
57.66260193
58.14007966
58.10906466
56.9351424
57.92995465
57.71219033
58.0906104
57.97794879
56.92990749
44.91042605
48.06770772
47.7367098
48.48056546
48.17409218
45.0695648
44.48196879
38.05216671
38.45000226
34.22185623
34.54415428
42.6447521
47.07638169
42.36949279
43.17369855
38.60494672
39.05018817
45.60156435
57.69688102
44.30941336
49.16197733
83.80361017
43.28597384
37.90854663
35.78874527
41.45773606
33.91843188
34.15123315
33.34074158
39.76409001
69.39494498
38.08017126
42.06416298
41.16644741
40.14371606
39.71315324
33.44007848
45.93695105
42.34107095
46.21281221
32.34169712
102.984087
49.39169378
44.89357819
44.69824247
34.1970488
32.6532847
63.40551278
63.24577772
61.96824187
68.36990489
68.08561024
41.03065021
41.98242332
78.9467685
58.82846457
58.67475146
52.82561508
68.54908384
53.23722593
68.75279211
54.15819122
56.85255916
46.62420247
42.67681863
65.34440537
75.02599436
66.78784984
51.70736705
40.30388386
69.69780021
83.2653139
52.55731156
66.30885762
88.76973718
44.15130555
49.57400006
41.54960426
43.20964378
81.00138367
80.94545329
61.61889563
56.65681671
67.01718602
62.63786159
55.70753426
51.63601968
59.44781889
58.39405315
59.27882883
59.56418136
61.19637153
60.72304699
58.89605075
47.8310692
46.45587844
55.10338942
59.88497179
57.96375315
50.10141448
58.71236395
57.19203929
54.8816507
56.1315944
48.5896698
47.13315417
49.12247155
43.06002015
49.21861594
47.92529818
52.7414942
45.64584823
44.63230507
47.43524717
46.16464697
50.46791214
53.46457127
40.69533643
40.93310354
41.41235554
40.89309594
34.88252394
36.59084102
41.99060853
41.55877597
65.27306018
64.49835378
63.98395958
56.42776452
57.17563036
55.1433323
56.14061431
64.35746596
60.05849716
57.79119188
57.65989696
57.36548769
57.72385621
60.43317919
60.53333465
53.53970724
54.79958365
64.79132439
65.36729713
66.85868431
65.64321951
60.7935062
67.18472505
69.13317251
67.62014974
69.32883815
68.44314714
69.74453701
69.02285498
57.90355941
65.93716986
67.10329758
46.05628271
52.8235537
51.72244145
53.86575275
53.12212268
46.79449018
50.207296
49.45994793
51.34114995
50.46517358
53.64214607
56.71963163
56.04217089
57.51070491
56.93377218
54.2299524
49.560294
54.85124981
54.11698907
55.80748007
55.09293364
50.01873666
55.04464162
55.24493174
55.94438106
57.01785283
55.89655528
54.94010978
42.69180985
42.10764581
43.70602232
42.89690578
41.17361221
40.60294301
41.92135891
41.34686469
48.28006458
47.58945398
49.22001901
48.51662738
46.22396418
44.24440021
47.34072345
46.65208617
44.09156387
44.52495003
44.39686366
44.08854388
66.37512291
46.69082108
48.62567602
44.66612687
45.99215281
37.53472984
37.89584876
44.32102202
34.98240878
34.71814472
35.37507885
35.0896327
34.52284155
42.88249197
34.80307147
37.07384295
40.03484271
42.06561902
46.91480225
39.56080278
36.59213686
40.48608185
39.5965274
35.84394181
35.49770352
36.38242455
35.97178753
45.76098954
39.20764615
39.74184646
75.1397883
42.07681784
74.27601973
64.19462687
73.7071826
42.21211774
86.59691026
42.35116499
83.21537869
74.17226885
37.76636444
36.51171878
33.6131889
33.84791478
41.29823336
40.04830141
33.37357361
33.5621604
79.9186121
33.36829376
39.50807522
38.76366346
91.65692144
95.63944992
32.30342014
98.99854006
84.69458212
49.39837864
34.12582642
91.56481033
65.94941989
98.37946456
69.59036583
32.79547981
43.37941355
41.13640818
39.58539835
77.94934031
77.28380486
55.70770467
49.55040788
49.13381524
78.67532114
40.31145768
49.33652155
43.97540536
58.47711741
58.64168783
56.40597005
48.05599144
46.95191519
52.26729177
60.56686703
47.65774335
48.04815114
42.07313354
42.48495467
45.47171838
53.70571807
58.85751358
62.42572911
50.96821956
49.76476379
49.72041865
49.71289951
49.76605408
51.12450578
41.39994393
40.77896238
49.08714849
50.0322693
52.25286854
58.2737389
42.54146232
42.12635442
36.71750319
63.56667421
65.66876978
57.44307418
49.68665476
49.54666745
49.64963778
49.43147964
45.76118374
46.52278724
46.89706707
48.04974687
50.38176361
38.29237425
43.11726519
42.67833029
64.56724528
60.91762641
46.08338745
32.97621735
33.02910006
34.6787664
55.79756673
80.69138181
72.35207682
40.81462921
43.36721152
41.7214146
32.41543784
34.31762352
32.87718969
32.93150315
32.53247866
73.84901662
67.66248447
52.29688587
56.51280905
77.02018171
41.80437157
41.17583324
47.14318647
60.47416744
49.22213632
47.34251882
50.13440976
43.08357108
44.82535584
42.2293631
86.02774876
89.12371492
90.27134413
78.65179268
87.63567773
44.07160411
44.52791752
48.71021262
75.70721263
67.97778824
64.1953249
79.03636378
75.91046857
44.1274463
54.55822244
51.91497239
71.19705276
69.82379797
53.49128609
50.86138084
49.67686701
42.85997413
66.33213202
46.10045157
47.40868591
61.82353088
45.97099225
48.36440624
66.76938142
67.74385682
62.89830206
63.07107897
61.39008198
61.24106185
57.59101412
58.95085748
58.45223778
61.04559908
60.76885182
61.54728738
51.55581753
53.11228941
59.87329424
61.82368157
69.56070914
64.58997851
69.41147227
69.85909916
66.01364226
43.95312384
46.75102173
46.11374602
51.33942155
51.03800127
47.50326598
43.47396986
43.16952169
45.56427591
45.12399639
52.5433472
55.3734637
54.94832439
57.98910009
57.54561074
55.46550883
48.6606331
52.11059721
51.75530463
54.52206601
54.10549078
50.97513483
44.93758676
45.54936059
49.29603109
48.29161498
44.13440343
44.73797313
49.18858491
49.80394974
51.3090109
41.44814798
41.26008128
42.90962222
42.67000439
38.4513245
40.99570065
40.84214561
50.50138863
48.33420049
48.97625248
64.75281803
63.86240612
48.60081914
49.72883992
65.86782712
63.45994242
63.95782809
55.64762444
44.85518328
45.27951399
43.66554054
43.25781384
38.67481895
40.00405556
44.15602027
43.78733605
34.90375297
34.9644754
37.50029835
37.08033368
34.70564423
34.77036526
79.30109785
32.84429227
34.83665686
33.68496413
108.8033855
32.54510571
47.76003671
80.74177753
75.36799858
32.52686739
32.56779735
33.9741116
89.98613836
94.60576106
92.61618093
77.77227584
33.66701103
32.43453456
32.48402873
55.69469752
40.89964249
41.30380306
77.57790952
76.47665956
59.41828608
56.18511409
44.22467213
61.34040656
64.68293909
68.87273288
50.58357171
76.04629603
66.43294192
76.01685278
74.40037294
54.112846
46.31223416
47.37920025
54.65852633
56.1997018
56.56677533
55.61290303
55.88653236
62.57242635
62.36999157
62.86554692
61.27962961
61.76832173
61.8422974
56.55324209
47.28220342
47.67996456
46.69069502
46.96721647
57.18698426
64.94360764
64.33360236
64.51225421
63.4344041
63.89302204
64.30673338
55.34687319
48.86263855
49.33389322
48.05279818
48.46252806
55.74156642
55.40508362
55.2104131
54.67111354
54.66868876
38.16316541
40.92600448
40.77612727
34.30861964
37.18407655
37.0414796
37.61142527
37.35320293
34.40173507
80.27990275
81.98848675
73.37455192
81.80463606
33.32443053
33.26596516
33.48603405
33.40568006
32.81268255
35.0662758
33.10328063
33.25272748
34.00225944
36.68358334
36.55975566
36.91958751
36.79878718
34.07463602
33.70833855
33.57443116
35.16653655
33.95465116
33.24046088
82.95057287
79.40286786
61.94516645
82.52785161
36.58572991
35.2443277
38.79565325
33.51411566
35.83005421
35.69553817
32.37132414
102.7397151
103.7827541
67.23360358
97.7527105
90.34003332
32.75815487
32.82906728
34.26474037
32.58447808
68.56770399
78.17830708
69.7546638
72.59245847
67.23844265
55.92001639
74.89556796
67.96130485
69.3572521
68.7789995
78.55920777
60.54152287
68.3736677
59.9642133
56.32075044
64.85257192
56.60799011
60.48125057
69.4952958
71.20258913
61.60655575
68.07999056
73.66265656
74.60653538
76.32365508
73.19027995
76.60220513
86.44603412
85.9131128
84.41414211
56.77807761
76.99086709
70.72253946
84.34495564
86.26528908
61.69355146
67.84045347
72.83945554
87.49719056
75.49586326
59.79743043
63.46214447
74.15976505
68.63916202
75.221824
65.30065952
69.84389378
73.89892906
76.36620786
75.5289096
57.95431753
58.03007261
58.39652515
57.31410845
57.02511131
57.01853778
60.05007007
60.19057137
60.66279273
59.10535571
59.53965667
59.55400843
47.39110945
46.79204999
46.83077448
59.1325326
58.60684823
53.82446221
60.63170884
60.5870831
59.22867083
57.08210123
58.06105211
52.28959684
46.63123193
46.57062705
46.85485344
46.75875015
49.57383721
70.35054462
61.24909081
45.20965831
73.17895114
72.56094202
71.99445278
51.02741539
70.41082925
68.98401166
44.16306391
44.85954429
58.37436509
66.08024506
63.63483781
59.96066143
59.47413522
58.31547086
61.1227262
60.52979681
60.20169787
70.97982571
70.70009501
63.59419132
71.9171315
74.43930009
65.89239655
70.62089593
70.91764137
66.48802599
64.60552538
64.61578932
64.52501838
64.56173845
66.1022637
67.70240662
68.3404572
69.30491961
73.57381452
73.08492623
74.13678747
73.93751666
69.09022705
70.3306323
72.50053811
73.73704069
70.69728627
49.61888594
49.4153683
46.03839022
46.98510537
50.56765735
50.35812932
44.08739211
43.76641805
44.75564334
44.40835961
56.23344758
55.7990988
53.06876608
54.84063757
57.10851819
56.67013484
52.89551838
52.51737391
49.14423554
50.47088771
53.69039872
53.29435125
55.14108212
50.75029982
51.27823094
49.75937619
50.25916075
54.94865627
55.17284441
52.94514461
53.70112167
51.81764355
52.37794784
55.2228173
42.49071728
38.85722124
39.04792005
38.51387373
38.68667085
42.29953649
43.36873501
39.68647053
39.97144252
39.23962918
39.45276129
43.11792394
40.97077991
37.52339675
37.69728158
37.22715
37.39941668
40.8185074
41.72895959
38.17804006
38.34949299
37.84104599
38.01959326
41.5457823
41.9193854
41.70528367
48.05086634
45.51403363
45.74654785
45.04017325
45.25255618
47.81138788
42.40722815
42.17507422
39.987917
39.94631117
45.89520107
43.41624207
43.49995849
40.39138451
40.95026456
45.02931015
47.13262021
44.58468853
44.76035236
44.12484328
44.24782513
46.85004401
40.54816494
40.44160309
64.0708756
63.24890857
65.64206685
51.80801385
56.92104395
47.18956977
62.36631434
63.35292289
61.13750801
61.8217293
47.89692887
44.91139179
55.70807081
51.01163809
61.81188483
62.48204914
45.44609539
37.59885914
40.25098382
40.11221481
40.59962952
40.46373121
37.80866492
34.9154395
34.78048721
35.28221985
35.16134308
34.38876808
33.69470835
35.25351078
38.71904301
38.0523696
39.75673818
39.45786466
37.04574683
37.42710701
35.38840403
36.45655741
36.92657741
40.21978282
36.93420202
37.13230039
36.56038175
36.85754633
40.13443501
35.72932152
35.60392887
36.23287843
36.0949092
72.30358158
50.61385402
52.80493072
45.69913704
48.1969828
73.531371
72.37095469
70.92266197
55.63367535
62.6696433
75.15843758
81.67410222
62.24996122
65.99748193
52.42172153
57.64327523
83.69802433
33.09058839
33.04264701
33.20267028
33.16043696
34.15960365
34.44892955
36.79082751
32.8267512
32.81644476
32.96273777
32.91431676
33.69995583
36.21422282
36.07036365
36.44682554
36.31662947
33.76210905
33.44346332
35.74134923
35.40992394
35.9882787
35.80553987
33.47973643
77.82837152
35.56011261
35.31008198
33.15976847
89.53373254
107.7423021
109.6104241
108.3358529
107.8573305
92.54329947
32.33904199
92.42605864
77.37919243
80.25219498
34.04400693
32.61861298
32.68751679
91.07601123
96.0255459
95.2060795
83.94603571
88.92393468
99.39441801
96.56573757
73.45803942
93.50610238
86.16863493
32.51950246
32.41735535
33.35905157
36.73187725
36.78195577
36.85452711
36.80251244
36.88429378
36.90638166
36.91286371
36.99865275
36.97771601
37.02312275
37.0806138
37.03213819
37.09319353
37.11901608
37.05523502
37.12185992
37.11685717
37.0545897
37.11075473
37.07591476
37.03151579
37.0608301
36.99532146
36.98034811
36.96983367
36.88306795
36.90952063
36.85585071
36.78643429
36.85924308
36.64170562
36.74634005
36.76508295
36.78649136
36.91475588
36.88609851
36.95850925
37.08508417
37.01269504
37.1226248
37.21528676
37.10493774
37.23837779
37.28309566
37.14930525
37.29051381
37.2832538
37.14628106
37.27122876
37.20747026
37.09968616
37.1803639
37.07688389
37.0083274
37.03734516
36.91096455
36.88477294
36.86895895
36.74742518
36.76951365
36.61597298
36.7770687
36.7485951
36.83512827
37.02049641
36.93360759
37.08426538
37.27423265
37.12115567
37.33407286
37.49453387
37.26756425
37.54135984
37.63040986
37.34642395
37.64813014
37.64377718
37.34173644
37.61865301
37.49371366
37.26393357
37.44720144
37.27237393
37.11264398
37.20711682
37.01042853
36.92816615
36.94764896
36.77427992
36.74901323
36.64084417
36.86324077
36.79283716
36.94475849
37.21095767
37.06031982
37.30761482
37.61764584
37.34331857
37.72514598
38.054691
37.59879996
38.1676631
38.39664768
37.76322332
38.43864293
38.41919322
37.75329724
38.3354906
38.07328725
37.61512565
37.97787793
37.65357841
37.34620498
37.54202704
37.22227844
37.05168302
37.12410561
36.86230926
36.78987785
36.71230294
37.01281837
36.89498511
37.12430178
37.50781467
37.27542258
37.65583764
38.18777398
37.73434573
38.40160864
39.21055802
38.26250924
39.54438326
40.42055343
38.69106764
40.49520895
40.25191715
38.64966812
39.87592152
39.19229181
38.29829354
38.95836518
38.3057675
37.79005438
38.10660929
37.57335704
37.29675799
37.41829492
37.02031057
36.89434934
36.82328333
37.21546713
37.05918678
37.36493994
37.90389473
37.59943837
38.12652836
39.02151227
38.37520919
39.44352962
41.93126718
39.64651449
40.9185486
41.47504775
40.36312736
42.18669959
42.18089057
40.83412744
41.57306012
40.86137625
40.33660818
40.57733494
39.27961169
38.5223718
38.93156864
38.07159526
37.68585645
37.83440159
37.24986102
37.07164378
36.96897595
37.46162428
37.27568811
37.65199573
38.35682029
38.01796841
38.65805206
39.92949903
39.25752199
40.02566663
40.69266478
40.34111787
43.52478124
44.25064832
43.63074245
45.98892714
44.44529729
42.95218631
42.69842688
40.49461883
39.57555784
39.95040112
38.67461987
38.2149215
38.33780058
37.53336331
37.31762622
37.13630272
37.72063632
37.52622333
37.94679992
38.78690349
38.46662802
39.14770633
40.67531434
40.13289383
41.02418459
41.89932406
41.63677823
46.15920173
47.47066862
47.21462087
50.87875253
47.88439157
46.62890123
44.73599488
41.72655402
40.82505016
40.99058954
39.2985741
38.83832201
38.86170566
37.83403741
37.60944696
37.31192347
37.97405339
37.78466655
38.22877663
39.17051657
38.88690667
39.57343954
41.26919641
40.83435334
41.77251868
42.75783341
42.56275627
47.39660815
49.10141957
48.97193703
53.64029492
50.32003708
49.5448947
46.2967585
42.76539035
42.03161855
41.88671652
39.84815387
39.45481411
39.32762643
38.11089422
37.90518397
37.48893902
38.21313975
38.0338425
38.49022565
39.51141601
39.25799119
39.9480792
41.7866079
41.40135277
42.3900706
43.46238113
43.28194333
47.97052305
48.79827535
48.9550572
54.89061534
51.70633543