/*--------------------------------*- C++ -*----------------------------------*\
| =========                 |                                                 |
| \\      /  F ield         | OpenFOAM: The Open Source CFD Toolbox           |
|  \\    /   O peration     | Version:  v1912                                 |
|   \\  /    A nd           | Website:  www.openfoam.com                      |
|    \\/     M anipulation  |                                                 |
\*---------------------------------------------------------------------------*/
FoamFile
{
    version     2.0;
    format      ascii;
    class       surfaceScalarField;
    location    "1.03";
    object      phi;
}
// * * * * * * * * * * * * * * * * * * * * * * * * * * * * * * * * * * * * * //

dimensions      [0 3 -1 0 0 0 0];
oriented        oriented;


internalField   nonuniform List<scalar> 
25162
(
0.0004741256245
0.9161758744
0.0006266579752
0.9165474677
0.000793226211
0.9164834318
0.0003940324715
0.9164705607
0.0005786330298
0.4583349357
0.0004090967526
0.4582810109
0.0005274884998
-0.0005084994253
-0.0006632447152
0.4582451609
0.0007680838379
-0.0008721540003
0.4581862268
0.001020927219
-0.001182158654
0.4581578036
0.00135435502
-0.001543122521
0.4581408046
0.001737317942
-0.001923279136
0.458160049
0.002098230153
-0.002253818632
0.4582251806
0.002360138021
-0.00242129662
0.4583239484
0.002430848261
-0.002384502773
0.4584268063
0.002292696428
-0.002161059662
0.4584939833
0.001997076309
-0.001825063637
0.4585124502
0.001647613404
-0.001461793642
0.4585021585
0.001294635167
-0.001134717744
0.4584937882
0.0009559295446
-0.0008789947779
0.4584583638
0.0007706309755
-0.0006304681778
0.4584643029
0.0005161652757
-0.001751553913
0.9186431385
0.0002201504983
-0.000461735081
-0.001097901656
0.9186963477
-1.192123604e-05
0.9157640196
0.9137880788
0.001307260702
0.9148686137
0.002147569085
0.9157071593
0.002616720524
0.9160142803
0.0009651991761
0.9166550301
0.001467051984
0.4579174818
0.001168052131
-0.4581203348
-0.4580703635
-0.001446063548
0.457725062
0.00179136495
-0.4578769635
-0.002213565523
0.4573750206
0.001271462913
0.001444045506
-0.2288580307
-0.001528604084
0.2287295273
0.001657107539
-0.002184023468
-0.2287842013
0.2286184571
0.002349767664
-0.002977293331
-0.2287453888
0.2285457154
0.003176966668
-0.003820592838
-0.2287861483
0.2285879823
0.004018758893
-0.004528947919
-0.2289210145
0.2287792417
0.004670613332
-0.004700440468
-0.2291386339
0.229041656
0.004797595823
-0.004841849916
-0.2293245384
0.2293838762
0.00478251211
-0.004350224646
-0.229441248
0.2296026284
0.004188844319
-0.003621085977
-0.2294825859
0.229691686
0.00341198587
-0.002825638942
-0.2294634673
0.2296692154
0.002619890836
-0.002112401155
-0.2294081094
0.2295805213
0.001939989292
-0.4588862025
-0.002886336798
0.4603262994
0.001446239884
-0.0001388788826
0.4609358738
-0.001542210719
-0.4592547842
-0.00182880829
0.9181167984
0.0005883289644
0.001766819436
-0.00113124695
0.9179987864
0.0002835720785
0.9143492006
0.9140716508
0.001673880726
0.913194733
0.00442427986
0.9129567601
0.00753877762
0.9128997826
0.003355665138
0.9139674824
0.006870660109
-0.4577462047
0.4574139142
0.003687955723
-0.4573542581
-0.003867056284
0.4577661425
0.003455171818
-0.456686419
-0.003821160894
0.456119566
0.002118570711
0.002269443208
-0.2281024265
-0.002603591959
0.2278273261
0.002878692374
-0.2278043166
-0.003844581921
0.2274393156
0.004209582987
-0.2276399465
-0.005180929123
0.2283801657
0.004432978376
-0.2299523735
-0.001994180602
0.230461693
0.0014517426
-0.2299043189
-0.0005911731357
0.2299649065
0.0005069647986
-0.2286323797
-0.0007114225345
0.2284787549
0.0008701421463
-0.2277006691
-0.001630413649
0.227394273
0.001967109297
-0.2285425399
-0.003438791556
0.2279025016
0.004109518763
-0.2305998075
-0.006488303471
0.2307863915
0.006303340639
-0.2305311493
-0.005131435251
0.2309104322
0.004752152314
-0.003432488788
-0.230347282
0.2310372677
0.002742503097
-0.4629603772
0.0002971760634
0.4617961965
0.0008670046732
-0.4600231938
-0.001013097743
0.4599999707
0.001036320813
-0.0001601538842
0.9197683373
-0.0008796686331
-0.0006117164247
0.001397490577
0.9164411419
0.0006425625885
0.9151041285
0.9147142134
0.0006794933235
0.9125152396
0.001518162886
0.9121180906
0.003090783237
0.9113271622
0.003808408
0.9104601309
0.002789726827
-0.4564651622
0.4558262121
0.004447358101
-0.4590336802
-0.005911416176
0.4556774024
0.009267693973
-0.4571840468
-0.01089669497
0.4582910497
0.003205050403
0.006584641723
-0.2268068224
-0.0034499046
0.2264535587
0.003803168289
-0.2265459889
-0.004905542359
0.2269250539
0.004508036306
-0.2296603987
-0.004257739477
0.2293366603
0.004499800522
-0.2300604165
-0.006095402348
0.2292094709
0.00686167992
-0.228813393
-0.009455891906
0.2279400092
0.01028551595
-0.2278774637
-0.01212445185
0.2275968278
0.01241818718
-0.2276580098
-0.01212513432
0.2281705514
0.01167853187
-0.2280444757
-0.009736428076
0.2288506554
0.00902426656
-0.2295781374
-0.007264567077
0.2300140672
0.006901400463
-0.2346332947
-0.002078126349
0.2384036713
-0.001689322744
-0.003499882174
-0.2319552921
0.2319851436
0.003470030591
-0.4617856012
-0.005121888974
0.4629816444
0.003925845729
-0.4607077185
-0.002738850518
0.4616664697
0.001780099281
0.002508803944
0.9196050276
-0.001253515249
-0.001091978994
0.001766145811
0.9171838001
0.0008048818644
0.9160653925
0.9155190953
0.0002436467539
0.9122715929
0.0006104542765
0.9117512831
0.001283753445
0.910653863
0.001916695097
0.9088067818
0.001020407409
-0.4553371483
0.4543364969
0.002917346579
-0.4539114289
-0.003618697524
0.4529303934
0.004599733
-0.4516958219
-0.00590451064
0.4503793198
0.003749742072
0.003471270612
-0.2265903685
-0.005927105165
0.224578519
0.007937988616
-0.2266955737
-0.01165788571
0.2278477247
0.01040611552
-0.2260629628
-0.01068802065
0.22434954
0.01225777572
-0.2245655863
-0.01790301352
0.2224063604
0.01995026099
-0.223787393
-0.02604382826
0.2219054146
0.02787904609
-0.2264312703
-0.03178798494
0.2258971944
0.03233731694
-0.2308814526
-0.03128345469
0.2322967906
0.02994640874
-0.2335571628
-0.0234114048
0.2359748586
0.02112966305
-0.2416284733
-0.006894533684
0.2396114464
0.009048971151
-0.2336066744
-0.008180080412
0.2347772361
0.007087370999
-0.005009369773
-0.2333928515
0.2339378029
0.004464418347
-0.4646089599
-0.005766234441
0.4661451106
0.00423008367
-0.4625533113
-0.003152259025
0.4634544422
0.002251128161
0.003104352875
0.9212610127
-0.002718961932
-0.002041375999
0.001643674339
0.9186444786
0.0007297285748
0.9169793383
0.9162488239
-0.0001467703685
0.9124183633
-0.0001264068494
0.9117309195
0.0002715069253
0.9102559493
0.0006311417014
0.907930859
0.0005162880752
-0.4532564043
0.4527193602
0.001168185872
-0.4520681045
-0.002396451907
0.4509648361
0.003499720321
-0.449002883
-0.004483994075
0.4474469006
0.00302654002
0.003013436421
-0.2223513011
-0.00412233072
0.221310214
0.005112137081
-0.2194721729
-0.009717558794
0.2173354789
0.01169575448
-0.2192224401
-0.02058737114
0.2150291697
0.02460895682
-0.2163547858
-0.03315803738
0.2154858143
0.03392825401
-0.2152534852
-0.04097737476
0.2139418965
0.04226621225
-0.2235585886
-0.04884636299
0.2225734455
0.04983446538
-0.23894475
-0.04547722657
0.2402859532
0.04418016802
-0.2505004186
-0.03109151745
0.2498051438
0.0319203324
-0.2442911461
-0.02539334288
0.247650999
0.02221341745
-0.2407419987
-0.01349670167
0.2434343812
0.01094928476
-0.004755412027
-0.2362472305
0.2371912652
0.003831706715
-0.4674462983
-0.005648044268
0.4687183701
0.004375972459
-0.4639454251
-0.003448787925
0.4643718052
0.003022407842
0.002289186702
0.923210326
-0.001995279276
-0.002243220729
0.001173016781
0.9197606485
0.0004445134111
0.9177078416
0.9166933373
-0.0007286810412
0.9131470443
-0.001270406271
0.9122726448
-0.0015487287
0.9105342717
-7.394130148e-05
0.9074431797
-0.0009871080952
-0.4524434751
0.4519764929
0.0003930409549
-0.4496153295
-0.0008192218538
0.4489930072
0.001441544167
-0.4466055413
-0.002721336407
0.4457676997
0.001756115087
0.001802858702
-0.217241279
-0.003776685643
0.2156737873
0.005250116998
-0.2100955429
-0.01111788362
0.2081690497
0.01284572979
-0.2065523922
-0.01976344752
0.2042014966
0.02194214814
-0.2046112033
-0.02925417895
0.2012867913
0.0325202652
-0.2040855301
-0.05032704021
0.103220737
0.09731253195
0.02477313053
0.02910617085
-0.03572405323
-0.1086139519
0.1080526912
0.03628531392
-0.02881784695
-0.2526831869
0.0542498905
-0.02918411067
0.1278408608
0.1285943932
-0.04388614985
-0.2571368039
0.2610906847
0.04001978718
-0.2588926605
-0.0278377724
0.2620552506
0.02486507862
-0.2520095659
-0.01652554608
0.2551517703
0.0135617699
-0.006327366094
-0.2414798448
0.2432612957
0.004614477211
-0.4699477604
-0.004350780637
0.4706094916
0.003689049375
-0.4652254959
-0.002676146041
0.4660440328
0.00185760924
0.0007996257246
0.9244274352
-0.0008642925334
-0.001152442435
0.0001960464588
0.9203642278
-8.821373287e-06
0.9179127095
0.9166845159
-0.001374554482
0.9145215988
-0.002658104109
0.9135561944
-0.003677711632
0.9115538792
-0.001859631991
0.9082696117
-0.002644511651
-0.4519014029
0.4518491529
-0.001807381981
-0.4486510893
0.00180031631
0.4484661651
-0.001615392027
-0.4439927126
0.001345260021
0.4431428856
-0.0002430488721
-0.000260734562
-0.2110851884
-0.001661255255
0.2097747119
0.002854219831
-0.2012166973
-0.007572647302
0.1993456245
0.009237892777
-0.1981927594
-0.01448543504
0.1964101498
0.01610484124
-0.1960954158
-0.01979189804
0.195358268
0.02050974424
-0.08768763363
-0.01310253098
0.08734961924
0.01344054537
-0.0352734345
-0.1427259059
0.1457869836
0.03221235681
-0.03948699849
-0.2726999211
0.2763844969
0.03584724694
-0.2727414084
-0.02584349705
0.2760822178
0.02267995177
-0.2646773642
-0.01384040642
0.2675337042
0.01118403767
-0.005936387634
-0.248573409
0.2504286348
0.004176098089
-0.4716159102
-0.001910991916
0.4723856413
0.001141260868
-0.4666565241
-0.0006388038811
0.467126226
0.0001691019488
-0.001435637682
0.9247138487
0.0008642830245
0.000284941198
-0.001171657802
0.9201002479
-0.0006339706362
0.9173750223
0.9160505453
-0.002039571524
0.9165611703
-0.003994220967
0.9155108439
-0.00600144487
0.9135611032
-0.003511455182
0.9100934313
-0.004313809295
-0.4521309456
0.4524058214
-0.00378633094
-0.448559182
0.004117616914
0.4488893949
-0.004447829819
-0.4426737125
0.004778118098
0.4425261162
-0.002131377258
-0.002518920337
-0.2060588101
0.0009596573246
0.2048835343
9.447633461e-05
-0.1938464512
-0.004156875796
0.192202263
0.005602596011
-0.1927497595
-0.009224846326
0.1918669502
0.009958487536
-0.1961477587
-0.009931647284
0.1970203559
0.009051052041
-0.09119273541
-0.002266018983
0.09194967221
0.001509082181
-0.01556325127
-0.1589656867
0.159405339
0.01512359901
-0.02256808979
-0.2838363254
0.2849308841
0.0214974978
-0.2838932129
-0.01712501879
0.2858185644
0.01536132369
-0.274957934
-0.00951428819
0.2770159356
0.007652205819
-0.002640552998
-0.2549263539
0.2563042353
0.001368330447
-0.4733722228
0.001319933653
0.4741205184
-0.002068229235
-0.4672680783
0.002310415391
0.4672646118
-0.002306948843
-0.004070400715
0.9236315408
0.002831164231
0.002321544398
-0.002805022815
0.91883487
-0.001436028647
0.9160060281
0.9146145166
-0.002670017856
0.9192311882
-0.005461987452
0.9183028135
-0.008222060432
0.9163211761
-0.005175357745
0.9130316021
-0.005984873459
-0.4530213274
0.4536391759
-0.005793206283
-0.4494073658
0.006522589224
0.4502507007
-0.007365924055
-0.4426247416
0.008231807201
0.442903345
-0.004032502424
-0.004505787403
-0.2016760472
0.003053507179
0.2006285891
-0.002125660282
-0.1877529179
-0.001346641401
0.1864037154
0.002507231364
-0.1899348535
-0.004998569592
0.189527621
0.005268599458
-0.2003695741
-0.003685364274
0.2016186481
0.002432093692
-0.09604253344
0.0009366997337
0.09650359423
-0.000676815416
-0.000720945096
0.003361367725
-0.1559686401
0.1548506902
-0.002243417812
-0.003481263309
-0.2852142208
0.2843719377
0.004347895503
-0.290055255
-0.004426040454
0.2908100901
0.00382667428
-0.2819630187
-0.001100502426
0.2831426061
0.0001096690571
0.002227696665
-0.2586654867
0.259208981
-0.00266936605
-0.4738837775
0.005687948752
0.4731828147
-0.004986985943
-0.4668974322
0.004657244625
0.4670398016
-0.004799614047
-0.006913303384
0.9211551513
0.005015372003
0.004374320868
-0.004536401004
0.9164579677
-0.002284330091
0.9137539572
0.9123301865
-0.003364778318
0.9225959665
-0.006750379505
0.9216884147
-0.01034588503
0.9199166817
-0.006755973849
0.9169611399
-0.007519449034
-0.454569066
0.4555026923
-0.007689600208
-0.4512553209
0.008825747119
0.4524007243
-0.009971150572
-0.4434950691
0.01129471619
0.4442126158
-0.005878807805
-0.006172021278
-0.1975995258
0.004726245169
0.1966072595
-0.003852208335
-0.1826449583
0.0006982607344
0.1814698933
0.0002979503609
-0.1887530938
-0.002105220702
0.1886234291
0.002109650486
-0.2054406695
0.0002367384998
0.2067193567
-0.00151687494
-0.09925451194
0.002612323926
0.09958335983
-0.001455628999
-0.001485542816
0.0132649055
-0.1453896968
0.1439271382
-0.01180234686
0.01071422345
-0.2809227212
0.2798653521
-0.00961726284
-0.2926441123
0.009602025486
0.2908123058
-0.007617035227
-0.2854118098
0.007581022528
0.2855508154
-0.00754240918
0.007023451413
-0.2585393188
0.2582051802
-0.006603493275
-0.4721394219
0.009771238807
0.4707992614
-0.008431078383
-0.4670456787
0.007228547684
0.4659441325
-0.006127001445
-0.009512240741
0.9175119847
0.006799559612
0.006355847767
-0.006193616221
0.9131393431
-0.003049949383
0.9106102904
0.9092802372
-0.003978595094
0.9265745616
-0.008022203437
0.925732023
-0.01228369868
0.9241781769
-0.008139171051
0.9214057036
-0.008589091291
-0.4566857657
0.4578564071
-0.009309812436
-0.4538110271
0.01068430965
0.4553164946
-0.01218977719
-0.4446787717
0.01385623997
0.4459077551
-0.007003850386
-0.008132671249
-0.1936010281
0.005661147483
0.1925518312
-0.004728135331
-0.1781229781
0.00160696056
0.17705923
-0.0007115209492
-0.1885902075
-0.000572545561
0.188718787
0.0003311096449
-0.2105971719
0.002878929093
0.2119185509
-0.004200417731
-0.1017643064
0.004021666943
0.1020852338
-0.00215102548
-0.002191568859
0.01646716363
-0.1341195257
0.1327264398
-0.01507407774
0.01884249524
-0.2766150707
0.276093646
-0.01825953445
-0.2905327818
0.01428365335
0.2937088752
-0.01730621713
-0.2849687593
0.01804308921
0.2844801718
-0.01738971028
0.01127687163
-0.2545927478
0.2529630957
-0.009583602905
-0.469213385
0.01312626594
0.4673912843
-0.01130416523
-0.4647790525
0.009697220701
0.4633770292
-0.008295197326
-0.0118131156
0.9145380732
0.007626756169
0.007160270979
-0.007628570263
0.9089547978
-0.003714109721
0.9066958299
0.9055661275
-0.008199955022
0.9347745166
-0.01662071257
0.9341527806
-0.02523150495
0.9327889693
-0.0094777356
0.9306157459
-0.02496381169
-0.4593032536
0.4607257151
-0.01090019707
-0.4568929296
0.01249201601
0.4586824228
-0.0142815092
-0.4444514285
0.0161234315
0.4421527871
-0.006630983521
-0.007268363191
-0.1898433573
0.003581869872
0.1879175635
-0.001766646461
-0.1739715095
0.0005870528766
0.1735625442
-0.0003339066664
-0.1895218073
0.001267733727
0.188353736
-0.0002023602547
-0.2159753843
0.004289565699
0.2173681896
-0.002839126485
-0.002843244585
-0.05242957943
0.002636318678
0.05253362953
-0.002740368774
-0.05820936527
0.006196182909
0.0577168524
-0.01203075614
0.006327086098
0.01453012767
-0.1245343912
0.2452906927
-0.02486717157
0.01406571301
-0.1244849706
-0.2746097321
0.02377353364
0.2764477744
-0.02552725104
-0.2933172464
0.02350621575
0.2924997791
-0.02253136402
-0.2818408203
0.01897701306
0.2804756673
-0.01747236492
0.01210112863
-0.2454671318
0.2434499414
-0.01005193034
-0.4652508444
0.01536213311
0.4631140222
-0.01322531095
-0.46192308
0.01155388909
0.460367812
-0.00999862101
-0.01362417172
0.9103479556
0.009137741758
0.008676547638
-0.008790340273
0.9041209664
-0.004327779878
0.9022332695
0.9012383476
-0.004714081133
0.9394885978
-0.009572561815
0.9390112613
-0.0147279932
0.9379444007
-0.01007051714
0.9362521943
-0.01029392443
-0.4642059167
0.465712673
-0.01157727339
-0.4622565034
0.01326140076
0.464080861
-0.01508575839
-0.441550999
0.01708092103
0.4459224575
-0.01027395491
-0.01126804669
-0.1839142452
0.01107892545
0.1838045277
-0.01108698516
-0.1702205527
0.009822383681
0.1693546955
-0.009110273969
-0.1918865728
0.006727263507
0.1910321438
-0.00596509216
-0.2219591276
0.004504451958
0.2232959198
-0.00293370581
-0.002907538323
-0.05494828062
0.00533581575
0.1103348344
-0.05493117599
-0.002898982724
-0.002892210849
-0.1119217096
0.007976055056
0.1117484956
-0.01552928761
0.007726446627
0.02371694471
-0.2383020891
0.237949143
-0.0233606167
-0.2770631435
0.02382618498
0.2777120089
-0.02437436702
-0.2896411046
0.02404934522
0.2947267318
-0.02898737663
-0.2756487399
0.02596513593
0.2700790766
-0.02028573806
0.01172967593
-0.2344843059
0.2326454741
-0.009885991057
-0.4612264858
0.01624292194
0.4595238716
-0.0145403077
-0.4587981368
0.01287911184
0.4569851221
-0.01106609706
-0.01314270207
0.9053211895
0.009020214138
0.009149254009
-0.009525161389
0.9005034258
-0.004667084754
0.8973751929
0.8965712629
-0.004902644031
0.9443912418
-0.009943402751
0.94405202
-0.0152632291
0.9432642271
-0.01044559187
0.9420122556
-0.0105776985
-0.4673071069
0.4688899699
-0.01202845485
-0.4659097703
0.01373942095
0.4677289831
-0.01555863374
-0.4534513175
0.01752381734
0.4621310707
-0.01315440019
-0.01308655417
-0.1871360195
0.01929976832
0.1896319514
-0.0218963577
-0.1683109744
0.02697297486
0.1687812456
-0.02759178958
-0.1858276434
0.02573905153
0.1837997269
-0.02382132385
-0.2206860546
0.01405340037
0.2161783268
-0.009569585966
-0.1135167561
0.008176406348
0.2272892628
-0.008433694887
-0.1135152182
-0.225633793
0.01492956407
0.2261754559
-0.01547122701
-0.2459013944
0.02454276903
0.2500906851
-0.02869606182
-0.2828174656
0.03562445782
0.2835303025
-0.03622320966
-0.2920771128
0.03383243417
0.2902736489
-0.03189012692
-0.2608827882
0.02371567051
0.2611822071
-0.02393979503
0.01205287819
-0.2309363959
0.2285843608
-0.009700843141
-0.4580024346
0.01795383846
0.454812039
-0.01476344279
-0.4551477618
0.01321396897
0.4530633767
-0.0111295839
-0.0135542826
0.9003823
0.009324994899
0.009168177285
-0.009597633997
0.8965467772
-0.004881250794
0.8926588097
0.8916900121
-0.004959320206
0.9493505621
-0.01004051977
0.9491332196
-0.01536285855
0.9485865659
-0.01052670757
0.9477172342
-0.0105411296
-0.4704578557
0.4720291115
-0.01209796332
-0.4695156511
0.01376654963
0.4712622014
-0.01551309996
-0.4683137512
0.0173628877
0.4703988053
-0.00981401187
-0.009634121221
-0.2017492497
0.02104780371
0.2073508997
-0.02671110514
-0.1741085831
0.04109537506
0.1775020817
-0.04461290215
-0.1798647171
0.05022937456
0.1798982447
-0.05038175783
-0.2049559069
0.04639545844
0.2025638862
-0.04407145504
-0.2205801424
0.03721648614
0.2165724972
-0.033229204
-0.2359409077
0.03991608957
0.238730496
-0.04269334869
-0.2609247552
0.05143115793
0.2632234517
-0.05366878776
-0.2836593395
0.05528212983
0.2824461048
-0.05395943694
-0.2813090862
0.04478153354
0.2769355498
-0.04029966717
-0.2478694073
0.02435994971
0.2422202301
-0.01867175012
0.01151880341
-0.2265968324
0.2259763424
-0.0108983134
-0.4540020426
0.01829120529
0.4512428061
-0.01553196882
-0.4501628532
0.01207684785
0.4485283328
-0.01044232749
-0.01275184812
0.893984378
0.00983980104
0.009309969082
-0.007200508893
0.890995438
-0.004936731279
0.8903950321
0.8867532808
-0.004901069914
0.954251632
-0.00990382105
0.9541359707
-0.01510299683
0.9537857416
-0.01035867815
0.9532285562
-0.01025564068
-0.4735421665
0.4750421011
-0.0118586128
-0.4729501989
0.01343312613
0.4745760217
-0.01505894888
-0.4722779423
0.01675296025
0.4740525179
-0.009322797594
-0.009204738318
-0.228266255
0.01038385463
0.2347935404
-0.01691966984
-0.1931309602
0.04037258949
0.2000719104
-0.04738916478
-0.1856354019
0.06422597857
0.1895327183
-0.06821963557
-0.2007917539
0.07566622233
0.2019798433
-0.07692788215
-0.2057023516
0.07234933477
0.2045973584
-0.0712753425
-0.2429014097
0.07818025596
0.2430245006
-0.07828788662
-0.264243065
0.07665501477
0.2626433201
-0.074995321
-0.2735998402
0.06542307033
0.2688712319
-0.06061119455
-0.2594698507
0.04205930058
0.2523469555
-0.03487691237
-0.2253602632
0.01322718673
0.224452552
-0.01231907926
0.01071303314
-0.2242949155
0.223777097
-0.01019521466
-0.4474952502
0.01733819274
0.4457075394
-0.01555048193
-0.4469078721
0.01384789645
0.4452621602
-0.01220218451
-0.0119214453
0.8867162313
0.01048371217
0.008705879783
-0.006797239231
0.8858712319
-0.00456728594
0.8881650789
0.8821859949
-0.00475163176
0.9590032638
-0.009582701364
0.9589670404
-0.01456029128
0.9587633316
-0.009980889687
0.9584395445
-0.009790389811
-0.4764686431
0.4778667205
-0.0113789671
-0.4761265037
0.01282916946
0.477603176
-0.0143058417
-0.4757172772
0.01582013497
0.4772724857
-0.008762494091
-0.008612849372
-0.2374270304
0.009571016379
0.2378364487
-0.009980434649
-0.2247245935
0.01540017659
0.2336637071
-0.02435297506
-0.2065501344
0.04906929326
0.2136005517
-0.05616770282
-0.2085791308
0.07264259711
0.211193242
-0.07530373454
-0.211125619
0.07850653678
0.214771928
-0.08217437344
-0.2403891193
0.0830971208
0.2387259451
-0.08142146892
-0.2527859658
0.07200482872
0.2481916774
-0.06737212823
-0.2502902354
0.0492047971
0.243062185
-0.04193852751
-0.228482347
0.01790141744
0.2234042039
-0.01281904071
-0.2229872564
0.01150348165
0.2225582228
-0.01107444812
0.0097934342
-0.2223886928
0.2219635697
-0.009368311054
-0.4440382208
0.01611971585
0.4424856409
-0.01456713593
-0.4437325103
0.01305760157
0.4422483321
-0.01157342336
-0.01471434229
0.8813970545
0.009901491958
0.01013202712
-0.009664360286
0.8808212499
-0.001978798207
0.8804795168
0.8802071967
-0.004533390753
0.9635366545
-0.009123745677
0.9635573953
-0.01381166677
0.9634512527
-0.009451757247
0.9632846119
-0.009204976931
-0.4791848584
0.4804668028
-0.0107337016
-0.4789979508
0.01204710819
0.4803164628
-0.01336562012
-0.4787215564
0.01469610982
0.4800643738
-0.008095896588
-0.007943030579
-0.2389552103
0.008786590451
0.239295172
-0.009126552122
-0.2380659372
0.01013166654
0.2383933748
-0.01045910409
-0.2361650311
0.01141871731
0.2372024633
-0.01245666147
-0.2205691121
0.02752713778
0.2244752196
-0.03144321313
-0.2238283665
0.04165517192
0.2259866944
-0.04381979666
-0.2324625063
0.04254430658
0.2302366372
-0.04031419546
-0.2324947081
0.02868244427
0.2271781447
-0.02335912811
-0.2236530236
0.01253497674
0.2234136233
-0.01229557645
-0.2223414903
0.01147242996
0.2220387463
-0.01116968598
-0.2214204466
0.01020358274
0.2210851189
-0.009868255102
0.008843421754
-0.2208277744
0.2204789711
-0.008494618477
-0.4410447533
0.01475999238
0.4397115182
-0.01342675721
-0.4408824445
0.01210676794
0.4395643518
-0.01078867532
-0.01382408056
0.8765232146
0.00920739545
0.009490525045
-0.009120455734
0.8761176251
-0.004527417234
0.8758864783
0.8756797794
-0.004267931181
0.9678045857
-0.008572425485
0.9678618896
-0.01293098037
0.9678098076
-0.008826375102
0.9677318029
-0.008551796254
-0.4816661689
0.4828298495
-0.009990055755
-0.4815542722
0.0111665502
0.4827194111
-0.01233168909
-0.4813069954
0.01348997097
0.4824555415
-0.007385569983
-0.007252947059
-0.2402232785
0.007980348073
0.2405055597
-0.008262629213
-0.2392722789
0.009080475949
0.2395343493
-0.00934254637
-0.2379911069
0.0100935069
0.2382133555
-0.01031575549
-0.2268085338
0.01048602619
0.2266876456
-0.01036513794
-0.2287562926
0.01137593809
0.2289326131
-0.01155225854
-0.227505082
0.01158603017
0.2274837015
-0.01156464968
-0.2249057203
0.01135731821
0.2247947686
-0.01124636656
-0.2227913623
0.01080447599
0.2226110483
-0.01062416209
-0.2212438289
0.009999073207
0.2210112953
-0.009766539646
-0.2201898414
0.009013050001
0.2199239148
-0.008747123436
0.007919147426
-0.2195477255
0.2192588326
-0.007630254552
-0.4384786534
0.01337264429
0.4373394391
-0.01223343003
-0.4383585813
0.01108734803
0.4371976683
-0.009926435021
-0.01281476809
0.8721091446
0.008461981103
0.008766856946
-0.008490218662
0.8717930757
-0.004224767449
0.8716210271
0.871455012
-0.003974954001
0.9717795397
-0.007969218912
0.9718561545
-0.0119820966
0.9718226853
-0.008155639243
0.9717767962
-0.00787145065
-0.4839092662
0.4849577993
-0.009204172418
-0.4838094996
0.01025084675
0.4848334923
-0.01127483949
-0.483516349
0.01227956892
0.4844951779
-0.006684153842
-0.006574243949
-0.2412768136
0.007197418377
0.2415119937
-0.007432598392
-0.2402410427
0.008103221944
0.2404530613
-0.00831524052
-0.2387853008
0.008907787029
0.2389489086
-0.00907139481
-0.2263964445
0.009130171539
0.2263197163
-0.009053443394
-0.2293116325
0.009900947759
0.229402416
-0.009991731269
-0.2274155423
0.009988772828
0.2273912625
-0.009964493035
-0.2244995966
0.009790740077
0.2244115561
-0.00970269953
-0.2221350115
0.009357599672
0.2219947762
-0.009217364414
-0.2203934062
0.008729297359
0.2202105062
-0.008546397308
-0.219208586
0.007947201881
0.2189944705
-0.007733086319
0.007056577745
-0.2184910351
0.218249916
-0.006815458659
-0.4362860129
0.01203205933
0.4353118599
-0.01105790634
-0.4361398019
0.01006495832
0.4351212258
-0.00904638228
-0.01175851189
0.8681435631
0.007709006727
0.0080150867
-0.007819249295
0.8678538131
-0.00389919674
0.8677009746
0.8675558153
-0.003669932782
0.9754494725
-0.00734524683
0.9755314686
-0.01101199485
0.9754894333
-0.007473550757
0.9754322067
-0.007193854646
-0.4859226931
0.4868620361
-0.008412893738
-0.4857898969
0.009340266743
0.4866875676
-0.01023793751
-0.4854000064
0.0111098214
0.4862380954
-0.00602401418
-0.005923896205
-0.2421557213
0.006460811575
0.2423524457
-0.006657536024
-0.2410286916
0.00721266622
0.2412025407
-0.007386515275
-0.2393727277
0.007861318366
0.2394943981
-0.007982988803
-0.226146626
0.007980387382
0.2261071803
-0.007940941677
-0.2296023104
0.008647829532
0.2296503919
-0.008695910986
-0.2273147793
0.008667210776
0.227288289
-0.008640720515
-0.2241720434
0.008488781887
0.2240992557
-0.008415994159
-0.2216189793
0.008137007883
0.2215066927
-0.00802472124
-0.2197192796
0.00763413616
0.2195723888
-0.007487245364
-0.2184143901
0.007002438234
0.2182395885
-0.006827636623
0.006269411465
-0.2176123567
0.2174108671
-0.006067921876
-0.4344094961
0.01077493407
0.4335732128
-0.00993865077
-0.4341954418
0.009077954881
0.4333031528
-0.008185665922
-0.01070541156
0.8645988596
0.006978158433
0.007271956572
-0.007141667877
0.8642900694
-0.00356803071
0.8641273374
0.8639877846
-0.003365967526
0.97881544
-0.006726513577
0.9788920146
-0.01005865073
0.9788215704
-0.006807778511
0.9787213056
-0.006539971092
-0.4877212701
0.4885600467
-0.007646555161
-0.4875256186
0.008466851869
0.4883121418
-0.00925337499
-0.4870147057
0.01001006833
0.487734867
-0.00541149624
-0.005318733379
-0.242892771
0.005784135475
0.2430585919
-0.005949956363
-0.2416778126
0.00641453721
0.241822317
-0.006559041637
-0.2398101849
0.00694388641
0.239900925
-0.007034626527
-0.2260398499
0.007003197778
0.2260332866
-0.006996634469
-0.2297550043
0.007582127908
0.2297793217
-0.007606445362
-0.2272067799
0.00756110601
0.2271791396
-0.007533465728
-0.223898254
0.007397602319
0.223836375
-0.007335723355
-0.2212019256
0.007104006148
0.2211097735
-0.007011853962
-0.2191740878
0.006692471462
0.2190538974
-0.006572281107
-0.2177628022
0.006173737764
0.2176181792
-0.006029114803
0.005563468762
-0.2168775603
0.2167077993
-0.005393707832
-0.4327972792
0.009621706132
0.432077248
-0.008901674925
-0.4324929993
0.008154045236
0.4317109366
-0.007371982506
-0.009692889179
0.8614396105
0.006288427547
0.006563710726
-0.006483788755
0.861080969
-0.003244748031
0.8608882967
0.8607430365
-0.003071841419
0.9818872815
-0.006130223168
0.9819503964
-0.009146484947
0.9818378322
-0.006174168942
0.9816727196
-0.005923730056
-0.4893236
0.4900711906
-0.006921759492
-0.4890464776
0.007646923065
0.4897360449
-0.008336490368
-0.4884033744
0.008994263101
0.4890244331
-0.004851051
-0.00476427084
-0.2435157878
0.005170827206
0.2436567347
-0.005311774172
-0.2422197439
0.005704847971
0.2423412937
-0.005826397801
-0.240136578
0.006140962745
0.2402043419
-0.006208726622
-0.226055926
0.00616924171
0.226076269
-0.00618958476
-0.2298287046
0.006672339939
0.2298387011
-0.006682336475
-0.2270954811
0.006626219582
0.2270674846
-0.006598223086
-0.2236637443
0.00647512814
0.2236100995
-0.006421483336
-0.2208571112
0.006225017962
0.220779966
-0.00614787277
-0.2187253637
0.005881959143
0.2186254293
-0.005782024724
-0.2172213248
0.005449760747
0.2171002057
-0.005328641643
0.004936174094
-0.2162574456
0.2161131778
-0.004791906312
-0.4314079565
0.008578345572
0.4307855868
-0.007955975846
-0.4310012375
0.007304725563
0.4303148685
-0.006618356569
-0.008742835059
0.8586279382
0.005650970288
0.005903537061
-0.005861735402
0.8581998693
-0.002937735104
0.8579642964
0.8578053014
-0.002793994698
0.9846812762
-0.005568819843
0.9847252216
-0.008292708617
0.984561721
-0.005583474878
0.9843177789
-0.005354293034
-0.4907492281
0.4914151417
-0.006249388486
-0.4903802432
0.006890762848
0.4909857529
-0.007496272531
-0.4896020712
0.008069634245
0.4901398416
-0.004342721789
-0.004264682805
-0.2440467515
0.004618623527
0.2441675148
-0.004739386775
-0.2426770763
0.00507519508
0.242780232
-0.005178350819
-0.2403803794
0.005437170587
0.2404310527
-0.005487843811
-0.2261701558
0.005452796391
0.2262111624
-0.005493802963
-0.2298536766
0.005890724453
0.2298544534
-0.005891501242
-0.226983625
0.005828486083
0.226955788
-0.005800649127
-0.2234593657
0.005688160009
0.2234122021
-0.005640996438
-0.220566792
0.00547180947
0.2205011994
-0.005406216899
-0.2183504674
0.005181579044
0.2182662668
-0.005097378432
-0.2167661704
0.004817089926
0.2166636811
-0.004714600647
0.004380822984
-0.2157296531
0.2156061223
-0.00425729214
-0.4302057507
0.007645316205
0.429665296
-0.00710486154
-0.4296919756
0.006535631426
0.4290882871
-0.0059319429
-0.007869000345
0.856125677
0.005072016424
0.005299245117
-0.00528606884
0.8556169378
-0.002652606658
0.8553308342
0.8551526948
-0.00253606844
0.9872173446
-0.005049111111
0.9872382642
-0.007506091894
0.9870187018
-0.005041739809
0.9866878006
-0.004834373742
-0.4920175165
0.4926109803