/*--------------------------------*- C++ -*----------------------------------*\
| =========                 |                                                 |
| \\      /  F ield         | OpenFOAM: The Open Source CFD Toolbox           |
|  \\    /   O peration     | Version:  v1912                                 |
|   \\  /    A nd           | Website:  www.openfoam.com                      |
|    \\/     M anipulation  |                                                 |
\*---------------------------------------------------------------------------*/
FoamFile
{
    version     2.0;
    format      ascii;
    class       volScalarField;
    location    "2.12";
    object      k;
}
// * * * * * * * * * * * * * * * * * * * * * * * * * * * * * * * * * * * * * //

dimensions      [0 2 -2 0 0 0 0];


internalField   nonuniform List<scalar> 
12556
(
36.90868932
36.90873064
36.90877836
36.9087967
36.95437505
36.95459021
36.95497452
36.95600292
36.95819418
36.96245886
36.96965493
36.9794266
36.98873857
36.99348078
36.99217856
36.98489069
36.97541754
36.96691652
36.96124983
36.95749565
36.91110049
36.90955357
36.90882552
36.90842406
36.7274336
36.72762158
36.72778585
36.72803455
36.77339598
36.77452614
36.77705839
36.80356231
36.81383273
36.83369724
36.86718044
36.91323363
36.95952833
36.98856952
36.98373171
36.95003155
36.90486865
36.86338579
36.81286512
36.79189046
36.73667884
36.73144275
36.72889251
36.72773266
36.5473255
36.547759
36.5481603
36.54857408
36.59442365
36.59746696
36.60379095
36.63688883
36.66262551
36.71113399
36.79631846
36.90482375
36.98359126
37.02376703
37.01535916
36.96132485
36.87232924
36.77895305
36.68628839
36.64006898
36.57026455
36.55891093
36.55336584
36.55114069
36.36863042
36.36901851
36.36957318
36.37074676
36.41701902
36.42365974
36.4375065
36.48422102
36.53887625
36.65605529
36.83228587
37.00266237
37.10968118
37.14469211
37.113496
37.03319193
36.90823296
36.76333654
36.60262453
36.51336473
36.41595423
36.39412231
36.38336218
36.3791306
36.19193541
36.19234771
36.1932367
36.19549741
36.24338513
36.25518995
36.28042797
36.34889954
36.46859644
36.70253748
36.9887736
37.24994631
37.42111354
37.42800132
37.33467869
37.19311139
37.01887553
36.8121463
36.58943982
36.42265621
36.2786357
36.23732329
36.21789391
36.21032457
36.01701645
36.01747931
36.0189515
36.02312803
36.07407516
36.09448422
36.1400257
36.24342507
36.47301701
36.84216788
37.31605
37.80817761
38.11916255
38.05385382
37.76859667
37.49150749
37.2249282
36.93640833
36.62150343
36.37600557
36.15917227
36.08728256
36.05523043
36.04252182
35.84457934
35.84536416
35.84796249
35.85470001
35.90953778
35.94177918
36.01576118
36.17497475
36.52876231
37.08239243
37.8744551
39.04295427
39.82237555
39.62321076
38.57169832
37.98266422
37.54901743
37.13832442
36.6980391
36.37730589
36.05790294
35.94411985
35.89388406
35.87399103
35.67509756
35.67637108
35.68053013
35.69102918
35.75165761
35.79923267
35.90944162
36.13638372
36.60972953
37.37649063
38.62289998
41.15017192
42.28103103
39.91090829
38.68735475
37.99823925
37.41766584
36.81850062
36.3990544
35.974295
35.80816999
35.73395686
35.70486663
35.51000012
35.51220631
35.5188135
35.53399275
35.60222886
35.6684075
35.8208653
36.1190643
36.70739653
37.67595154
39.28957089
42.98409469
46.63175936
41.59590979
39.554243
38.53185714
37.75350398
36.96928951
36.4371212
35.90759328
35.68164288
35.57845869
35.5383647
35.34993303
35.35317988
35.3625046
35.38373385
35.46256113
35.54920157
35.7474195
36.11257446
36.80711049
37.94018031
39.76844688
43.79407317
49.75548791
43.15313979
40.45379916
39.11709915
38.11679323
37.13408826
36.48573523
35.85581067
35.56789711
35.43281519
35.38018984
35.19638057
35.20118043
35.21424643
35.24407843
35.33067343
35.4410552
35.68605506
36.11546363
36.91179834
38.1823578
40.16807424
43.80091512
51.32267961
44.34818752
41.30859136
39.69515711
38.47380912
37.29396971
36.53915916
35.81613115
35.47017845
35.30252731
35.23653484
35.04915829
35.05536522
35.07201465
35.11061723
35.20636757
35.34242767
35.63291849
36.12490098
37.01891956
38.41627761
40.55745164
43.40571814
51.99291909
45.20391945
42.04248206
40.21124416
38.7846807
37.43430658
36.59038415
35.78921455
35.3887966
35.19082461
35.11142082
34.90911449
34.91724421
34.93915757
34.98785747
35.08892951
35.25103028
35.58473594
36.13979463
37.12842063
38.65138981
40.98314621
42.8468216
47.64737601
51.78911643
45.80849621
42.61536532
40.6524479
39.03128626
37.54493805
36.63212131
35.76713699
35.3223493
35.09688004
35.00526933
34.77500119
34.7850269
34.81193898
34.86910929
34.98314991
35.17852598
35.56171564
36.16992674
37.26444591
38.93863153
41.47215698
41.51378115
55.96818902
51.74885951
46.18683777
43.10722605
40.96740504
39.18901164
37.62430819
36.66048042
35.74220656
35.26554019
35.01674411
34.91459351
34.64653237
34.65840529
34.69005889
34.75538356
34.87911884
35.0995667
35.51366637
36.14749936
37.27845759
39.03919373
41.77367965
37.50375223
55.47932615
51.32528437
46.43829139
43.40619361
41.16654342
39.26601052
37.66561434
36.67218778
35.71222257
35.21200746
34.94446708
34.83406034
34.52149203
34.53517515
34.57121632
34.6445677
34.77839957
35.02056081
35.46294191
36.09537811
37.21216449
38.96442887
41.64260224
33.94382412
53.38739666
50.91650055
46.67327681
43.62806803
41.22500307
39.27206098
37.66797677
36.66306438
35.66830697
35.15342939
34.87370914
34.7569349
34.39979424
34.41515197
34.45491173
34.53539829
34.67863578
34.93919196
35.40683985
36.04071796
37.09328087
38.73911348
41.13070214
36.54601721
49.91547124
50.67198006
46.77287529
43.63649644
41.1379515
39.22757603
37.63683745
36.6212016
35.61073709
35.0889859
34.79977377
34.67826008
34.27853293
34.29543404
34.33847233
34.42568107
34.57809487
34.85388458
35.34183513
35.9953534
36.99837208
38.49044383
40.56936069
38.46405728
42.99691799
50.13036738
46.57710313
43.36452503
40.92229254
39.10809018
37.5509474
36.54406998
35.5323392
35.00977331
34.71798388
34.59332153
34.15881329
34.17705157
34.22266249
34.31531088
34.4754603
34.76376906
35.26763141
35.93619897
36.9531084
38.37249143
40.16426248
38.30044252
36.23077613
48.97689232
45.99496448
42.94301256
40.66406625
38.93861506
37.42935228
36.44039591
35.4374626
34.91884998
34.62688096
34.50102616
34.0371852
34.05661164
34.1045325
34.2023879
34.37005479
34.66864366
35.18478354
35.86380523
36.89075198
38.3065994
39.8902198
36.67970504
35.74021616
47.79588899
45.32945613
42.53406655
40.39105375
38.74265451
37.2832868
36.3162511
35.32728499
34.81532834
34.5249869
34.3988232
33.91668499
33.93708009
33.98668796
34.08831106
34.26159827
34.56876653
35.09431941
35.78044921
36.81290281
38.21079482
39.54765408
34.82594004
35.84318084
46.71873843
44.71408021
42.14628284
40.11674272
38.53429317
37.12115811
36.17688872
35.20565153
34.70257708
34.41512911
34.28928344
33.79263441
33.81389863
33.86523152
33.97095218
34.15029365
34.46470044
34.99746064
35.68840741
36.72334325
38.09007769
39.15584392
33.05469694
35.77845265
45.73505822
44.13977245
41.78039201
39.84773454
38.3214095
36.94917825
36.02669272
35.0734997
34.57959078
34.29544666
34.170268
33.67076834
33.69270678
33.74522168
33.85345358
34.03647214
34.35721803
34.89553424
35.58972155
36.6248141
37.94799003
38.72303705
31.35045099
35.50205165
44.83172666
43.60042419
41.43343784
39.58701132
38.10852335
36.7717468
35.86917435
34.93550822
34.451692
34.17121438
34.04690163
33.54381938
33.56641727
33.62046611
33.73237319
33.92074651
34.24714699
34.78984179
35.48623363
36.51931747
37.78625708
38.25800247
29.65935685
35.08846156
44.00186533
43.09119962
41.10203436
39.33524174
37.89818791
36.59191591
35.70712736
34.79062857
34.31567756
34.03854514
33.91512605
33.42147098
33.44456049
33.49956876
33.61315953
33.80354178
34.13526723
34.68158756
35.37956724
36.40820334
37.60524234
37.77172267
28.05050722
34.60694502
43.23199838
42.60820681
40.78382919
39.09190586
37.69172839
36.41174498
35.54258342
34.64463385
34.17931137
33.90561973
33.78310021
33.29175344
33.31540986
33.37201365
33.489488
33.68553386
34.02224586
34.57178147
35.27098673
36.29203143
37.40554643
37.27054349
26.55271857
34.09621029
42.51173869
42.14814511
40.47715448
38.85610283
37.48963328
36.23252246
35.37707296
34.4931048
34.03513337
33.76424967
33.64252601
33.17064086
33.19470527
33.2521951
33.37070776
33.56696623
33.90864127
34.46122904
35.16136592
36.17075823
37.18988804
36.75866189
25.17638779
33.57471873
41.83405717
41.70830482
40.18071477
38.62699945
37.29195848
36.05503542
35.21154841
34.34478066
33.89562573
33.62771492
33.50673894
33.03811463
33.06274368
33.12201943
33.24508601
33.44851804
33.79489473
34.35051077
35.05119841
36.04412531
36.96046535
36.23964964
23.93196113
33.06346217
41.19256542
41.2863879
39.89337809
38.40385541
37.09852119
35.87969655
35.04679982
34.18960287
33.74588973
33.48018513
33.359826
32.92050751
32.94552881
33.00569709
33.12913331
33.33011671
33.68137237
34.24006534
34.940709
35.91200566
36.71923872
35.71654451
22.85039099
32.57301583
40.5846008
40.88053564
39.61419808
38.18605934
36.90907406
35.70672118
34.88311723
34.04307096
33.6076175
33.34444385
33.22465042
32.78435108
32.80999676
32.87218529
33.00115515
33.21257896
33.56839531
34.13021396
34.82993325
35.7744901
36.46923294
35.19184529
21.90503926
32.10671319
40.00716957
40.48923488
39.34234232
37.97306432
36.72332717
35.53619318
34.72102425
33.88463762
33.45262392
33.19118448
33.07185156
32.67323991
32.69929956
32.76245945
32.89110512
33.09541855
33.45622736
34.02119832
34.71880736
35.63185229
36.21320279
34.66778968
21.07309678
31.66571008
39.45766983
40.11123694
39.07710412
37.76439875
36.5410023
35.36814284
34.56040007
33.74406598
33.32008026
33.06075393
32.94182816
32.53135747
32.55814753
32.62354031
32.75869917
32.97985809
33.34514282
33.91322253
34.60723844
35.48451919
35.95165334
34.14682284
20.33955606
31.2491796
38.93441398
39.74548516
38.81789988
37.55967082
36.36186474
35.20258042
34.40186518
33.57990834
33.15759851
32.89976449
32.78119419
32.43095417
32.45818929
32.52472339
32.6592796
32.86480969
33.2354078
33.80643057
34.49515272
35.33297415
35.68536665
33.63122423
19.69490797
30.85664146
38.43607939
39.39114479
38.56421518
37.35851349
36.18562304
35.03955629
34.24493261
33.45157838
33.03676687
32.78053364
32.66224983
32.27943026
32.30753556
32.37646672
32.51750139
32.75257651
33.12753268
33.70112044
34.38250406
35.17770532
35.41535383
33.12293927
19.13518814
30.48792845
37.96173933
39.04757447
38.3156767
37.16065632
36.01212018
34.87943337
34.09100596
33.2745056
32.86123214
32.60655762
32.48857252
32.19532602
32.22392924
32.29419873
32.43652969
32.64161069
33.02244491
33.59818809
34.26925973
35.01920087
35.14268186
32.62372897
18.67537881
30.14298874
37.51055422
38.71424777
38.07200518
36.96588376
35.84118971
34.72354962
33.94007726
33.17014664
32.76084196
32.50709729
32.38928945
32.00323396
32.03310827
32.10670009
32.25630429
32.53785524
32.92249078
33.50078214
34.15573091
34.85845385
34.87022141
32.13824827
18.30198184
29.82349836
37.08547562
38.39344572
37.83397197
36.77448115
35.67287438
34.57621993
33.79803569
32.94195843
32.53532029
32.28338235
32.1659067
42.83721527
47.11003745
42.63574967
43.74004914
50.58691916
47.55014461
43.83262056
52.25797677
50.88263213
43.46942684
52.9311282
52.37107649
42.8858175
43.2661925
46.6879727
53.21628446
52.96987548
41.96844347
53.19440035
43.67191748
55.63651084
53.68238145
53.23884213
40.82774277
39.75846384
42.1945475
39.56267906
50.24461982
44.07382398
46.13861638
41.96914763
40.41202268
39.66036932
42.87767085
42.13854769
55.02455603
55.99092979
49.46487551
43.90560764
42.49502828
40.07203332
43.26737767
42.95943664
43.88051921
45.47697108
46.37324662
54.31955646
53.79095252
51.19538465
45.321336
44.32249775
40.47092884
43.20591447
43.27397237
43.67877178
42.15944229
43.97659138
55.50602084
54.84708407
40.88406626
42.97219632
43.18757808
43.18152291
37.71349752
39.99092653
39.48042649
56.17173252
55.95956348
41.37948445
42.47808574
42.92921967
42.53290108
32.23845435
34.63115504
40.4558382
54.42922367
53.52782596
46.80205046
48.43311291
43.18582539
46.43926752
55.8563621
50.55711518
45.14413551
49.68752198
54.54553825
46.48380698
47.16162109
43.46200977
47.75412582
46.56214529
48.4969253
47.89230791
53.85190733
54.86803495
49.25012509
55.64700274
55.05787916
54.76510602
55.70557711
49.01373883
44.15104518
45.32610755
43.88099669
45.02579756
43.35080876
46.48507681
45.12928751
54.72419027
54.39588314
51.79650383
55.54398949
55.74443898
55.02936002
55.49501087
51.61074359
40.11710581
42.04524207
43.63139919
41.16423946
38.80982804
43.23777591
41.29406458
55.92512428
55.57377233
34.77692259
37.5485758
43.14821426
40.03685595
35.75697709
32.89154193
38.67404765
35.95334315
40.62785379
56.43881989
56.19900582
39.46479292
39.80757383
32.17665453
42.48715192
50.13434064
31.89099429
72.97110669
32.80969606
31.89561279
49.46775277
39.1438362
42.00429916
40.53775535
42.03016319
45.53678101
42.80885624
59.68433801
46.35135656
43.36164722
47.24121774
47.35446068
45.1702773
51.95411646
46.23767239
45.60717395
50.88304168
50.0311187
48.68276859
52.62226187
56.71851693
56.5190594
47.20615684
45.81889743
42.27070647
53.44089631
45.00153575
51.51814488
43.70323545
48.80387782
44.54931988
48.29619635
44.72077114
52.73167641
55.8825555
55.99715805
55.75943157
55.8690419
52.66300773
39.90858144
45.45680367
45.99117938
41.30395172
40.89652632
42.77566544
43.61956833
41.37659236
41.3668018
63.66348718
47.4605115
59.33467242
45.59975502
56.28511868
46.67232584
56.09245458
56.16911617
53.9949304
53.9613229
41.04095806
43.47564872
55.2670754
41.38571968
43.3290389
44.77486171
41.43310621
55.18820368
38.95097941
42.7592066
42.42576298
52.56675732
50.76880863
46.66148105
33.69823884
40.6540798
40.16859026
41.26795557
40.82694409
33.85525859
57.21792814
53.85093509
47.6244349
54.10544122
55.0216048
50.22428876
53.80968278
47.84827415
44.67882683
49.41142444
44.44332126
54.35235776
50.0991843
45.1874052
52.13512012
57.03927323
53.81151274
53.42980332
47.19191965
43.61355766
47.11588054
48.35360522
46.75013764
49.72961884
43.97876577
46.35466269
48.25585186
54.44272439
54.53546002
55.35204374
53.00853433
52.40178089
53.62395827
53.1797705
55.30686384
55.76087748
51.06971289
50.06478248
52.17108665
51.36866602
55.81468787
44.26523545
44.15703575
45.89686894
45.81124861
54.85647488
45.28753391
54.80147694
40.23348307
40.07270951
42.32923779
42.19731674
43.83989915
47.60601351
55.74724483
44.04272052
41.09604103
36.47624298
41.82001564
41.41208952
42.309741
41.94750315
36.61617588
39.5602869
34.90930612
34.78767067
37.72158523
37.58519799
52.03571864
41.2010998
54.27486543
53.06368504
39.98204092
39.52907364
31.85462412
33.17307571
41.34212397
41.0179765
32.40139404
64.51759649
41.23803391
56.99102334
32.32302503
46.95663379
43.39019197
40.36611495
58.11974416
39.78552182
40.06434504
41.72454168
42.0334375
42.39116136
41.01459787
33.28363382
40.99161048
55.97997763
53.10088124
53.61140565
52.16899414
40.30544944
42.58601111
55.35935209
54.59580609
42.00589736
56.81677412
56.76377987
53.1013308
42.89877451
42.37017883
44.62738044
45.60852131
42.6565758
42.91870089
55.55584606
57.98006194
57.07243746
56.2292905
54.11710635
45.71876995
46.19222693
48.33874254
47.59009082
53.71299595
42.97548846
44.21443279
43.97459575
44.51352138
44.29143638
43.10752379
43.16984881
42.86411721
39.0835856
32.58466339
37.37750117
36.96375405
65.46916424
49.2657894
53.89221747
55.15589149
58.91026478
58.20770591
52.04111973
48.04500196
46.66531762
49.69311147
48.48050213
52.3914318
54.07257912
49.5141435
48.66331519
54.62343922
44.67838315
44.77593697
44.58315826
39.97134857
40.45450491
43.70312489
46.45017873
46.79309294
54.56935671
55.65505809
54.47629483
54.36655229
55.08107123
54.04779379
53.74368105
54.32137848
54.12559345
55.09686877
41.09504515
43.54557541
43.26682975
43.89182286
43.63473255
41.22442265
40.77504396
35.73174404
36.03502454
33.50558093
33.71041611
39.27196214
42.8596619
39.2018368
39.83552758
36.15529441
36.49245887
41.68178523
55.79138775
48.13082301
51.52286895
55.62108088
39.41505424
35.35449679
33.64793913
38.26916646
33.21078758
33.43662022
32.71600418
36.86143771
47.30403178
38.9699341
38.27446527
37.50307645
36.82953104
36.43563047
32.05667427
40.43638283
41.91994524
51.92671409
31.90008717
82.5273321
42.94269707
41.51277257
46.65198407
32.63519711
31.96526754
53.83595857
52.72091565
52.84289365
45.42282198
45.47096426
40.50979731
39.83455168
51.10451793
51.63175365
51.53849853
47.44099577
55.91330544
47.51818564
56.33082097
48.23644546
42.31011429
40.41992373
46.42554285
44.6820923
48.00204826
45.3879508
40.44491052
41.02731166
46.78013029
55.90345074
40.45129861
44.64882205
61.66883935
39.46091443
39.94548401
39.68736878
39.46778191
54.83848973
64.23956596
53.755756
50.41702803
57.35539297
54.49973566
49.77582006
46.98572303
51.63438097
55.38821455
54.81236887
55.76082441
56.24548196
56.77637573
55.76122607
46.48339997
45.85800925
54.05945828
46.51535257
46.9745185
45.19702727
46.24807746
47.14727959
53.75847891
47.46802311
46.70433168
41.13740822
41.38067008
41.68352523
51.31106615
50.54340653
42.70506582
48.94552629
47.65509475
50.23853135
49.34982484
42.25161214
41.02325394
42.57651144
41.06175621
37.95971733
37.50208595
32.87938891
34.17925248
38.46990916
38.08935007
56.00476977
55.50694402
55.08223609
50.34570605
50.87949096
49.37984947
50.1292403
55.36198156
52.41231169
51.03393151
50.85441419
50.98659491
51.05327766
52.6654545
52.82360557
48.23884547
49.12737019
55.53784901
55.95051326
58.55990384
58.22059065
54.82789376
59.60392692
60.27389827
60.48360578
59.23401226
58.20073183
60.4614169
59.13078129
52.20692655
57.38304508
58.5956302
42.3242923
47.29803811
46.4913857
48.05773918
47.51641152
42.85393986
45.36553761
44.8043574
46.20984178
45.55836121
47.94681732
50.12818232
49.63080775
50.73159253
50.28768548
48.37498388
44.93259529
48.7709292
48.23983531
49.4613041
48.94555958
45.27833336
50.63992161
49.71336622
54.16103243
54.63582614
51.97955313
50.97972587
39.54818691
39.07610256
40.36713661
39.71385517
38.32350984
37.86274592
38.92697093
38.46064264
43.90135796
43.36652864
44.62264539
44.08462193
42.29801108
40.78631825
43.17079409
42.63338932
45.40380182
44.61160628
47.27439269
45.89791275
45.85016267
44.18928236
44.91457823
44.35886389
44.01370667
35.3061803
35.61399872
40.64420041
33.93360891
33.71396932
34.23431452
34.02055622
33.61294581
39.46885298
33.79189122
35.06006649
37.24521523
38.93838956
42.73163729
36.90675355
35.17770343
37.76857884
37.09075064
34.60930089
34.33284917
35.04240922
34.71817288
41.81031556
36.61212028
37.01365394
48.00343496
42.45782742
47.29691335
44.23476303
47.09195818
41.9827327
57.60965258
39.3547531
55.68621657
49.83266053
35.24049387
34.17661849
32.93992614
33.14269817
38.13392861
37.09410303
32.74799524
32.88408594
51.80094789
32.00113432
36.24954049
35.55354727
64.94168828
71.8093321
31.8293655
75.92062277
56.40424068
40.87935759
32.5675501
64.34779608
43.36126663
73.97860464
44.91431044
32.07486592
41.88152114
39.93091752
38.77009797
50.09647026
49.75782163
52.40246821
46.81756707
46.43152458
50.01139895
41.56304159
39.95835639
39.37637597
56.00425318
55.90258745
53.10008206
44.58845432
44.08319617
46.49339568
51.05948245
44.54242662
44.64554688
40.86363172
41.19701285
43.37972871
48.95716036
52.13394416
54.69915034
45.89112748
45.14789744
45.03539666
45.24944825
45.1782346
46.01815206
44.96851776
43.20929831
40.20600382
52.09623496
53.44264866
56.08147678
38.95415733
38.59025419
34.29655866
55.43460951
57.10963129
51.82991042
44.99016509
44.83404122
44.84606197
44.70146981
41.91313432
42.51439361
42.80469438
43.69457749
45.4387633
35.57156397
39.45245008
39.07377425
44.72054555
42.9537487
39.69179853
32.25994901
32.28728581
33.01380825
41.8381918
52.88403077
48.15017837
39.72405943
47.53848514
45.50070077
31.88476982
32.74941378
32.22677951
32.2459263
31.90563125
60.10136365
45.12732177
40.86309486
41.85075499
50.33448383
40.29179636
41.17965986
50.23749937
52.76531381
46.18809293
44.71596077
46.48585171
46.93943632
40.25542433
40.14959339
58.92635774
60.98474161
62.49684106
53.26798435
59.77986503
42.40360001
42.650747
45.07218821
61.18490955
57.11146155
54.8639718
64.124441
61.74315022
40.99779821
42.18732429
41.58069963
46.2299166
45.59729012
42.27597035
52.25765548
51.57850193
41.95232401
44.8666696
42.16932509
42.33702919
43.63701059
39.8267914
40.15433911
56.95335167
57.66978078
54.44608786
54.45148358
53.46007082
53.30474622
50.74422789
51.64822096
51.30122414
53.14301457
52.94335553
53.4182459
46.89316664
47.95193255
52.33480749
53.5113208
58.34344399
55.05498438
58.63635547
58.96121909
56.49301529
40.82873214
42.82101274
42.32536163
46.21347742
45.99499014
43.39167618
40.366415
40.14337967
41.91961772
41.59682787
47.14404692
49.14117878
48.83874624
50.97829005
50.66847828
49.26209837
44.25492119
46.78206529
46.52460734
48.53347014
48.23617958
45.98895361
41.25528579
41.74468175
44.59629921
43.8143658
40.60964152
41.0954333
44.57732766
45.05009259
46.15834852
38.81736019
38.67931612
39.94445473
39.76645529
36.72601476
38.46745079
38.35193153
45.53191311
43.91498182
44.41295575
45.53510753
45.49078997
42.63215985
42.9359804
45.23688264
45.61149839
45.95525328
54.62427987
46.96783804
48.27371244
39.92578094
39.57397757
35.88578303
37.00735111
40.34837847
40.03129034
33.15894712
33.22633116
35.02194785
34.64634805
32.99780728
33.09080097
52.18340936
31.96865583
32.67722525
32.10756723
107.1311566
32.35273963
40.95349167
52.09800784
47.31161594
32.02528914
32.05513253
32.44185587
63.40231805
68.41403225
66.32321519
50.95258703
32.29616071
31.98965411
32.01048283
40.77513272
40.97702276
39.90883217
50.00585391
49.51384512
42.85855813
41.88184931
39.91143168
53.42460308
52.43512537
57.16544464
40.76011592
48.56798041
45.26440289
48.8067821
48.08183604
41.48811717
43.74895853
44.34334431
47.87766332
53.65468915
53.97002918
53.1691549
53.42009649
57.71498539
57.00527688
57.22216622
56.55479038
56.78221365
57.37253186
48.06397057
48.53072437
48.74461445
48.20347199
48.32947911
47.92639176
58.63419457
57.67458722
57.65659963
57.42201962
57.58976414
58.42322218
49.11692759
49.45264918
49.69230851
48.97566413
49.20738918
48.87844132
52.53159353
52.70811704
51.9132321
52.08954084
35.8153757
37.94115829
37.81856497
33.58668826
34.85379984
34.75947159
35.14825797
34.9660583
33.64973281
53.3217692
54.43026058
48.86549026
54.03679035
32.65243866
32.61727339
32.73937454
32.70035075
32.48228494
33.23614048
32.32802335
32.44502458
33.29047843
34.51869698
34.43186692
34.67973217
34.59811048
33.36044135
32.85402539
32.79100442
33.39849506
33.0042547
32.8719208
53.83550326
52.25006329
43.68629703
54.31698697
33.91786545
33.20295024
39.51073776
32.0843027
33.44477391
33.30334206
31.86184789
80.39348804
81.73280059
61.68389383
71.47716529
61.37923575
32.16581299
32.19979024
32.69448373
31.93194031
57.3280233
62.43892015
57.69729259
58.99553942
55.64555295
48.78130143
61.23836968
56.2911356
45.63724571
45.88191785
51.17434545
43.21763412
46.02627427
52.44127826
49.92690662
53.06188509
48.85114661
51.63439367
57.70447073
59.18568315
52.47429235
56.59338242
60.07316906
47.74844408
48.77110041
47.3124664
50.95274028
58.50539144
58.62740953
56.75093905
41.35124311
52.01820565
46.93400708
57.40080621
58.27542369
42.88635099
45.06189087
48.02954563
60.60105272
50.07984413
41.74826782
42.9554952
60.66225883
57.55155593
60.92528973
56.25983787
58.68785179
60.99392245
62.11693522
61.46602802
54.93182034
55.08202722
55.32171091
54.53310936
54.68117008
54.68525065
56.42093504
56.0840634
56.32167266
55.59040458
55.83091631
56.09142057
46.26693689
49.0111635
49.00604648
46.64199651
46.89916182
45.55301128
46.53920967
46.32198641
46.11243283
47.51325952
47.85178437
47.05817888
48.39285284
48.19090992
48.94212082
48.73130738
46.87376197
45.53979222
43.55940722
40.99176221
46.68863417
46.5031267
46.34026412
41.79558186
45.72149343
45.36055066
42.25459567
42.15263433
43.547032
56.52740322
54.93105618
52.35644869
52.01068063
51.24199894
53.13932329
52.77276366
52.52938879
59.50943646
59.16811602
54.70801335
59.61887928
61.6530707
56.33616368
59.36400718
59.49943747
58.46138246
57.2813784
57.15901744
57.48473864
57.45940303
58.35657996
59.93162187
60.06245887
58.98657981
61.61097541
61.5705593
61.41994892
61.57460386
58.79190555
60.56911632
61.17005968
62.6901886
60.57039258
44.93023958
44.78232057
42.25467279
43.0034794
45.64072554
45.48520001
40.82629341
40.58856216
41.32400051
41.06780798
49.7488966
49.4429829
47.53064966
48.8146545
50.36251574
50.05589008
47.35792185
47.08352688
44.62553374
45.60886774
47.93597444
47.65040259
50.38974667
50.44875246
50.7043082
49.94169067
50.19503176
50.01759918
51.60996758
51.38006097
51.54694678
50.95760876
51.18931942
51.34818106
39.38526969
36.80358385
36.94539976
36.54604886
36.67969753
39.23208871
40.09752284
37.41082212
37.6220803
37.08388612
37.241669
39.894195
38.15774635
35.79568073
35.93145591
35.57596781
35.70989219
38.03765849
38.7697537
36.28905079
36.42557509
36.03306107
36.17338483
38.62355115
39.18299245
39.02438817
43.72491078
41.79677291
41.9752194
41.42599438
41.58862633
43.53786107
39.5609474
39.38679078
37.75083259
37.5988946
42.04345766
40.15809624
40.22293419
37.93294405
38.38154156
41.38893068
43.01002521
41.06729066
41.20207159
40.70210939
40.80045113
42.78673301
38.12810294
38.0329049
44.96470843
45.14834336
45.42758112
43.35258299
43.94835403
44.40438357
45.90138937
45.89000703
46.13435645
46.15194936
44.66681358
44.11623841
44.60887255
44.12612446
45.60239111
45.38459243
43.98164595
35.39179949
37.40010573
37.270831
37.67861378
37.56239624
35.539257
33.87443321
33.77763374
34.16501981
34.07556839
33.58211915
33.60124784
33.96502252
36.12791646
35.49498088
37.0127105
36.7584297
34.76412779
35.60487665
34.871987
35.07027628
35.34718453
37.55622379
35.36075324
35.50253416
35.14412607
35.29382452
37.47626359
34.51872754
34.41404777
34.93127045
34.81668496
46.68022368
40.98234048
41.53734855
40.45386081
40.65653959
46.97964351
46.25957756
46.05432326
42.22781387
43.91094025
47.43485751
54.678872
43.31703081
45.21472791
40.62362951
41.85085588
55.43391068
32.50537646
32.45931638
32.58045002
32.54811558
32.65624773
32.90275372
34.4591941
32.29589445
32.23429723
32.40812111
32.34462569
33.00585734
34.17666673
34.08688899
34.34908922
34.25931677
33.06829391
32.78903182
33.81042697
33.68528846
34.00284261
33.91236216
32.83660804
51.28763766
33.22948929
32.94898965
31.95064983
62.93711935
89.24870341
94.753385
88.18004794
89.47599588
67.93759226
32.06021868
66.72486882
49.15427407
52.43392404
32.5078374
32.07706232
32.12640002
64.53190928
71.28975328
69.63531162
56.2745472
62.66521016
76.05770473
71.58612668
47.65442507
67.59710119
59.51063677
32.31775341
31.90164538
32.0966133
36.67749679
36.69189809
36.81039269
36.69831628
36.72623168
36.82728412
36.73781631
36.78596075
36.85696726
36.80462578
36.87566981
36.90033247
36.8971698
36.95702147
36.94805517
36.97055272
37.00281691
36.98281897
37.00842624
37.00815209
36.9891474
37.00281383
36.96877676
36.96081331
36.95354288
36.89373195
36.91683534
36.87217962
36.81128927
36.87334142
36.52085197
36.55183206
36.65460643
36.5662302
36.62930942
36.69657157
36.65876265
36.77203321
36.7710092
36.81337125
36.93326318
36.87982138
36.96608075
37.04723029
36.96803402
37.06648054
37.10180666
37.01834669
37.10308122
37.09022984
37.02143927
37.08003475
37.03036986
36.97847801
37.00833802
36.92525876
36.89592218
36.89296455
36.79257955
36.7987399
36.3812103
36.44648084
36.52128959
36.47967058
36.62413805
36.6177179
36.68188597
36.87110095
36.78613186
36.93589345
37.11469883
36.96484677
37.16624099
37.29843502
37.08960861
37.32079753
37.33937556
37.14491076
37.32715905
37.28591621
37.12589244
37.26320655
37.17754419
37.05733665
37.14335917
37.02636763
36.94374594
36.98310083
36.84284221
36.79822927
36.26627615
36.39895297
36.42766803
36.46513669
36.70504199
36.63780938
36.7971691
37.10786038
36.91560614
37.21481563
37.53501713
37.19060299
37.62568963
37.85195445
37.39118116
37.89427192
37.89273561
37.4293049
37.81761543
37.68658297
37.36322896
37.63206948
37.45951248
37.23317348
37.40067325
37.22369812
37.06573168
37.1620811
36.96998234
36.86634929
36.18847879
36.41403933
36.39913687
36.51249222
36.87196282
36.73895562
37.01408529
37.51864131
37.19091006
37.71122002
38.37977914
37.68394363
38.61975126
39.47898237
38.06369474
39.50199293
39.27900121
38.06095609
38.95682312
38.47760352
37.84008444
38.32490782
37.94761335
37.5577931
37.83797434
37.54887569
37.29133992
37.45568818
37.17813502
37.01272165
36.1450366
36.46044338
36.42392733
36.59192613
37.09603024
36.92184724
37.30542377
38.09546885
37.6500818
38.43148013
40.26640906
38.67560518
39.64236048
40.2742937
39.32147582
40.88459625
40.9558223
39.83223803
40.38797784
39.72967771
39.29368271
39.52605362
38.69977001
38.10615549
38.49892339
38.00807506
37.65149496
37.86684755
37.47294783
37.24167652
36.12216077
36.5160552
36.47000365
36.68281644
37.33037703
37.1498152
37.60426904
38.67250765
38.24758361
38.80973842
39.30535815
39.07322486
41.46351092
42.11831615
41.72359326
43.92019075
42.64560507
41.43466133
41.16798864
39.68162272
38.91690272
39.35784979
38.60552596
38.15160431
38.39949251
37.84131085
37.55679994
36.113204
36.58142491
36.5320052
36.78159515
37.55280165
37.38807835
37.87665229
39.12140857
38.79685069
39.42279913
40.05028557
39.89390001
43.11919412
44.15076755
44.00272872
48.0127677
45.5160424
44.47062677
42.78875255
40.72385719
39.91890351
40.28175223
39.25531585
38.74989035
38.97980758
38.2493684
37.93844399
36.1140792
36.65384374
36.59898156
36.88478764
37.76073717
37.60599756
38.12277479
39.48549831
39.21729578
39.87243617
40.56494978
40.44610264
43.8356083
44.80351975
44.83394772
50.49582387
47.57683945
46.92300767
44.06976487
41.66779313
40.9406148
41.13669407
39.90540072
39.40081597
39.56255459
38.66156905
38.35169256
36.12147267
36.73121283
36.67338645
36.99076973
37.96134038
37.81196777
38.35699496
39.83028408
39.57057103
40.26942786
41.02383831
40.90691587
43.76417275
44.21253198
44.37064344
51.66184053
48.73760978