/*--------------------------------*- C++ -*----------------------------------*\
| =========                 |                                                 |
| \\      /  F ield         | OpenFOAM: The Open Source CFD Toolbox           |
|  \\    /   O peration     | Version:  v1912                                 |
|   \\  /    A nd           | Website:  www.openfoam.com                      |
|    \\/     M anipulation  |                                                 |
\*---------------------------------------------------------------------------*/
FoamFile
{
    version     2.0;
    format      ascii;
    class       surfaceScalarField;
    location    "2.12";
    object      meshPhi;
}
// * * * * * * * * * * * * * * * * * * * * * * * * * * * * * * * * * * * * * //

dimensions      [0 3 -1 0 0 0 0];
oriented        oriented;


internalField   nonuniform List<scalar> 
25162
(
0
0
0
0
0
0
0
0
0
0
0
0
0
0
0
0
0
0
0
0
0
0
0
0
0
0
0
0
0
0
0
0
0
0
0
0
0
0
0
0
0
0
0
0
0
0
0
0
0
0
0
0
0
0
0
0
0
0
0
0
0
0
0
0
0
0
0
0
0
0
0
0
0
0
0
0
0
0
0
0
0
0
0
0
0
0
0
0
0
0
0
0
0
0
0
0
0
0
0
0
0
0
0
0
4.444093365e-09
-1.945514095e-08
2.17881814e-07
0
-9.151700344e-09
-1.851995949e-07
0
0
0
0
0
0
0
0
0
0
0
0
0
0
0
0
0
0
0
0
0
0
0
0
0
0
0
0
0
0
0
0
0
0
0
0
0
0
0
0
0
0
0
0
0
0
0
0
0
0
0
0
0
0
0
0
0
0
0
0
0
0
0
0
0
0
-2.089315603e-08
2.362914334e-07
1.920091504e-06
-1.541318028e-06
-7.507279915e-06
1.486112801e-05
1.756485993e-05
-2.118934871e-05
-9.786382216e-06
3.86500054e-05
1.712790802e-05
-4.261387597e-05
1.18591458e-06
4.621626924e-05
-2.04665374e-06
-4.465103832e-05
9.398031168e-06
3.365277944e-05
-1.670096297e-05
-2.85992441e-05
4.520216776e-06
1.267695798e-05
-1.206475937e-05
-7.986937228e-06
0
2.519742301e-07
-2.899294574e-07
0
0
0
0
0
0
0
0
0
0
0
0
0
0
0
0
0
0
0
0
0
0
0
0
0
0
0
0
0
0
0
0
0
0
0
0
0
0
0
0
0
0
0
0
0
0
0
0
0
0
0
-1.016641627e-06
3.33854148e-07
5.243973431e-06
-2.634488232e-06
-3.801744039e-05
2.719907663e-05
5.984493034e-05
-3.990397804e-05
-7.030674257e-05
8.073870304e-05
9.351103062e-05
-9.254596002e-05
-4.772941163e-05
0.0001150229142
5.941867918e-05
-0.0001175769726
6.142738657e-06
0.0001115881381
-7.956856468e-06
-0.0001058663414
4.677288779e-05
8.191325711e-05
-5.837870449e-05
-7.279593473e-05
4.981248149e-05
4.610213996e-05
-6.530110438e-05
-3.801482186e-05
2.074465065e-05
1.690474542e-05
-3.353971096e-05
-1.103705382e-05
0
3.077529813e-07
-7.774984096e-07
0
0
0
0
0
0
0
0
0
0
0
0
0
0
0
0
0
0
0
0
0
0
0
0
0
0
0
0
0
0
0
0
0
0
0
0
0
0
0
0
0
0
0
0
0
3.347135126e-07
-5.345528881e-08
-4.415655566e-05
1.014128491e-05
6.428268614e-05
-1.965385539e-05
-0.0001455231634
6.176191589e-05
0.0001775295132
-7.652313658e-05
-0.0001679344434
0.0001106780986
0.0001910575502
-0.0001169191443
-9.228734939e-05
0.000120249863
0.0001010029058
-0.0001174074455
1.394819773e-05
0.0001016758115
-1.581648163e-05
-9.453005541e-05
9.370046304e-05
6.833926391e-05
-0.000104928147
-5.861959687e-05
0.0001136135797
3.163201826e-05
-0.0001294327517
-2.49628222e-05
8.40796316e-05
6.54124163e-06
-9.88603052e-05
-8.444460382e-06
2.130243584e-05
4.960066959e-06
-3.240969034e-05
-2.986883984e-06
0
0
0
0
0
0
0
0
0
0
0
0
0
0
0
0
0
0
0
0
0
0
0
0
0
0
0
0
0
0
0
0
0
0
0
0
0
0
0
0
0
0
-1.061875249e-05
8.542567877e-08
1.746391845e-05
-9.29078889e-07
-0.0001426377893
1.261720389e-05
0.0001689838877
-1.942037906e-05
-0.000271666554
3.83940406e-05
0.0002983845244
-4.107631533e-05
-0.0002436220389
3.588091756e-05
0.0002598640589
-3.611440007e-05
-0.000115916649
1.874798133e-05
0.0001174962069
-1.531849508e-05
1.960277592e-05
9.312715611e-06
-2.002711897e-05
-7.989528717e-06
0.0001365969118
-4.420015909e-06
-0.0001444421492
1.077204985e-05
0.0001830721935
-3.786970328e-05
-0.0001977741922
4.190710987e-05
0.0001433479133
-3.677026936e-05
-0.0001567922928
3.173172881e-05
6.819810441e-05
-1.238718913e-05
-7.930075294e-05
7.136463273e-06
-1.330386082e-07
2.328885187e-06
-4.033429061e-06
2.085294463e-09
0
0
0
0
0
0
0
0
0
0
0
0
0
0
0
0
0
0
0
0
0
0
0
0
0
0
0
0
0
0
0
0
0
0
0
2.93888861e-07
6.926352351e-10
3.201411782e-08
-4.07997138e-05
-3.530622314e-06
4.961602594e-05
7.168444427e-06
-0.0002392298067
-2.061789258e-05
0.0002529691362
3.129994066e-05
-0.0003588963124
-5.284239972e-05
0.0003718394036
6.2101097e-05
-0.0002708768336
-9.409452098e-05
0.0002673451879
0.0001057532217
-0.0001204049181
-0.0001182071784
6.167942753e-05
6.458226162e-05
5.076539727e-05
6.158501009e-05
-4.971072951e-05
5.932268467e-06
-5.977678511e-06
4.975613955e-05
-5.391372039e-05
0.0001632345235
0.0001163415562
-6.307827756e-05
-8.434775928e-05
-7.82363224e-05
-0.0001221061118
0.0002314380578
-0.0002413190072
0.0001236498706
0.0001906579394
-0.0001068957839
-0.000202301686
9.850748185e-05
0.0001081384056
-5.622318498e-05
-0.0001167294125
4.029691908e-05
-6.987268119e-06
1.721761305e-05
-2.198333603e-05
2.07813101e-06
0
0
0
0
0
0
0
0
0
0
0
0
0
0
0
0
0
0
0
0
0
0
0
0
0
0
0
0
0
0
0
0
0
-1.234732875e-06
0
2.655064294e-06
4.271297998e-07
7.325475325e-07
-6.813248319e-05
-1.36849897e-05
7.039662588e-05
2.65597386e-05
-0.0002930106039
-8.263324425e-05
0.0002980223629
0.0001044570071
-0.0003937913404
-0.0001695484323
0.0003964461467
0.000188687105
-0.0002591255104
-0.0002278433751
0.0002571000793
0.0002325270934
-6.367521104e-05
-0.0001141708527
6.394629747e-05
0.0001138997663
-0.0001128290784
7.58236622e-05
-7.565778029e-05
0.0001126631965
-0.0002322161406
0.0002646579349
-0.0002689178507
0.0002306243804
0.0002249383747
-0.0001958922526
-0.0002286892006
0.0001758470246
0.0001340291117
-0.0001028228902
-0.0001367978108
7.831358441e-05
-2.195707512e-05
3.262808785e-05
-3.7235475e-05
9.432540784e-06
0
0
0
0
0
0
0
0
0
0
0
0
0
0
0
0
0
0
0
0
0
0
0
0
0
0
0
0
0
0
0
0
0
-3.456901234e-06
0
4.370636401e-06
1.726825158e-06
2.100834262e-06
-8.192561238e-05
-2.538691319e-05
8.437479217e-05
4.659116869e-05
-0.000314916017
-0.000136612444
0.0003183097724
0.0001715067752
-0.000402195069
-0.0002718852041
0.0004032808586
0.0002992979224
-0.0002539663138
-0.0003469539996
0.0002534644984
0.0003490103616
-6.320324422e-05
-0.0001710112913
6.319312329e-05
0.0001710214122
-0.0001719951532
7.532665172e-05
-7.523379089e-05
0.0001719022924
-0.0003504531328
0.0002770592735
-0.0002784140771
0.0003473579402
0.0002419676342
-0.0002978635153
-0.0002446691741
0.0002696795684
0.000147573181
-0.000165413253
-0.0001498441615
0.0001290585179
-3.812492569e-05
4.277758051e-05
-4.458981567e-05
1.843463346e-05
0
0
0
0
0
0
0
0
0
0
0
0
0
0
0
0
0
0
0
0
0
0
0
0
0
0
0
0
0
0
0
0
0
-5.258276525e-06
0
6.479393298e-06
3.4405824e-06
4.050447364e-06
-9.047424792e-05
-3.802512592e-05
9.293986946e-05
6.773205261e-05
-0.000326613574
-0.0001910441027
0.0003298851239
0.0002380539548
-0.0004058817273
-0.0003708127868
0.0004068566375
0.000406153478
-0.0002523402947
-0.000464420765
0.000251981233
0.0004659309273
-6.306474905e-05
-0.000229258787
6.312250787e-05
0.0001136333776
0.0001155676506
-0.0002308579643
7.480259655e-05
-7.46886363e-05
0.0002307440041
-0.0004671659516
0.0002768790233
-0.0002754548432
0.0004597802207
0.0002428521412
-0.0003853572961
-0.000241720099
0.0003465187437
0.0001483132675
-0.0002094595492
-0.0001475473704
0.0001632481532
-4.848820615e-05
4.334755679e-05
-4.27888104e-05
2.349058866e-05
0
0
0
0
0
0
0
0
0
0
0
0
0
0
0
0
0
0
0
0
0
0
0
0
0
0
0
0
0
0
0
0
0
-7.813863017e-06
0
9.348435558e-06
6.315238883e-06
7.239561747e-06
-0.0001006516921
-5.376345927e-05
0.0001033667987
9.276961945e-05
-0.0003398175423
-0.0002507522885
0.0003432188149
0.0003099785984
-0.0004096710942
-0.0004742857113
0.0004105874522
0.0005169445527
-0.0002510167736
-0.0005832925049
0.0002507644327
0.0005840918468
-6.294747441e-05
-0.000288412044
6.29480698e-05
0.0001432723287
0.0001451391199
-0.0002897443265
7.413354997e-05
-7.397643533e-05
0.0002895872119
-0.0005813669345
0.0002669564515
-0.0002624322366
0.000564552243
0.0002294455596
-0.0004495184414
-0.0002291558382
0.0004044141941
0.0001369676914
-0.0002346749397
-0.0001340984069
0.0001795508528
-4.744096969e-05
3.461939915e-05
-3.271605148e-05
2.047941053e-05
0
0
0
0
0
0
0
0
0
0
0
0
0
0
0
0
0
0
0
0
0
0
0
0
0
0
0
0
0
0
0
0
0
-1.120501781e-05
0
1.189495325e-05
1.078823799e-05
1.162016444e-05
-0.0001122326011
-7.297215093e-05
0.0001156974658
0.0001219515313
-0.0003539832258
-0.0003153652769
0.0003580563475
0.0003866370378
-0.0004133213363
-0.0005810260739
0.000414272383
0.0006302340733
-0.0002502365998
-0.0007017517858
0.0002502115696
0.0007018472021
-6.283395965e-05
-0.0003472896074
6.280560334e-05
0.0001726744072
0.0001746435564
-0.0003476542394
7.320382821e-05
-7.309060987e-05
0.0003475410211
-0.0006837642832
0.0002487953053
-0.0002430158933
0.000653865686
0.0002122736845
-0.0005071199123
-0.0002000167995
0.0004374091519
0.0001191930473
-0.0002323498739
-0.0001113423343
0.0001706581964
-3.664070018e-05
2.25409736e-05
-1.944812646e-05
1.202774804e-05
0
0
0
0
0
0
0
0
0
0
0
0
0
0
0
0
0
0
0
0
0
0
0
0
0
0
0
0
0
0
0
0
0
-1.669160692e-05
0
2.178854406e-05
1.905692363e-05
2.2492849e-05
-0.0001259565092
-9.806461352e-05
0.0001350123895
0.000156465423
-0.0003716331885
-0.0003881072303
0.0003760684571
0.000471791878
-0.000417071214
-0.0006964848213
0.0004209666688
0.0007484200146
-0.0002502078754
-0.0008199718356
0.0002505028359
0.000406159428
0.0004135174471
-3.238275018e-05
-0.0002019299154
3.243792416e-05
0.0002018747414
8.645075548e-07
-0.0001007240868
-6.491274915e-07
0.0002017157823
-0.0001012070756
-0.0004043642564
7.244205407e-05
-0.0001529527928
0.0008158876747
-0.0004115378413
8.052516163e-05
0.0002274766469
-0.0007639978552
-0.0002161119157
0.0007129504521
0.0001786118916
-0.0005202252498
-0.0001723696525
0.00044341372
9.322460101e-05
-0.0002154746021
-8.835599882e-05
0.0001496186677
-1.726846446e-05
8.19594467e-06
-6.475789323e-06
1.708772075e-06
0
0
0
0
0
0
0
0
0
0
0
0
0
0
0
0
0
0
0
0
0
0
0
0
0
0
0
0
0
0
0
0
0
-2.488861494e-05
0
2.043094048e-05
2.911670211e-05
2.74529562e-05
-0.000148730867
-0.0001317043613
0.0001440424775
0.0002061599516
-0.0003913189676
-0.0004830793426
0.0003849697183
0.0005798126976
-0.0004166081347
-0.0008253517498
0.0004149126693
0.0008805762021
-0.0002469366445
-0.0009386146664
0.0002469366445
0.0004657301901
0.0004728844762
-3.144027998e-05
-0.0004657301901
6.079157542e-05
-2.935129545e-05
0.0002318349692
0.0002338952209
6.058068218e-06
-0.0002318349708
-6.058065878e-06
0.0004657301901
-0.0002338952217
-0.0009386146664
0.000153754981
-0.0001521452517
0.0009349148978
0.0001966765363
-0.000813704617
-0.0001907360708
0.0007492994335
0.0001529939037
-0.000502114614
-0.0001406961687
0.0004104687116
6.741311616e-05
-0.000166280631
-6.164524743e-05
0.0001077056751
-2.653434984e-06
1.297593125e-06
-5.909235456e-07
0
0
0
0
0
0
0
0
0
0
0
0
0
0
0
0
0
0
0
0
0
0
0
0
0
0
0
0
0
0
0
0
0
0
-1.26627875e-05
0
4.61725327e-06
1.485289623e-05
9.502445172e-06
-0.0001113607978
-0.000105809524
9.592839577e-05
0.0001792123346
-0.0003371613913
-0.0004727084302
0.0003123125623
0.0005803775634
-0.0003960083186
-0.0008676813099
0.0003827121782
0.0009387897687
-0.0002546984808
-0.001052107297
0.0002591907308
0.001058668737
-6.079157541e-05
-0.001056834271
0.0001132293185
0.001056834271
-5.243774312e-05
2.047249854e-05
-0.001056834271
-2.047249854e-05
0.001056834271
0.0001409959709
-0.001033404061
-0.0001350457571
0.001000647358
0.0001654008651
-0.0008148870455
-0.000156727186
0.000729420766
0.0001144686793
-0.0004414269087
-0.0001072744222
0.0003458574376
3.957857669e-05
-0.0001068857524
-3.20564081e-05
5.573476284e-05
0
0
0
0
0
0
0
0
0
0
0
0
0
0
0
0
0
0
0
0
0
0
0
0
0
0
0
0
0
0
0
0
0
0
0
0
0
-1.122815401e-07
0
0
8.796430072e-08
0
-4.624652832e-05
-3.907527829e-05
3.139678698e-05
8.863566443e-05
-0.0002182902744
-0.0003330400444
0.0001834237031
0.0004345942623
-0.0003154372255
-0.0007398279084
0.0002843868335
0.0008287894882
-0.0002475911403
-0.001024057826
0.0002342301017
0.00106377487
-0.0001124856984
-0.001121862968
0.0001085925994
0.001126211918
1.925710814e-05
-0.001104397515
-1.795941377e-05
0.001083469409
0.00011164668
-0.0009638231047
-0.0001022299457
0.0009030991778
0.0001244852902
-0.0006677727486
-0.0001121380702
0.0005775530309
7.910687791e-05
-0.000305407864
-6.795959093e-05
0.0002232608394
1.402095058e-05
-4.155116547e-05
-8.526554134e-06
1.145550194e-05
0
0
0
0
0
0
0
0
0
0
0
0
0
0
0
0
0
0
0
0
0
0
0
0
0
0
0
0
0
0
0
0
0
0
0
0
0
0
0
0
0
0
-3.142034899e-06
-9.349610246e-08
5.100992644e-07
7.110859162e-06
-8.444821215e-05
-0.0001263387421
5.730635963e-05
0.0001934912347
-0.0001770135066
-0.0004343633433
0.00014079314
0.0005163480958
-0.000170950636
-0.0007271120481
0.0001451467528
0.0007795079287
-8.527416079e-05
-0.0008723857891
7.469417718e-05
0.0008817934876
1.218742108e-05
-0.0008482721067
-1.003333624e-05
0.0008174002365
7.086226594e-05
-0.0006719663355
-5.995381633e-05
0.0006087143957
7.220195683e-05
-0.0003938904768
-5.85600857e-05
0.0003200457631
3.276438147e-05
-0.000121866856
-2.191297739e-05
7.146185557e-05
1.284330657e-07
-3.101342283e-07
0
0
0
0
0
0
0
0
0
0
0
0
0
0
0
0
0
0
0
0
0
0
0
0
0
0
0
0
0
0
0
0
0
0
0
0
0
0
0
0
0
0
0
0
0
0
0
0
-6.265799686e-06
-3.38611128e-06
9.582432304e-07
1.586046961e-05
-4.945646836e-05
-0.0001119172047
2.828678605e-05
0.0001560868639
-6.912947473e-05
-0.0002914638296
4.77580047e-05
0.0003304818606
-4.051720541e-05
-0.0004082783064
2.988163496e-05
0.0004184628455
4.414150745e-06
-0.0003993055231
-3.031760373e-06
0.0003775121729
2.896281021e-05
-0.0002769113875
-2.010489481e-05
0.000235549429
2.127977283e-05
-0.0001090391638
-1.176285821e-05
7.200723695e-05
1.174392434e-06
-4.164304443e-06
-3.324706794e-09
4.50024595e-08
0
0
0
0
0
0
0
0
0
0
0
0
0
0
0
0
0
0
0
0
0
0
0
0
0
0
0
0
0
0
0
0
0
0
0
0
0
0
0
0
0
0
0
0
0
0
0
0
0
0
0
0
0
0
-1.467441006e-07
0
0
5.948294243e-07
-6.091707747e-06
-1.638055224e-05
9.497122641e-07
2.54142958e-05
-6.172881854e-06
-4.949819046e-05
2.049440762e-06
5.368532789e-05
5.050515e-07
-4.964981669e-05
-1.461488789e-07
4.323467045e-05
2.220787005e-06
-1.711767098e-05
-1.88219058e-07
9.427044906e-06
0
0
0
0
0
0
0
0
0
0
0
0
0
0
0
0
0
0
0
0
0
0
0
0
0
0
0
0
0
0
0
0
0
0
0
0
0
0
0
0
0
0
0
0
0
0
0
0
0
0
0
0
0
0
0
0
0
0
0
0
0
0
0
0
0
0
0
0
0
0
0
0
0
0
0
0
0
0
0
0
0
0
0
0
0
0
0
0
0
0
0
0
0
0
0
0
0
0
0
0
0
0
0
0
0
0
0
0
0
0
0
0
0
0
0
0
0
0
0
0
0
0
0
0
0
0
0
0
0
0
0
0
0
0
0
0
0
0
0
0
0
0
0
0
0
0
0
0
0
0
0
0
0
0
0
0
0
0
0
0
0
0
0
0
0
0
0
0
0
0
0
0
0
0
0
0
0
0
0
0
0
0
0
0
0
0
0
0
0
0
0
0
0
0
0
0
0
0
0
0
0
0
0
0
0
0
0
0
0
0
0
0
0
0
0
0
0
0
0
0
0
0
0
0
0
0
0
0
0
0
0
0
0
0
0
0
0
0
0
0
0
0
0
0
0
0
0
0
0
0
0
0
0
0
0
0
0
0
0
0
0
0
0
0
0
0
0
0
0
0
0
0
0
0
0
0
0
0
0
0
0
0
0
0
0
0
0
0
0
0
0
0
0
0
0
0
0
0
0
0
0
0
0
0
0
0
0
0
0
0
0
0
0
0
0
0
0
0
0
0
0
0
0
0
0
0
0
0
0
0
0
0
0
0
0
0
0
0
0
0
0
0
0
0
0
0
0
0
0
0
0
0
0
0
0
0
0
0
0
0
0
0
0
0
0
0
0
0
0
0
0
0
0
0
0
0
0
0
0
0
0
0
0
0
0
0
0
0
0
0
0
0
0
0
0
0
0
0
0
0
0
0
0
0
0
0
0
0
0
0
0
0
0
0
0
0
0
0
0
0
0
0
0
0
0
0
0
0
0
0
0
0
0
0
0
0
0
0
0
0
0
0
0
0
0
0
0
0
0
0
0
0
0
0
0
0
0
0
0
0
0
0
0
0
0
0
0
0
0
0
0
0
0
0
0
0
0
0
0
0
0
0
0
0
0
0
0
0
0
0
0
0
0
0
0
0
0
0
0
0
0
0
0
0
0
0
0
0
0
0
0
0
0
0
0
0
0
0
0
0
0
0
0
0
0
0
0
0
0
0
0
0
0
0
0
0
0
0
0
0
0
0
0
0
0
0
0
0
0
0
0
0
0
0
0
0
0
0
0
0
0
0
0
0
0
0
0
0
0
0
0
0
0
0
0
0
0
0
0
0
0
0
0
0
0
0
0
0
0
0
0
0
0
0
0
0
0
0
0
0
0
0
0
0
0
0
0
0
0
0
0
0
0
0
0
0
0
0
0
0
0
0
0
0
0
0
0
0
0
0
0
0
0
0
0
0
0
0
0
0
0
0
0
0
0
0
0
0
0
0
0
0
0
0
0
0
0
0
0
0
0
0
0
0
0
0
0
0
0
0
0
0
0
0
0
0
0
0
0
0
0
0
0
0
0
0
0
0
0
0
0
0
0
0
0
0
0
0
0
0
0
0
0
0
0
0
0
0
0
0
0
0
0
0
0
0
0
0
0
0
0
0
0
0
0
0
0
0
0
0
0
0
0
0
0
0
0
0
0
0
0
0
0
0
0
0
0
0
0
0
0
0
0
0
0
0
0
0
0
0
0
0
0
0
0
0
0
0
0
0
0
0
0
0
0
0
0
0
0
0
0
0
0
0
0
0
0
0
0
0
0
0
0
0
0
0
0
0
0
0
0
0
0
0
0
0
0
0
0
0
0
0
0
0
0
0
0
0
0
0
0
0
0
0
0
0
0
0
0
0
0
0
0
0
0
0
0
0
0
0
0
0
0
0
0
0
0
0
0
0
0
0
0
0
0
0
0
0
0
0
0
0
0
0
0
0
0
0
0
0
0
0
0
0
0
0
0
0
0
0
0
0
0
0
0
0
0
0
0
0
0
0
0
0
0
0
0
0
0
0
0
0
0
0
0
0
0
0
0
0
0
0
0
0
0
0
0
0
0
0
0
0
0
0
0
0
0
0
0
0
0
0
0
0
0
0
0
0
0
0
0
0
0
0
0
0
0
0
0
0
0
0
0
0
0
0
0
0
0
0
0
0
0
0
0
0
0
0
0
0
0
0
0
0
0
0
0
0
0
0
0
0
0
0
0
0
0
0
0
0
0
0
0
0
0
0
0
0
0
0
0
0
0
0
0
0
0
0
0
0
0
0
0
0
0
0
0
0
0
0
0
0
0
0
0
0
0
0
0
0
0
0
0
0
0
0
0
0
0
0
0
0
0
0
0
0
0
0
0
0
0
0
0
0
0
0
0
0
0
0
0
0
0
0
0
0
0
0
0
0
0
0
0
0
0
0
0
0
0
0
0
0
0
0
0
0
0
0
0
0
0
0
0
0
0
0
0
0
0
0
0
0
0
0
0
0
0
0
0
0
0
0
0
0
0
0
0
0
0
0
0
0
0
0
0
0
0
0
0
0
0
0
0
0
0
0
0
0
0
0
0
0
0
0
0
0
0
0
0
0
0
0
0
0
0
0
0
0
0
0
0
0
0
0
0
0
0
0
0
0
0
0
0
0
0
0
0
0
0
0
0
0
0
0
0
0
0
0
0
0
0
0
0
0
0
0
0
0
0
0
0
0
0
0
0
0
0
0
0
0
0
0
0
0
0
0
0
0
0
0
0
0
0
0
0
0
0
0
0
0
0
0
0
0
0
0
0
0
0
0
0
0
0
0
0
0
0
0
0
0
0
0
0
0
0
0
0
0
0
0
0
0
0
0
0
0
0
0
0
0
0
0
0
0
0
0
0
0
0
0
0
0
0
0
0
0
0
0
0
0
0
0
0
0
0
0
0
0
0
0
0
0
0
0
0
0
0
0
0
0
0
0
0
0
0
0
0
0
0
0
0
0
0
0
0
0
0
0
0
0
0
0
0
0
0
0
0
0
0
0
0
0
0
0
0
0
0
0
0
0
0
0
0
0
0
0
0
0
0
0
0
0
0
0
0
0
0
0
0
0
0
0
0
0
0
0
0
0
0
0
0
0
0
0
0
0
0
0
0
0
0
0
0
0
0
0
0
0
0
0
0
0
0
0
0
0
0
0
0
0
0
0
0
0
0
0
0
0
0
-0.0001638550072
0.0001638707227
-6.32189597e-05
-6.729540998e-05
0.0001642529432
6.737683621e-05
-8.325156011e-05
-8.10828093e-05
6.831041187e-05
-0.000113325557
-6.781393329e-05
-0.0002219109889
-6.303208665e-05
0.0001100816992
0.0001117966273
-6.644409289e-05
0.000223688167
6.658631782e-05
-0.000112829469
-0.0001110009229
-6.699901619e-05
-8.709588348e-05
-8.519566356e-05
-0.0002810205048
-6.293205371e-05
0.0001396141704
0.0001413909136
-6.589520761e-05
0.0002821377349
6.57591779e-05
-0.0001418668736
-0.0001401348316
-6.633162597e-05
-0.0001162684811
-0.0001147019501
-0.0003398313921
-6.279908296e-05
0.0001689949195
0.000170801596
-6.468503006e-05
0.0003401356487
6.496464392e-05
-0.0003404152626
-0.0002899334763
-6.57060578e-05
-0.0002002746069
0.0002002762616
-3.238440483e-05
0.0001004405083
2.636779111e-07
-2.306429645e-07
-0.0001004735433
-9.998089348e-05
0.0002001578395
1.128069913e-06
-6.379005093e-05
0.0003976077434
6.386447961e-05
-0.0003976821721
-0.0003478537827
-6.448548682e-05
-0.0002302056376
0.0002302056376
-3.144027998e-05
0.000230205642
1.046532196e-07
-1.046776486e-07
-0.0002302056175
-0.0001008365622
3.761532621e-07
0.0004583544493
-0.0002100459041
-8.713678076e-06
-3.331156923e-06
-0.0001116664906
0.0008965733162
-0.0004567935391
-0.0004467066516
5.55199107e-05
6.307345434e-05
-0.0004044528616
-6.370144569e-05
-0.0001065863895
0.0001064623609
-6.355118244e-05
-2.600342823e-06
-4.975785797e-05
2.647471291e-06
0.0001059238234
6.79960382e-05
-0.0001056094497
6.810012824e-05
-5.289104972e-05
-6.912279892e-05
-9.357372415e-06
3.469069272e-05
9.353252707e-06
-3.468657301e-05
5.620766651e-05
1.876995233e-05
-5.63254769e-05
-1.865214193e-05
0.0001641773787
7.540221624e-05
-0.0002579963023
0.0003202024
0.000258293921
-0.0003206007553
0.0002547838783
-0.0002318052204
-0.0002562500355
-0.0004349288715
0.0004365208451
-0.0002526736034
7.133756733e-05
-7.134475309e-05
-0.0002219038031
-7.146408922e-05
-0.000170986124
7.143892197e-05
-1.034326589e-05
4.921772038e-05
1.03129509e-05
-4.918740539e-05
9.493260516e-06
4.245309095e-05
-4.250874606e-05
-9.437605404e-06
0.0002236042704
7.488649314e-05
-0.0002570780109
0.0004385891731
0.0002574337155
-0.0004389644808
-0.0003506369581
-0.0002578522711
-0.000553680695
0.0005546561051
-0.0002512992624
7.119625483e-05
-7.1203961e-05
-0.0002810127986
-0.0002292489732
7.13277535e-05
6.304473302e-05
-0.0002516553842
-6.305584455e-05
0.0001248865992
0.0001267798965
1.826672481e-05
6.360787186e-05
-1.821259813e-05
-0.000126770375
6.310837645e-05
-1.82046926e-05
5.651554046e-05
-0.0001136126562
1.823558664e-05
5.706622172e-05
-9.112004101e-06
6.412601351e-05
9.161555374e-06
-6.417556478e-05
9.588275632e-06
5.70018375e-05
-5.682169553e-05
-9.768417603e-06
0.0002820995744
7.417171047e-05
-0.0002532472684
0.0005529337371
0.0002549401485
-0.0005556425338
-0.0004676981075
-0.0002566189195
-0.0006719755708
0.0006722650142
-0.0002503348137
7.105636506e-05
-7.106678204e-05
-0.0003398209751
-0.0002883874177
7.117162856e-05
6.278372376e-05
-0.0003105244182
-6.286861126e-05
0.0001544057096
0.000156203596
8.858492256e-06
7.83886222e-05
-8.868157074e-06
-7.837895738e-05
-1.816471524e-05
7.14257341e-05
-0.0001433002128
1.813853078e-05
7.19006632e-05
-1.708604187e-05
0.0001566439937
1.716791767e-05
-0.0001567258695
1.749952252e-05
0.0001441121831
-1.71767367e-05
-7.252753011e-05
-7.190743883e-05
-0.0007904708562
-0.0002502566278
0.0003915835102
0.0003989360984
7.103627944e-05
0.0001985928552
-7.096001448e-05
-0.0003989437271
-0.0003472824641
7.104922182e-05
3.239810569e-05
-0.0001857116501
0.0001857361613
-3.242261691e-05
8.938325547e-06
9.310055607e-05
-8.954632714e-06
-9.30842489e-05
-8.941422019e-06
8.610003037e-05
-8.607631903e-05
8.917710687e-06
-9.392730164e-05
-9.26373017e-07
9.36762085e-05
1.177466152e-06
-1.640959032e-05
0.000185852646
1.638681095e-05
-0.0001858298667
1.681856815e-05
0.0001731168596
-0.0001731339269
-1.680150084e-05
-0.000878341627
-0.0002478258089
0.0004208763421
0.0004583544493
6.915071331e-05
0.0002281488117
-6.915071331e-05
-0.0004583544493
0.0002041796005
-0.0004061071686
7.103393219e-05
3.238041872e-05
-0.0002150833287
0.0002150644082
-3.236149825e-05
8.824518751e-06
0.0001076164513
-8.726347516e-06
-0.0001077146226
-8.870529207e-06
0.0001005626079
-0.0001005518713
8.859792557e-06
-0.0005173535244
0.0005173535244
-6.079157542e-05
0.0005173535244
2.298383109e-06
-2.298383115e-06
-0.0005173535244
-0.0002318349592
1.046416187e-07
-1.617475101e-05
-7.005758944e-05
1.62430931e-05
3.471474934e-05
3.5274498e-05
1.619914496e-05
-8.278587171e-05
-1.617143532e-05
4.118452493e-05
4.157363714e-05
-5.637708762e-05
-1.721870414e-05
1.739597879e-05
5.619981297e-05
-6.839091725e-05
6.843901567e-05
-1.622284943e-05
4.196807528e-05
9.520585121e-06
-4.199539989e-05
3.505332869e-05
-3.508919252e-05
-9.321508585e-06
6.759365241e-05
0.0001424970152
-6.745242013e-05
-7.23994026e-05
-7.023884491e-05
2.046053074e-05
-3.545298639e-05
-2.03352044e-05
7.038098873e-05
-9.94775516e-06
4.19540539e-05
9.961776541e-06
5.604445104e-05
-1.816182379e-05
-0.0001117772754
5.568995558e-05
9.907310466e-05
-1.817268001e-05
-9.907801217e-05
1.817758752e-05
-6.312181106e-05
-0.0002000710155
6.311723438e-05
0.0002000755922
-1.608263207e-05
1.613140541e-05
4.930653189e-05
4.971779943e-05
8.359632841e-06
5.604830976e-05
-8.363491554e-06
-8.454667789e-05
1.623601643e-05
4.198824839e-05
4.252155803e-05
-9.733759503e-05
-1.61185833e-05
4.849331037e-05
4.888023589e-05
5.643443589e-05
9.396860395e-06
-5.624302065e-05
4.989583105e-05
-4.983172978e-05
-1.040736716e-05
3.445076033e-05
9.999887687e-05
-0.000100025901
-3.442373617e-05
1.075007441e-05
-1.075560734e-05
4.990136398e-05
-9.963955303e-06
5.655209319e-05
9.846297995e-06
-9.908886328e-06
4.241422212e-05
4.925747324e-05
1.071032155e-05
9.79983172e-05
3.445569871e-05
-9.800325558e-05
7.092137666e-05
-1.813926847e-05
-0.000141389752
7.044292855e-05
6.411137288e-05
-0.0001287385108
1.823872502e-05
6.46551377e-05
-0.0002591265239
6.29658967e-05
0.0001287035812
0.0001305017791
-8.418928936e-06
8.418015925e-06
6.411228589e-05
8.285331938e-06
7.093038749e-05
-8.294342769e-06
8.35866285e-06
5.651651045e-05
6.357255473e-05
-8.383611803e-06
0.0001420795892
1.748527767e-05
-7.126347143e-05
-7.080187291e-05
6.453602796e-05
-6.452891313e-05
-9.119118925e-06
6.591511169e-05
0.000260045151
-6.589964334e-05
-0.0001308519369
-0.0001292086825
1.97454556e-05
-6.480395835e-05
-1.963048345e-05
0.0001292250142
-1.950472077e-05
0.0001420478976
1.953641241e-05
-1.007919445e-05
5.711707664e-05
-6.355822197e-05
0.0001275032239
9.683000354e-06
1.024346685e-05
0.0002527833683
6.615553828e-05
-0.0001274085326
-0.0001256152623
8.562386816e-05
-8.972025296e-06
-8.559326488e-05
7.883451994e-05
-7.880728304e-05
8.831255347e-06
-0.0003176487889
6.285942898e-05
0.0001579434279
0.0001596296558
-8.374748236e-06
8.372899327e-06
7.883636885e-05
8.477946487e-06
8.565019582e-05
-8.504274151e-06
8.274800945e-06
7.143626509e-05
7.841968178e-05
-8.405807814e-06
0.0001713827682
1.685724814e-05
-0.0001714214482
0.0001586104911
-0.0001586224487
-1.707408424e-05
0.0001003404222
-8.875370346e-06
-0.000100335581
9.359661711e-05
-9.360814276e-05
8.949851199e-06
-0.0001875037455
3.239352576e-05
0.0001875083254
-9.484798467e-08
9.377562863e-05
-9.349474443e-05
-1.860362204e-07
-8.420999929e-06
8.409421414e-06
9.360819562e-05
8.283707192e-06
0.0001003408424
-8.284127405e-06
8.459425672e-06
8.611855118e-05
9.309276276e-05
-8.413206626e-06
3.787453689e-07
-9.440089499e-05
-3.042548246e-05
0.0003977737983
3.046256648e-05
-0.0001996933152
-0.0001981175672
0.0001875172869
-0.0001874830986
-1.644377857e-05
-9.223657247e-07
9.377162134e-05
0.0002320821621
1.742773285e-05
-0.000231087874
-9.709244824e-06
-8.712776088e-06
0.0001081039813
-0.0001081208754
8.841412767e-06
-0.0002168555828
3.24234067e-05
0.0002168125948
-2.99579886e-06
0.0002146245707
-0.0002148298424
3.201070561e-06
-7.582203677e-06
7.636733887e-06
0.0001080494511
1.469849923e-05
0.0002320009721
-8.16231312e-06
-6.454996081e-06
8.299582425e-06
0.0001005467327
-7.496890969e-06
0.0001075311386
0.0002129821318
-2.670869343e-06
-0.0002133070614
-0.0003173722963
0.000319851766
-0.0002547220641
-7.148938642e-05
-0.00016382971
-7.191229697e-05
-0.0001140491675
7.179061174e-05
6.340851199e-05
-0.0001350580636
0.000135032725
-6.338317332e-05
1.825210297e-05
-1.825599844e-05
-6.838702178e-05
-1.849393973e-05
-5.659028633e-05
1.870713844e-05
-7.771096076e-06
3.070649241e-05
3.272880582e-06
-2.620827692e-05
2.847708241e-05
5.852286973e-06
-2.884276401e-05
-5.486605367e-06
-0.0001928029138
0.0001928367528
-6.315565011e-05
-1.818292805e-05
-9.732734699e-05
-1.824645844e-05
-8.454735512e-05
1.824713568e-05
-2.461100358e-05
7.571563514e-05
1.090943657e-05
-6.201406813e-05
0.0003399837321
7.335574484e-05
-0.0002416870974
0.0006601598683
0.0002456524363
-0.0006721567759
-0.0005851605545
-0.0002514228109
-2.350313553e-05
8.992487195e-05
7.850884802e-06
-7.427262122e-05
-8.375878418e-06
0.0001786808526
8.507951532e-06
-8.962565427e-05
-8.918727146e-05
4.576064384e-06
8.638767754e-05
-8.637757054e-05
-4.586171376e-06
3.070017953e-07
0.0002127824523
-1.073222443e-07
-3.191830284e-05
0.0004253967036
3.114073028e-05
-0.0004246191311
0.0004046622342
-3.04152271e-05
-0.0002031611989
-0.0002015112906
-1.823406342e-05
-8.279826673e-05
-7.006279254e-05
1.825730607e-05
-0.0001416166211
6.330928327e-05
0.0001417158498
-3.934861101e-06
-3.876039399e-05
3.84585386e-06
3.884940123e-05
-2.883213457e-05
-5.326657929e-06
4.938235139e-06
2.922055736e-05
-3.10752913e-05
4.61631891e-06
3.118273622e-05
-4.723763828e-06
2.122800991e-05
-2.075186743e-05
5.573152403e-05
-3.408228068e-05
6.86487025e-05
2.058480165e-05
0.0001349219795
6.728230024e-05
-6.827324512e-05
-6.633738221e-05
8.607916743e-05
4.64899271e-06
-8.615209576e-05
5.544446622e-06
8.292479453e-05
-8.316939176e-05
-5.299849395e-06
6.540149817e-05
0.00031830999
-0.0003184837137
-6.52277744e-05
1.924661085e-05
-1.916854004e-05
0.0001585324203
-1.892498035e-05
0.0001713169599
1.899078869e-05
-1.939790868e-05
0.000144005371
0.0001566350438
1.925556068e-05
0.0003114032133
6.549790676e-05
-0.0003114996219
7.47228202e-07
9.756517598e-05
-9.788369294e-05
-4.287112472e-07
-0.0001034629365
2.474342112e-06
0.0001034023311
-2.413736711e-06
2.114035717e-06
0.0002067210605
-1.996001171e-06
-0.000103530799
-0.000103308296
3.850811733e-05
-6.403614944e-07
-3.852125758e-05
6.535017494e-07
-8.816425206e-05
-3.189731294e-05
1.682655698e-05
1.737130154e-05
4.15684875e-05
4.429521898e-05
-5.392788957e-05
5.511917862e-05
-1.840999319e-05
5.415266464e-05
1.881147672e-05
-5.419418903e-05
8.513050248e-05
3.660223765e-05
-4.351911993e-05
-3.939915916e-05
-1.947507899e-05
-1.933938205e-05
2.607934935e-06
-2.682115814e-06
3.858229821e-05
3.85436713e-05
-4.631476738e-05
1.842600983e-05
6.339884278e-05
-1.834718373e-05
-3.195472307e-05
-3.152294581e-05
6.227455255e-06
6.07874372e-07
3.170834167e-05
6.037037532e-06
-5.876615151e-06
2.831666003e-05
3.130570652e-05
5.62824115e-06
6.127227754e-05
1.820029377e-05
-3.080585225e-05
-3.024070922e-05
8.976364448e-06
4.597712659e-05
-4.598211032e-05
-8.971380713e-06
4.565549393e-05
9.020947354e-06
-4.570007684e-05
9.018500927e-06
6.096506087e-05
-6.092052656e-05
-9.063035233e-06
6.072296561e-05
9.1239029e-06
-6.082836758e-05
7.846287192e-05
-5.536473465e-06
4.97040244e-06
-7.789680089e-05
7.739219114e-05
-9.837137806e-05
-3.631816656e-06
1.730232669e-05
0.0001510877129
-0.0001510945508
-1.729548884e-05
6.724918017e-06
-5.634868731e-06
7.630214185e-05
-6.031967391e-06
7.862426361e-05
5.8705757e-06
6.024344852e-06
-1.108988366e-05
7.101016329e-05
-6.594462449e-05
7.528515875e-05
7.155394413e-06
0.0001493634946
1.733130603e-05
-7.490448978e-05
-7.448798411e-05
8.991449632e-05
-8.790170957e-06
-8.989799698e-05
8.77367161e-06
-2.42077476e-05
-0.0001800334718
2.421362236e-05
0.000180027597
2.41972698e-05
-0.0001857226526
0.0001857468712
-2.422148834e-05
-7.968195482e-06
0.0001858658829
8.050275375e-06
-0.0001859479628
0.0001804522488
-8.23033761e-06
-9.05562199e-05
-9.004156973e-05
-0.000115485005
1.895089275e-07
9.179236059e-05
-8.884598274e-06
0.0001044712708
-0.0001044689164
8.882243935e-06
-2.416906062e-05
-0.0002094330794
2.419707517e-05
0.0002094050648
2.420126264e-05
-0.0002150494646
-2.411078449e-05
0.0001072273883
0.0001077315981
-2.419847491e-05
-0.0002018574714
2.423415575e-05
0.0002018217905
-0.0002075762302
0.0002075728257
-2.416565613e-05
0.0001038610271
-8.854278102e-06
-0.0001038913473
-3.498443453e-05
-4.258124695e-06
-3.523278037e-06
4.276583727e-05
-3.816392996e-05
-3.911976208e-06
3.814104506e-05
1.619926453e-05
-7.5589102e-05
-1.618212525e-05
3.749530985e-05
3.807665287e-05
4.749621234e-06
-4.747576833e-06
-3.816597436e-05
-4.728792819e-06
-3.492919291e-05
4.67355119e-06
3.98945488e-06
-1.986659079e-06
-4.14735555e-05
3.94707597e-05
-3.873999653e-05
4.72922377e-06
-7.751514041e-05
1.61052818e-05
3.862107485e-05
3.898804829e-05
1.635236402e-05
-6.211354003e-05
6.213195788e-05
-1.637078187e-05
4.964343628e-06
-4.921151061e-06
-3.111848387e-05
-6.50896239e-06
-2.790937412e-05
5.586201936e-06
3.447788308e-05
-4.758435613e-06
-3.444824029e-05
3.139379161e-05
-3.146299422e-05