/*--------------------------------*- C++ -*----------------------------------*\
| =========                 |                                                 |
| \\      /  F ield         | OpenFOAM: The Open Source CFD Toolbox           |
|  \\    /   O peration     | Version:  v1912                                 |
|   \\  /    A nd           | Website:  www.openfoam.com                      |
|    \\/     M anipulation  |                                                 |
\*---------------------------------------------------------------------------*/
FoamFile
{
    version     2.0;
    format      ascii;
    class       surfaceVectorField;
    location    "2.12";
    object      Uf;
}
// * * * * * * * * * * * * * * * * * * * * * * * * * * * * * * * * * * * * * //

dimensions      [0 1 -1 0 0 0 0];


internalField   nonuniform List<vector> 
25162
(
(99.99955311 0.001529628661 -1.80311251e-21)
(99.99856756 0.001168661593 5.336546589e-21)
(99.99902891 0.004820199559 -1.785254472e-21)
(99.99692018 0.005079577973 1.789671901e-21)
(99.99801231 0.01177300501 -3.565304845e-21)
(99.99349384 0.01400716061 1.073119208e-20)
(99.99889829 0.0156608508 1.117563673e-21)
(99.98710668 0.03199743049 -7.110592741e-21)
(99.9939373 0.03544919644 -1.186829719e-21)
(99.99768441 0.02958760533 1.728424594e-21)
(99.99932732 0.01813429898 8.624756879e-22)
(99.99271007 0.05437185418 1.723194714e-21)
(99.99831015 0.03153597844 8.477752531e-22)
(99.99874974 0.02373900573 -8.655471623e-22)
(99.99785767 0.0414848901 8.477406274e-22)
(99.98825634 0.09472014822 1.691376141e-21)
(99.99756941 0.05404463955 0)
(99.99736337 0.06829150736 -3.170470326e-21)
(99.98396098 0.1525727439 -3.170453825e-21)
(99.99693665 0.08544940471 -8.243140661e-22)
(99.99639962 0.1058292999 2.765603991e-21)
(99.97780859 0.2339602769 3.052305094e-21)
(99.99584783 0.1295895549 3.775888645e-22)
(99.99532249 0.1567280886 -2.609200207e-21)
(99.97169211 0.3423756564 3.67791764e-22)
(99.99488281 0.1870270155 -2.742066785e-21)
(99.99461408 0.219880935 1.366457777e-22)
(99.9680304 0.4732532512 -1.877712631e-21)
(99.99461577 0.2541008814 2.397084353e-21)
(99.99494343 0.288058454 2.139224328e-21)
(99.97043763 0.6084527874 -9.693595973e-22)
(99.9955815 0.3197598886 0)
(99.9965021 0.3470667322 0)
(99.98022583 0.7175376211 2.718003729e-22)
(99.99759465 0.368271311 0)
(99.99877727 0.3817265278 3.174695911e-23)
(99.99532246 0.7718123814 3.833402507e-25)
(100.0001537 0.3867867405 5.682748912e-22)
(100.0015822 0.3825309382 1.650032825e-22)
(100.012058 0.7553417731 -3.88073103e-22)
(100.0028363 0.369648913 -6.253515239e-22)
(100.0038522 0.3495007108 9.387992201e-23)
(100.0239803 0.6752582246 1.437116878e-21)
(100.0045529 0.3238842726 3.567376297e-22)
(100.0049282 0.2947375777 0)
(100.0287581 0.5594001871 0)
(100.0050313 0.2639990732 0)
(100.0050872 0.2331177907 7.044730791e-22)
(100.0275753 0.4370124264 1.4621151e-21)
(100.0053916 0.2036447915 -3.575249206e-21)
(100.0053829 0.1743094694 -1.321512427e-21)
(100.0246833 0.3213514861 2.919205842e-21)
(100.0047735 0.1479321596 2.918988007e-21)
(100.0035975 0.1251751592 -8.524525371e-22)
(100.0153186 0.2280009305 -6.301272126e-23)
(100.0007076 0.1088130931 1.646651229e-21)
(100.0105365 0.1099628607 -7.504571177e-21)
(100.0585341 0.268434282 6.60658187e-22)
(100.0200027 0.2346861826 -2.697893463e-21)
(100.0031709 0.1101554774 -1.602470754e-21)
(100.0077803 0.0651651535 -9.561401974e-22)
(100.0418973 0.1680306756 1.512940965e-20)
(100.006674 0.03086318172 -7.692126749e-21)
(100.0322308 0.09154973841 -1.613370342e-20)
(100.0290859 0.02929611886 1.582399591e-21)
(99.99580301 0.003857122089 8.917888383e-21)
(99.9949452 0.00102347609 1.887947608e-22)
(99.99081118 0.01267694571 1.428621132e-20)
(99.98866199 0.006074686235 -1.244787116e-20)
(99.98162685 0.031782215 7.42041368e-21)
(99.97562157 0.02042904117 -1.939918968e-20)
(99.97544574 0.06099622171 -1.247928214e-21)
(99.95404981 0.05055783742 3.73088907e-20)
(99.95747018 0.07330128262 -8.242145626e-21)
(99.96230316 0.08008774326 -1.764674794e-21)
(99.97078237 0.08274210347 3.497255504e-21)
(99.98264975 0.05740090389 1.738970113e-21)
(99.97064655 0.105712147 1.711115906e-21)
(99.96145442 0.1128824086 1.734540061e-21)
(99.93471387 0.1511444961 -3.491996292e-21)
(99.95082161 0.151299247 -1.115961381e-23)
(99.95276093 0.1838074975 1.691641581e-21)
(99.93791861 0.1996471471 -1.127685452e-23)
(99.89731828 0.2635609371 0)
(99.93119721 0.2420114561 0)
(99.91169942 0.2758571304 -2.118617729e-21)
(99.9321242 0.2888353361 -4.182815278e-21)
(99.92493575 0.3017576726 -3.906133108e-23)
(99.90219096 0.3501394218 -9.410520025e-21)
(99.91772926 0.3337285684 -3.234745826e-21)
(99.89314316 0.4698908711 2.795349842e-23)
(99.90503528 0.4466536784 -2.161872348e-21)
(99.86256327 0.544672542 -1.187335775e-20)
(99.88581047 0.5152613533 -2.887642295e-21)
(99.86022917 0.6991425829 -5.583914877e-21)
(99.87715827 0.6590265241 -5.225268823e-21)
(99.82162041 0.8079547453 3.693373636e-22)
(99.85376867 0.7584688205 -6.71333191e-21)
(99.83481163 0.9865743126 -1.067209738e-22)
(99.8572981 0.9202978666 -4.566641113e-21)
(99.79255251 1.135353159 -2.359655087e-21)
(99.8330295 1.055733517 -3.453663525e-21)
(99.83661448 1.300903728 -4.408977004e-21)
(99.86435477 1.198020364 -5.752820144e-21)
(99.80011735 1.489994246 -3.445104888e-21)
(99.84454252 1.369478564 -3.444152153e-21)
(99.87958876 1.574929624 4.365790841e-21)
(99.910405 1.430894612 -1.657076285e-21)
(99.85861293 1.791820602 -1.035282246e-21)
(99.89704457 1.630255139 -1.03527048e-21)
(99.95567391 1.732340939 1.296594143e-22)
(99.98325338 1.553626219 -5.352544263e-22)
(99.95501004 1.952247055 1.216493014e-20)
(99.97719626 1.762388317 -2.401827213e-22)
(100.0415427 1.735215075 -1.371642456e-22)
(100.0473699 1.531100147 -1.855071227e-22)
(100.0588632 1.929792623 -9.628572007e-23)
(100.0622744 1.722756546 1.280477657e-21)
(100.11401 1.584672638 1.825379612e-21)
(100.0904757 1.375244324 3.164877168e-21)
(100.1394715 1.736251771 3.187761388e-21)
(100.1253756 1.532126421 4.672383095e-22)
(100.1485661 1.332472552 -5.612475829e-21)
(100.1075513 1.141422982 -5.269068299e-21)
(100.1743333 1.439853679 -1.881753193e-21)
(100.1503685 1.260925136 -1.885075138e-21)
(100.1476278 1.05382239 -4.687952347e-21)
(100.0992216 0.8941098135 4.375097486e-22)
(100.1652295 1.123118742 -1.282370974e-21)
(100.1426881 0.9831512214 5.25036091e-21)
(100.099684 0.638127705 -1.26048137e-20)
(100.1565966 0.8635060441 -1.260383433e-20)
(100.2243225 0.9449560109 1.277125405e-20)
(100.1395658 0.7301375649 -2.601633106e-20)
(100.1210142 0.6126089995 1.122408959e-20)
(100.1699272 0.6601721481 -1.643077371e-20)
(100.1006903 0.5115412866 2.283298687e-20)
(100.075342 0.4486806134 2.540576474e-20)
(100.099714 0.3217239919 2.240682513e-20)
(100.2225571 0.5052177533 -2.628741625e-22)
(100.1670203 0.5526080391 4.624923003e-20)
(100.0982008 0.4399743007 2.557663606e-21)
(100.0750207 0.1910302885 -6.818061842e-22)
(100.1645501 0.315560886 3.22779673e-20)
(100.0620457 0.08886648137 -7.48366387e-21)
(100.1285552 0.1717037879 -1.712369262e-20)
(100.1129097 0.05469819512 7.693474223e-21)
(99.98965131 0.002310811368 -2.138321132e-20)
(99.99277509 -0.001684285512 -1.068653265e-20)
(99.97581437 0.01207800664 -4.639462436e-20)
(99.97950298 -0.0010073968 1.017549579e-20)
(99.95101278 0.03760137307 1.038961102e-20)
(99.95172428 0.01248315274 -3.928622696e-20)
(99.9213488 0.08645992969 2.375220841e-20)
(99.90691657 0.04515786751 4.277748544e-20)
(99.89507495 0.08977218812 -3.791844709e-20)
(99.93024176 0.09682133826 -7.089673161e-21)
(99.89434824 0.104818732 -5.233097447e-20)
(99.90184335 0.1248829851 -3.535894844e-21)
(99.88631318 0.1877014928 -6.980292822e-21)
(99.87441585 0.1749503621 -3.48171604e-21)
(99.82707746 0.2126340517 2.437275636e-20)
(99.84135431 0.2384140944 6.903497193e-21)
(99.82256659 0.3319547056 -6.064366252e-21)
(99.80200083 0.3178960454 4.437888826e-21)
(99.72991758 0.3852809952 -3.443203808e-20)
(99.77605156 0.4037167491 2.458063932e-21)
(99.74003442 0.4302735473 -1.504222851e-20)
(99.75757391 0.5229176478 -6.316295763e-21)
(99.74061839 0.5168577744 0)
(99.69526338 0.5716592118 6.488030829e-21)
(99.71576798 0.5834726985 -6.311404567e-21)
(99.65878978 0.827625471 3.120279096e-21)
(99.632462 0.8256134791 1.226784593e-20)
(99.57014319 0.911229272 6.092440507e-21)
(99.60287166 0.9204074142 1.526669246e-20)
(99.55246754 1.248496502 9.891050447e-23)
(99.51283243 1.256270659 -5.544598502e-21)
(99.43304747 1.387605756 -5.59130322e-21)
(99.48363382 1.385331191 -5.61360797e-21)
(99.46937541 1.805502431 -8.926207017e-19)
(99.40877259 1.837176696 -5.943914547e-19)
(99.32108303 2.039683038 2.547535283e-20)
(99.39349034 2.003749948 5.310635526e-19)
(99.48623242 2.438864722 -1.765298909e-21)
(99.40534568 2.523506401 9.352360217e-22)
(99.34440696 2.783702086 4.909809062e-19)
(99.4311398 2.688846935 3.758885386e-21)
(99.65780159 2.951531621 2.711068446e-19)
(99.55509902 3.096484913 -8.546970207e-20)
(99.57154564 3.379487454 2.632604285e-19)
(99.61578132 3.204275071 2.757615415e-20)
(99.89827233 3.225870454 8.581339919e-23)
(99.8455308 3.430016962 1.395181532e-22)
(99.88608991 3.690582075 -9.081548136e-20)
(99.92919372 3.459994638 1.487114864e-22)
(100.1755856 3.175753641 -7.078055714e-20)
(100.1690027 3.415747226 3.933988494e-21)
(100.2418373 3.614248188 -6.910969732e-20)
(100.2416594 3.356418902 -7.152319431e-20)
(100.3869086 2.831937906 2.237953754e-21)
(100.420084 3.07782686 -3.463740789e-20)
(100.5030826 3.208990515 1.443281182e-21)
(100.462786 2.954049747 4.814028164e-21)
(100.4786237 2.322457083 -5.269004271e-21)
(100.5389211 2.542659477 -1.209739939e-20)
(100.616596 2.615680778 -4.289794481e-21)
(100.5472222 2.395171715 4.95216861e-21)
(100.5328358 1.95817884 -1.597922564e-20)
(100.4638028 1.77857981 -1.082698507e-20)
(100.5953938 1.990836409 -1.084158569e-20)
(100.5217844 1.817333 5.870302157e-21)
(100.3980757 1.236773275 -4.978562011e-20)
(100.5250164 1.503305668 -2.610561028e-20)
(100.6243319 1.508736802 -7.540448155e-20)
(100.4692074 1.262729147 -3.474582e-20)
(100.3066036 0.8580107017 -5.843061083e-20)
(100.4117326 1.051266767 2.293509669e-20)
(100.4786444 1.036366821 -2.770232046e-20)
(100.3556683 0.8681703546 -2.426524865e-20)
(100.2806009 0.4946075519 1.041035838e-20)
(100.4800228 0.6831026876 -2.5221251e-20)
(100.4368008 0.816227258 -2.062884786e-22)
(100.3265153 0.7215796212 -1.452955997e-20)
(100.2120147 0.2926366578 1.508230321e-20)
(100.354604 0.4227026019 2.698973283e-20)
(100.1743468 0.1357157003 -1.934318613e-21)
(100.2766087 0.2287561325 -3.919192859e-21)
(100.240903 0.07240185183 0)
(99.9858062 -0.005641028593 2.146161671e-20)
(99.99810911 -0.007926539943 -3.575062357e-21)
(99.95957967 -0.002107748726 1.802604647e-20)
(99.97621987 -0.01933196605 2.505229542e-20)
(99.91269027 0.02035752286 -7.170559226e-21)
(99.93063309 -0.01571202744 -3.572737883e-21)
(99.85000014 0.08262577639 0)
(99.85489872 0.009521089991 5.452002148e-21)
(99.82140323 0.06901239618 1.66595204e-20)
(99.85374948 0.1036178186 -4.88962681e-20)
(99.81082921 0.09175531314 1.252528425e-20)
(99.80854491 0.1283674394 0)
(99.75926596 0.2233640428 3.399922405e-22)
(99.75397124 0.1896722975 -2.787448445e-20)
(99.68506522 0.2178707219 -2.785573251e-20)
(99.68833777 0.2691976447 5.659055996e-20)
(99.624458 0.4182143262 -8.431515068e-20)
(99.61063917 0.3705018313 2.924103967e-20)
(99.50679547 0.4254487154 -5.629109028e-20)
(99.54167495 0.4941134744 -2.798489246e-20)
(99.49370868 0.5017164611 -4.605955626e-20)
(99.47071792 0.6807310566 6.701785607e-21)
(99.45498437 0.650178903 1.334384568e-20)
(99.38507768 0.7028480096 3.361938491e-20)
(99.40125047 0.7417616883 6.648774995e-21)
(99.2449826 1.116517466 4.889818828e-20)
(99.21739802 1.078308098 1.646885539e-20)
(99.11675891 1.169785916 2.139330943e-19)
(99.14803212 1.218004139 6.4669585e-20)
(98.97069775 1.798484478 -1.398628326e-18)
(98.91870083 1.75824422 -3.825934566e-19)
(98.77865361 1.932079899 -2.102599127e-18)
(98.84142711 1.980865622 -7.36624545e-19)
(98.74454782 2.778607413 3.080824439e-18)
(98.65399089 2.760841635 1.192137979e-18)
(98.50048302 3.040715868 2.477654993e-18)
(98.61458676 3.053728709 1.295378415e-18)
(98.8047931 3.940365605 9.394949745e-19)
(98.61083926 3.977221953 -1.389111008e-21)
(98.56576464 4.385629323 -9.649118286e-19)
(98.67764239 4.282436705 -1.411890918e-20)
(99.2680688 4.879440862 2.066560739e-20)
(99.07627667 5.049072697 1.843843814e-20)
(99.16099032 5.465129789 -6.181942159e-19)
(99.25726209 5.231841984 1.799838603e-20)
(99.93769161 5.256632135 -8.04763935e-20)
(99.86445198 5.52444823 4.120096856e-20)
(100.0076091 5.846101119 -5.333709341e-20)
(100.066481 5.527700386 -3.094790664e-19)
(100.5905796 5.01284749 0)
(100.5984034 5.313518219 1.540400716e-21)
(100.7795737 5.507339068 -6.386106533e-19)
(100.7429895 5.181543267 3.996092978e-19)
(101.0021627 4.364480652 2.792194747e-19)
(101.0679117 4.657782115 -1.670997716e-19)
(101.2352336 4.749481338 8.981542123e-19)
(101.1407363 4.449222274 1.098437758e-20)
(101.1572035 3.4813113 -7.652242066e-20)
(101.2602276 3.749345563 1.165394171e-19)
(101.3918868 3.761350599 5.298096559e-20)
(101.267365 3.49992255 7.306543086e-20)
(101.2160919 2.796227529 0)
(101.1027394 2.593394436 4.281588196e-20)
(101.3065922 2.775014738 0)
(101.1796704 2.579678779 0)
(100.9029397 1.751746447 2.810243568e-20)
(101.1185313 2.048935488 1.81423919e-20)
(101.231304 1.95524882 -1.679563602e-20)
(100.9894124 1.698949953 3.532840987e-20)
(100.6875322 1.188417263 -3.262595008e-20)
(100.8625384 1.396734753 -1.457760141e-20)
(100.9310564 1.308248837 -1.47211755e-20)
(100.7428085 1.13726106 -6.986389826e-21)
(100.5379579 0.6052985886 -8.744773287e-21)
(100.8018033 0.7720005703 -1.93597124e-20)
(100.8116882 0.9691460294 -2.539669301e-21)
(100.6630805 0.925475624 4.500030356e-21)
(100.4060856 0.3552486063 7.795959491e-21)
(100.590386 0.4713928414 1.190066912e-20)
(100.3319622 0.163461453 -1.984523202e-21)
(100.4574989 0.2520607735 -3.517115126e-21)
(100.3950632 0.0790657675 -5.088557698e-22)
(99.99210508 -0.02179857092 0)
(100.018684 -0.018211279 0)
(99.95183463 -0.0336792758 3.587822145e-21)
(99.98748388 -0.05033422692 0)
(99.87939428 -0.02605972934 9.024225783e-21)
(99.92354732 -0.06720006375 -3.206416687e-21)
(99.77596942 0.02782561503 1.597082097e-20)
(99.81630306 -0.06125344888 2.003406659e-20)
(99.74802414 0.002382885374 -6.03979434e-21)
(99.77021287 0.06811358264 2.1562886e-20)
(99.72225157 0.03237386341 1.76917701e-21)
(99.70648442 0.07904352246 -8.623705888e-21)
(99.60788037 0.194441744 0)
(99.61784651 0.1423566932 -1.800728226e-20)
(99.53084683 0.1520049841 -1.473859353e-20)
(99.51172408 0.2247048214 3.672231688e-21)
(99.38096732 0.4055831735 0)
(99.38568511 0.3321041899 3.671838527e-21)
(99.2518407 0.3588829635 -3.76817854e-21)
(99.26020587 0.4796826517 1.849100202e-20)
(99.20849356 0.460175469 4.737292805e-21)
(99.10688914 0.7111123371 1.861799901e-19)
(99.10355781 0.6555343811 -2.721230272e-20)
(99.00851957 0.6947444317 -5.510873066e-20)
(99.01008302 0.7603736146 1.398393449e-19)
(98.66906034 1.279364443 2.516990069e-19)
(98.65735022 1.195524053 1.073770161e-19)
(98.50137709 1.291839703 -1.884975847e-19)
(98.51292462 1.39413109 -7.506091728e-19)
(98.08664828 2.284556253 -9.242171784e-20)
(98.03640674 2.173374215 6.4614048e-19)
(97.8101849 2.377093484 7.422444552e-19)
(97.87142087 2.509295624 6.258909428e-19)
(97.55149556 3.864523899 -2.039964259e-18)
(97.42175797 3.761363868 -1.383513294e-18)
(97.14635478 4.133537948 -6.438860939e-19)
(97.32168075 4.260643839 -6.03793196e-19)
(97.6073227 5.890631712 -1.14334667e-18)
(97.36405232 5.904830796 -6.954920627e-19)
(97.18572971 6.468897297 -6.992594151e-20)
(97.52413156 6.451194974 4.408145075e-19)
(98.82628893 7.585450569 -2.336740774e-19)
(98.45554157 7.827282272 -1.526990216e-19)
(98.70190994 8.45085296 -3.120681334e-19)
(98.92339022 8.093572116 -7.050239121e-20)
(100.4661239 7.881318297 1.152010287e-19)
(100.3598933 8.294618145 7.465682241e-20)
(100.7298799 8.670618204 1.457115701e-19)
(100.7847515 8.171509494 1.227937721e-19)
(101.6703539 7.058649877 -9.838443409e-21)
(101.7491507 7.463369621 -1.246063921e-20)
(102.1034819 7.582198885 -1.263333824e-18)
(101.9658859 7.163710618 6.991358873e-19)
(102.2137534 5.834657655 -2.651072829e-20)
(102.3740099 6.173997871 2.020092334e-20)
(102.6544655 6.161023579 -8.985212159e-19)
(102.4434904 5.831038648 -2.461868458e-21)
(102.2894083 4.528264666 1.078085942e-18)
(102.4766701 4.812147231 3.409786117e-19)
(102.6557415 4.73732292 -1.062816113e-19)
(102.4395037 4.470655534 -4.739489167e-20)
(102.2225718 3.464061446 -1.420640143e-20)
(102.0371961 3.238835803 -3.785685036e-21)
(102.3260487 3.359299243 2.516903008e-20)
(102.1235227 3.156193209 2.195461037e-20)
(101.6042818 2.106724401 -9.298960865e-20)
(101.9203629 2.401987756 -5.905448932e-20)
(102.0137728 2.193882095 -3.326098299e-20)
(101.6828768 1.966112419 -1.723683448e-20)
(101.203912 1.390347491 1.148330376e-20)
(101.4557637 1.59248124 3.44633874e-20)
(101.4999702 1.429712328 -3.91336987e-21)
(101.2484741 1.277244824 -3.794976538e-21)
(100.8404552 0.6359346414 2.041369538e-21)
(101.1636094 0.7423884412 0)
(101.2606692 1.024189425 -1.56096176e-22)
(101.090847 1.015637628 -1.040304143e-20)
(100.6288512 0.3654258997 4.492901582e-22)
(100.8455174 0.4469175901 2.041185501e-21)
(100.5090596 0.1659692943 -2.050207059e-21)
(100.6456452 0.2333681612 -2.052573191e-21)
(100.5516079 0.07223642996 -2.077158252e-21)
(100.0175022 -0.04659041583 0)
(100.0626516 -0.03252653402 1.753465493e-21)
(99.96328111 -0.08369233357 -7.203599847e-21)
(100.0225593 -0.09383167979 -1.765582756e-21)
(99.86543902 -0.102160729 7.385049588e-21)
(99.94111831 -0.1417284375 -3.605374945e-21)
(99.71450983 -0.06579705677 9.726923268e-21)
(99.80340813 -0.1685815811 2.413604068e-21)
(99.69672152 -0.1104428103 1.632523114e-23)
(99.69023802 -0.01708273576 -7.257100571e-21)
(99.65203052 -0.07863167822 -7.273632962e-21)
(99.61416492 -0.02512424351 0)
(99.45816132 0.08984546475 -1.473822969e-20)
(99.4912629 0.02495963966 0)
(99.39340207 0.00801901031 -7.080795702e-23)
(99.3423289 0.09424746812 -4.271233822e-23)
(99.12467515 0.2843815009 7.559298631e-21)
(99.16260809 0.1877526785 1.136596782e-20)
(99.00847216 0.180886843 1.52520457e-20)
(98.97217975 0.3297356549 -1.147132783e-20)
(98.92300271 0.2941668645 -1.213141917e-20)
(98.70778476 0.5888357526 1.642530165e-19)
(98.7303452 0.5113273111 1.749275986e-19)
(98.60758292 0.5327508772 4.355536901e-19)
(98.5776731 0.6233953091 6.746600617e-20)
(97.95586967 1.239512109 5.804226508e-19)
(97.98064765 1.113650539 -1.936553823e-19)
(97.7704705 1.185189629 -3.003151909e-19)
(97.73908211 1.337184785 8.765607194e-20)
(96.86366701 2.481420927 0)
(96.85780008 2.277118883 -5.943540603e-19)
(96.50669765 2.449265927 8.646619943e-19)
(96.51394103 2.707428222 -1.957596586e-19)
(95.60000143 4.765511471 1.289544765e-18)
(95.45362478 4.460149268 -4.266255128e-19)
(94.95433643 4.860266369 4.245730975e-19)
(95.15740608 5.23666273 -8.343584305e-20)
(95.29879522 8.322856771 0)
(94.81516115 8.085766233 1.083546183e-19)
(94.34732524 8.894065123 0)
(95.03167488 9.176105049 0)
(97.9435989 11.74062161 -2.948290753e-20)
(97.21271612 12.08297946 4.67516808e-20)
(97.49052027 13.20253946 -2.954792056e-20)
(98.37449062 12.62259979 1.402229861e-20)
(102.0495646 11.50974956 0)
(101.8817776 12.30982905 0)
(102.7265323 12.67346344 3.180358401e-19)
(102.7421229 11.73909092 -2.625952473e-19)
(103.9766679 9.103299907 -7.648566016e-20)
(104.2306602 9.680899421 -9.862903339e-19)
(104.8294051 9.569383705 -1.187566492e-18)
(104.4596224 9.015242928 1.040931014e-18)
(104.3005718 6.924662774 1.14909212e-18)
(104.6305268 7.273556192 -1.427978749e-18)
(104.9640957 7.079651492 -1.107933852e-19)
(104.5840068 6.769468287 1.189453215e-18)
(103.9647099 5.157515732 7.935395328e-20)
(104.2765913 5.412097383 6.82481584e-20)
(104.4670447 5.207697454 1.624915045e-19)
(104.1307066 4.99177759 -4.633242293e-19)
(103.5984546 3.798925624 1.442475481e-20)
(103.3153679 3.585353266 1.694103919e-19)
(103.6862364 3.599260006 5.716641229e-19)
(103.395199 3.417825902 1.214547685e-19)
(102.4551355 2.205205706 2.695514599e-20)
(102.88605 2.461398866 -2.759506311e-22)
(102.9147221 2.129492971 1.670830422e-20)
(102.4905341 1.971885803 1.241920172e-20)
(101.8045574 1.416653444 -1.644345869e-20)
(102.1310159 1.573390562 -8.423797836e-21)
(102.1160158 1.342286257 -8.425429828e-21)
(101.8084628 1.242341511 1.298479393e-20)
(101.151546 0.5599265054 0)
(101.5196499 0.5817337839 1.386376186e-21)
(101.7159554 0.9017053179 -1.141829157e-20)
(101.5513865 0.9730354485 2.81968513e-20)
(100.8474941 0.3127587051 -5.202960938e-22)
(101.0786088 0.3377673574 -1.635627349e-21)
(100.6764667 0.1390103827 -2.089784993e-21)
(100.8095041 0.1678695569 -2.382253573e-21)
(100.6827171 0.05072184098 2.641415663e-21)
(100.0706656 -0.07935448281 -1.155902384e-23)
(100.1375181 -0.05035768811 4.629826465e-23)
(100.0040526 -0.1507823043 1.829931727e-21)
(100.0899882 -0.1481985504 -5.574198981e-23)
(99.88380863 -0.207092278 -9.614443215e-21)
(99.99435964 -0.2361822272 1.429598528e-21)
(99.68825796 -0.2064630924 -8.78395746e-21)
(99.83196645 -0.3075928273 -1.4616968e-20)
(99.68673495 -0.267685366 -1.239422723e-20)
(99.63994036 -0.1538857419 -6.859650216e-21)
(99.62191134 -0.2396492701 -2.689938288e-21)
(99.55790422 -0.1871616608 3.822929904e-23)
(99.3404317 -0.09274932721 1.10286899e-20)
(99.40266202 -0.1630098682 1.11751282e-20)
(99.30264922 -0.2112024036 5.528742742e-21)
(99.21488984 -0.122773499 1.895537425e-20)
(98.9068639 0.04824329538 -1.90815379e-20)
(98.98664388 -0.06177200805 -1.52875715e-20)
(98.82567222 -0.1116061725 -2.304999139e-20)
(98.72702489 0.05526263593 1.008013211e-19)
(98.69199342 -0.00396482792 -1.57602298e-20)
(98.32810219 0.2984756287 -2.179307586e-19)
(98.3881404 0.2075194162 -1.532035722e-19)
(98.24590047 0.1991183563 -2.179250255e-19)
(98.17177142 0.3031945187 -1.201524257e-19)
(97.24378693 0.8810925816 -2.003926734e-19)
(97.33210322 0.7225342859 0)
(97.08781604 0.7340072063 -2.106977021e-19)
(96.97026963 0.9208580719 0)
(95.43408999 2.075116219 2.980571143e-20)
(95.54276701 1.790193867 4.951381939e-19)
(95.1065009 1.839931381 1.751319526e-19)
(94.94871984 2.194959046 -3.552648026e-20)
(92.79851762 4.439792202 -1.473474322e-19)
(92.82719459 3.908640203 -9.459199963e-20)
(92.08784224 4.007255203 -1.931198992e-20)
(92.01712897 4.713477932 -1.050009695e-19)
(89.94277798 9.626330594 0)
(89.41615857 8.527663704 0)
(87.73026215 9.500660707 0)
(88.01872329 8.863660164 0)
(89.02444199 10.82883984 0)
(88.19226454 10.79542222 0)
(92.69633229 19.87758197 0)
(93.9117451 19.68504294 0)
(92.92534894 21.49357984 0)
(94.4751417 20.96436037 4.837265963e-20)
(106.1108357 18.51458327 -3.628631362e-19)
(106.3316979 17.00957323 -3.091048819e-19)
(107.8322133 16.75924563 -4.973774773e-19)
(106.8134404 19.35259083 2.302685021e-19)
(108.6855247 18.312917 2.640838727e-19)
(108.2906647 18.98164175 4.518824747e-20)
(108.7997979 11.34282805 3.978684993e-20)
(108.1136884 10.58020373 -5.25704753e-19)
(109.4550864 10.68676004 3.514803094e-20)
(108.6441572 10.11027985 -5.247695693e-19)
(107.2747128 7.11184634 5.806461068e-20)
(107.8422073 7.402241125 9.860666143e-19)
(108.1336754 6.940516629 2.045355427e-18)
(107.5378762 6.745472767 -1.21925405e-20)
(106.1212556 5.017268408 -8.435805392e-19)
(106.5707448 5.164239125 -1.331673163e-19)
(106.6861473 4.809002549 -1.252063006e-18)
(106.2367552 4.716241722 2.103194476e-19)
(105.2019736 3.505773712 -3.560154301e-20)
(104.8262455 3.387186791 -1.649284159e-19)
(105.2107203 3.223685309 6.96036794e-20)
(104.8444502 3.13515663 1.228490234e-20)
(103.3761474 1.957081427 4.46791029e-21)
(103.9266289 2.103367523 -1.056644372e-20)
(103.8161199 1.679329197 -2.694857772e-21)
(103.317003 1.63634685 -4.768891637e-21)
(102.4131652 1.199374662 4.745890882e-21)
(102.7963585 1.27200255 -1.946684083e-23)
(102.6928054 0.9925394647 -7.581120902e-21)
(102.3490928 0.9754458 9.612954395e-21)
(101.4219333 0.3680943022 -1.604824647e-22)
(101.7917977 0.2902511558 -3.214184829e-22)
(102.1233673 0.5969507743 8.165975672e-22)
(101.9831522 0.7165837612 6.938981677e-21)
(101.024522 0.1930427783 -3.510023548e-21)
(101.2436095 0.1436683668 -2.426041204e-22)
(100.8036767 0.08053266812 2.594435069e-21)
(100.91557 0.05732303955 -2.426857946e-21)
(100.758666 0.01503665294 4.693890202e-22)
(100.1590667 -0.1185841006 1.219611483e-23)
(100.2493818 -0.0707569836 -2.597187205e-21)
(100.0830634 -0.2317163269 -4.701057006e-22)
(100.1967239 -0.2105059856 1.131960983e-21)
(99.94609924 -0.3350234966 -3.722126219e-21)
(100.0918599 -0.3450288076 -2.452607713e-21)
(99.71300372 -0.3838752641 7.642610459e-21)
(99.91337099 -0.4690941488 -8.423113148e-22)
(99.7330152 -0.4586173371 7.872025795e-22)
(99.63751666 -0.3364617618 3.707037865e-21)
(99.64922523 -0.4394926334 7.722142882e-21)
(99.55822526 -0.3962082789 5.435455132e-21)
(99.28394449 -0.3440591019 -1.862247994e-21)
(99.37838752 -0.4088946602 2.857797734e-21)
(99.28637913 -0.4886657487 1.890654956e-21)
(99.16049681 -0.411361175 5.72063754e-21)
(98.77002898 -0.2941487341 -1.940816264e-21)
(98.8956419 -0.400102945 1.255114128e-23)
(98.74371423 -0.494116904 5.894714078e-21)
(98.5799234 -0.3327612033 -1.342559938e-21)
(98.56612847 -0.4106480202 -1.525209897e-19)
(98.05818699 -0.1602991207 -1.069288407e-19)
(98.16143751 -0.2492039817 -1.134393868e-19)
(98.01971466 -0.2954329823 1.051484494e-19)
(97.89956112 -0.1988247056 2.714775559e-20)
(96.72006602 0.1749891719 1.138068631e-21)
(96.88661264 0.0217233875 3.203560618e-19)
(96.64519067 -0.04106546349 -2.19328579e-19)
(96.43444137 0.1280285859 4.848268141e-19)
(94.35515751 0.8500922163 1.927997052e-19)
(94.62488243 0.5732224344 0)
(94.21194283 0.4596991611 1.696598708e-20)
(93.85904085 0.7612293171 1.861281275e-20)
(90.59534378 1.891795716 0)
(90.99955055 1.381120444 1.715963725e-19)
(90.42447912 1.057697681 0)
(89.83094686 1.572617193 0)
(83.88487603 3.071488485 0)
(84.48081848 2.432383839 0)
(83.89365577 1.813848424 0)
(83.03859691 2.441199702 0)
(121.053421 22.83889037 0)
(119.4607386 21.72655466 0)
(121.8282358 21.10413169 -4.125008279e-19)
(120.2406079 20.36125352 3.577345937e-19)
(115.5846714 10.06723684 -1.896308739e-20)
(114.1484328 9.628929976 -1.355238863e-20)
(115.6833357 8.688947445 -2.169411016e-19)
(114.3198583 8.551954423 -7.337514961e-20)
(110.6797045 5.677389331 5.280281586e-19)
(111.4654154 5.706646827 0)
(111.4729253 5.010780181 3.403323595e-19)
(110.728684 5.09367182 0)
(108.3212853 3.770588949 2.996697981e-19)
(108.8662519 3.737372574 3.077865921e-19)
(108.8193576 3.278730955 8.957795291e-19)
(108.3130191 3.378327071 2.874560741e-20)
(106.7236785 2.423467592 7.836864116e-20)
(106.2897747 2.440616647 -3.168751561e-19)
(106.6098927 2.085780212 -2.053571765e-19)
(106.2070248 2.131740541 -4.38122246e-19)
(104.2049189 1.29691312 -5.264087133e-21)
(104.8324004 1.26961348 2.050409905e-20)
(104.5188873 0.8210622677 8.586946266e-21)
(104.0074916 0.936133441 1.238355597e-21)
(102.9226898 0.7241724387 -2.005995551e-21)
(103.3318236 0.6830085236 1.463429961e-20)
(103.1076668 0.4013956996 5.370319261e-21)
(102.772655 0.4866535835 1.05969444e-20)
(101.5944595 0.07141516469 -3.626471743e-22)
(101.9255598 -0.1123638009 -1.114221143e-21)
(102.3865889 0.1220740914 -1.138236207e-21)
(102.3085374 0.3048269413 -1.381182019e-21)
(101.1209289 0.009450791171 1.119318866e-21)
(101.3019542 -0.1191714263 1.393407505e-21)
(100.8594802 -0.006923667765 -4.494176944e-21)
(100.930965 -0.08933080731 1.70333926e-21)
(100.7521202 -0.03221329123 -2.23402661e-21)
(100.28825 -0.1619426755 -1.477389508e-21)
(100.402143 -0.09245503116 8.18614817e-22)
(100.2069569 -0.3214268655 -8.584735908e-22)
(100.3471853 -0.2768185166 -6.086259187e-22)
(100.060908 -0.4773267853 4.376060868e-22)
(100.2389511 -0.4610157027 -2.16876842e-22)
(99.80166975 -0.5855338324 4.93264682e-22)
(100.0545808 -0.6419747749 7.386737281e-22)
(99.84627776 -0.6684177381 4.363663927e-22)
(99.69889624 -0.5502649822 1.285268792e-21)
(99.74635854 -0.6630795698 -1.16416004e-23)
(99.6304282 -0.6357765067 -1.16432562e-23)
(99.31199328 -0.6419514013 -1.884774266e-21)
(99.43681698 -0.6922770137 0)
(99.36182315 -0.8005355093 -9.225613263e-22)
(99.20246887 -0.7449991868 -9.716556791e-22)
(98.74989941 -0.7064265356 9.769686522e-22)
(98.91831003 -0.7925912352 -7.803712948e-21)
(98.78951233 -0.9254183323 1.245854486e-20)
(98.56661672 -0.7908155079 1.074005953e-19)
(98.57829782 -0.878901352 -2.37766187e-20)
(97.97127678 -0.730912289 -1.60970641e-19)
(98.10709657 -0.8004043244 -2.367234242e-19)
(97.98069115 -0.8816953815 -2.702553358e-20)
(97.8295886 -0.8106801806 -3.729977402e-19)
(96.53896204 -0.7314317609 -2.730495387e-19)
(96.76049345 -0.8431594968 0)
(96.54829718 -0.9655175244 1.925732748e-19)
(96.28146581 -0.8532315793 -1.456522463e-20)
(94.07523955 -0.7383296184 -9.36336076e-21)
(94.43595319 -0.9128822751 1.281543542e-20)
(94.11697044 -1.118358753 -6.934074354e-20)
(93.69509331 -0.9632637741 8.0983259e-20)
(90.69274705 -1.142339354 1.978021987e-19)
(91.21435832 -1.34345753 2.287390937e-20)
(90.92625344 -1.713433181 3.995574984e-19)
(90.35634407 -1.589376928 3.383180839e-20)
(87.16688715 -3.08665976 2.154232898e-19)
(87.59245315 -3.02182782 4.370852112e-19)
(87.60588226 -3.336354192 2.207939171e-19)
(87.24600168 -3.48260416 4.433150909e-19)
(134.7870576 8.396075152 1.110416898e-18)
(133.1195293 9.148186088 1.121708348e-18)
(133.6930119 7.001534245 1.146302781e-18)
(132.3015312 7.79837101 5.652910773e-19)
(120.7117994 3.782801165 -3.475650112e-19)
(119.1534383 4.306920085 3.153122152e-20)
(119.7659855 2.52425294 -1.115928023e-18)
(118.5175823 3.170513898 -3.176425071e-19)
(113.2508042 2.336022042 -9.243778834e-20)
(114.0112539 1.969266809 -7.275450397e-20)
(113.590879 1.293678054 -1.174656936e-22)
(112.9430091 1.709448876 -9.057478169e-20)
(109.909734 1.421970455 -1.686673404e-19)
(110.406262 1.152650831 3.489515292e-21)
(110.1223729 0.7148530101 -1.689884026e-19)
(109.6923399 1.010529025 -1.844535964e-20)