/*--------------------------------*- C++ -*----------------------------------*\
| =========                 |                                                 |
| \\      /  F ield         | OpenFOAM: The Open Source CFD Toolbox           |
|  \\    /   O peration     | Version:  v1912                                 |
|   \\  /    A nd           | Website:  www.openfoam.com                      |
|    \\/     M anipulation  |                                                 |
\*---------------------------------------------------------------------------*/
FoamFile
{
    version     2.0;
    format      ascii;
    class       surfaceScalarField;
    location    "2.32";
    object      meshPhi;
}
// * * * * * * * * * * * * * * * * * * * * * * * * * * * * * * * * * * * * * //

dimensions      [0 3 -1 0 0 0 0];
oriented        oriented;


internalField   nonuniform List<scalar> 
25162
(
0
0
0
0
0
0
0
0
0
0
0
0
0
0
0
0
0
0
0
0
0
0
0
0
0
0
0
0
0
0
0
0
0
0
0
0
0
0
0
0
0
0
0
0
0
0
0
0
0
0
0
0
0
0
0
0
0
0
0
0
0
0
0
0
0
0
0
0
0
0
0
0
0
0
0
0
0
0
0
0
0
0
0
0
0
0
0
0
0
0
0
0
0
0
0
0
0
0
0
0
0
0
0
0
-5.288515045e-09
-3.230193813e-08
3.61695047e-07
0
1.011248221e-08
-3.074649783e-07
0
0
0
0
0
0
0
0
0
0
0
0
0
0
0
0
0
0
0
0
0
0
0
0
0
0
0
0
0
0
0
0
0
0
0
0
0
0
0
0
0
0
0
0
0
0
0
0
0
0
0
0
0
0
0
0
0
0
0
0
0
0
0
0
0
0
2.471872963e-08
6.167430818e-07
-2.227429383e-06
-3.90745046e-06
8.527580121e-06
3.440030494e-05
-1.939077563e-05
-4.861241527e-05
1.075396348e-05
8.979398323e-05
-1.795097758e-05
-0.0001003930117
-2.212025988e-06
0.000115469571
4.699386101e-06
-0.000114044283
-1.188329808e-05
9.1220883e-05
2.199811097e-05
-7.860884074e-05
-5.52892504e-06
3.525716422e-05
1.522348339e-05
-2.206293249e-05
0
6.644499761e-07
3.440123506e-07
0
0
0
0
0
0
0
0
0
0
0
0
0
0
0
0
0
0
0
0
0
0
0
0
0
0
0
0
0
0
0
0
0
0
0
0
0
0
0
0
0
0
0
0
0
0
0
0
0
0
0
1.190143551e-06
1.494302393e-06
-5.976549934e-06
-1.06556458e-05
4.048418528e-05
9.315365329e-05
-6.185270478e-05
-0.0001332437355
7.006847547e-05
0.0002660657211
-8.984461039e-05
-0.0003089987522
4.090193883e-05
0.0004153870526
-4.676948593e-05
-0.0004402660559
-2.270202252e-05
0.0004753170971
3.279125153e-05
-0.0004729316357
-7.117673669e-05
0.0004235477693
9.319799883e-05
-0.0003939239443
-7.049417888e-05
0.0002750751451
9.628158101e-05
-0.0002293292627
-2.706856126e-05
9.657148405e-05
4.54541569e-05
-6.026468658e-05
0
1.536520086e-06
9.528748325e-07
0
0
0
0
0
0
0
0
0
0
0
0
0
0
0
0
0
0
0
0
0
0
0
0
0
0
0
0
0
0
0
0
0
0
0
0
0
0
0
0
0
0
0
0
0
-3.963470016e-07
-6.352551929e-07
4.651046705e-05
7.737124699e-05
-6.68548878e-05
-0.0001320661402
0.0001382671778
0.0003482157616
-0.0001646049975
-0.0004289004359
0.0001453785247
0.0006594957226
-0.0001606173393
-0.0007255836062
5.452639171e-05
0.0008742352885
-5.418816174e-05
-0.000905860437
-7.12323037e-05
0.0009484689578
8.425959987e-05
-0.0009459487279
-0.000168025987
0.000886860684
0.0001928508335
-0.000848942646
-0.000186864706
0.0006797886424
0.0002187734884
-0.0006068306649
-0.0001303194363
0.0003780398794
0.0001624516394
-0.0002977650565
-2.79260762e-05
8.988020789e-05
4.388254827e-05
-4.486958905e-05
0
0
0
0
0
0
0
0
0
0
0
0
0
0
0
0
0
0
0
0
0
0
0
0
0
0
0
0
0
0
0
0
0
0
0
0
0
0
0
0
0
0
1.183737675e-05
9.814479328e-06
-1.913438424e-05
-4.23661707e-05
0.0001369055804
0.0002574282898
-0.0001592440134
-0.0003577984922
0.0002480079858
0.0007043802933
-0.0002625798685
-0.0008216023996
0.0001977513069
0.001091631833
-0.0002154161859
-0.001147262427
5.061909718e-05
0.001258623581
-5.221267814e-05
-0.001272584608
-0.0001110884138
0.00128570847
0.0001135313343
-0.001285157464
-0.0002581301589
0.001268435144
0.0002704830504
-0.001245386152
-0.0003446464269
0.001132139944
0.0003648231862
-0.001045899921
-0.0002446354058
0.0007252367406
0.0002732546352
-0.0006116533142
-0.0001018211172
0.0002802743052
0.0001220991404
-0.0001874019342
1.297772833e-05
-2.820271098e-06
4.953639776e-06
-1.999183478e-07
0
0
0
0
0
0
0
0
0
0
0
0
0
0
0
0
0
0
0
0
0
0
0
0
0
0
0
0
0
0
0
0
0
0
0
-3.492216814e-07
-7.909550851e-09
-3.05897769e-07
4.289903075e-05
5.328635556e-05
-5.155185758e-05
-0.0001200526113
0.0002154500159
0.0004438578325
-0.00022831342
-0.000585168999
0.0003007395494
0.001001688357
-0.0003108384127
-0.001123441646
0.0002276948121
0.001391681205
-0.000217617187
-0.001445659205
7.546065207e-05
0.001492578912
-6.798906084e-05
-4.31840868e-05
-0.0007147883545
-0.000742078062
0.000710263298
-5.196736444e-05
5.220729281e-05
-0.0007105032263
0.0007342097139
-0.0003167999943
-0.001483167116
0.0007557077424
0.000151847202
0.0001582024521
0.001395977818
-0.0003909412504
0.0004038056442
-0.001339632955
-0.0003479311158
0.001048973722
0.0003651071007
-0.0009176460465
-0.0001766753219
0.0004894973635
0.000194298977
-0.0003602501348
7.261109243e-05
-2.232382453e-05
2.898534375e-05
-2.312233471e-05
0
0
0
0
0
0
0
0
0
0
0
0
0
0
0
0
0
0
0
0
0
0
0
0
0
0
0
0
0
0
0
0
0
1.462081707e-06
0
-3.125331874e-06
-2.934708387e-06
-4.567424982e-06
6.924978681e-05
9.56837104e-05
-7.13749465e-05
-0.000187220697
0.000258968474
0.0005933209046
-0.0002627142063
-0.0007534723954
0.0003273728205
0.001217273842
-0.0003282490248
-0.001346066423
0.0002117796738
0.001582992647
-0.0002096447484
-0.001600421577
3.355980311e-05
0.0008067666524
-3.493470996e-05
-0.0008053917455
0.0007991658185
-0.0001376490679
0.0001364209586
-0.0007979377092
0.001585802972
-0.0004228260573
0.0004260654288
-0.001552312501
-0.0004039157987
0.001275733265
0.00041045324
-0.001137630281
-0.0002322375335
0.0006624986926
0.0002389205343
-0.0005064527432
0.0001375517929
-4.452947796e-05
5.136737589e-05
-6.037950012e-05
0
0
0
0
0
0
0
0
0
0
0
0
0
0
0
0
0
0
0
0
0
0
0
0
0
0
0
0
0
0
0
0
0
4.05311084e-06
0
-5.112258872e-06
-8.566840597e-06
-9.800428824e-06
8.219795845e-05
0.0001277606179
-8.448791866e-05
-0.0002354175713
0.0002761407646
0.0006931872634
-0.0002788284827
-0.0008692951879
0.0003330686877
0.001366677663
-0.0003340322383
-0.001499014445
0.0002074817682
0.001720117321
-0.0002072808034
-0.001727462627
3.040665045e-05
0.0008600442669
-3.040057239e-05
-0.000860050345
0.0008650579843
-0.0001339151069
0.0001334623398
-0.0008646052172
0.001734227084
-0.0004271274842
0.000426948311
-0.001712550776
-0.0004289957652
0.001448470701
0.0004324517968
-0.001305538555
-0.000259740337
0.0007935138908
0.0002641939035
-0.0006188671723
0.0001843304353
-5.997269741e-05
6.278429404e-05
-8.966727725e-05
0
0
0
0
0
0
0
0
0
0
0
0
0
0
0
0
0
0
0
0
0
0
0
0
0
0
0
0
0
0
0
0
0
6.142095724e-06
0
-7.553167876e-06
-1.378730145e-05
-1.55663472e-05
9.016307922e-05
0.0001538668165
-9.24482642e-05
-0.0002748181301
0.0002854849145
0.0007771620417
-0.0002881015541
-0.0009675639812
0.0003364869463
0.001497901882
-0.0003374333075
-0.001636344468
0.0002068954863
0.001857550728
-0.0002068622287
-0.001861875325
3.024091446e-05
0.0009261792186
-3.05303041e-05
-0.0004616674567
-0.0004642223722
0.0009318252067
-0.0001320246439
0.0001316709464
-0.0009314715092
0.001866850092
-0.0004248921313
0.0004238923679
-0.001842022883
-0.0004291755073
0.001553728631
0.0004269935025
-0.001399187292
-0.0002608462137
0.0008473180384
0.0002590008653
-0.0006601811325
0.0001954629582
-6.081921725e-05
5.993194595e-05
-9.453697123e-05
0
0
0
0
0
0
0
0
0
0
0
0
0
0
0
0
0
0
0
0
0
0
0
0
0
0
0
0
0
0
0
0
0
9.085911912e-06
0
-1.08399323e-05
-2.173413295e-05
-2.412971264e-05
9.956140134e-05
0.0001862640988
-0.0001020536574
-0.0003220893399
0.0002960244789
0.0008721714792
-0.0002987423776
-0.001077284504
0.0003402371404
0.001639686658
-0.0003411766234
-0.001783233705
0.0002064967209
0.002000174265
-0.0002064031801
-0.002001981823
3.029684662e-05
0.0009965538603
-3.037025359e-05
-0.0004971083168
-0.0004993721366
0.001000213917
-0.0001304648758
0.0001300868967
-0.0009998359384
0.001997859101
-0.0004179737464
0.0004151447886
-0.0019526406
-0.0004089617027
0.001595791639
0.0004012390883
-0.001427215316
-0.0002375908702
0.0008305301115
0.000231046667
-0.0006344530774
0.0001657536584
-4.744581885e-05
4.457656585e-05
-7.117165456e-05
0
0
0
0
0
0
0
0
0
0
0
0
0
0
0
0
0
0
0
0
0
0
0
0
0
0
0
0
0
0
0
0
0
1.295487282e-05
0
-1.373950101e-05
-3.305930895e-05
-3.453687258e-05
0.0001101501177
0.0002250289346
-0.0001132977618
-0.0003768254436
0.0003073268466
0.000975801618
-0.0003105839769
-0.001195237842
0.0003440818845
0.001786430839
-0.0003451430297
-0.001933476703
0.0002061445673
0.002140466589
-0.0002062562801
-0.002140523219
3.046236633e-05
0.001065944214
-3.043869223e-05
-0.0005317002009
-0.000534267687
0.001066199048
-0.0001286251014
0.000128477962
-0.001066051908
0.002099688352
-0.00040503837
0.000400228808
-0.00202110869
-0.0003727096346
0.00158054717
0.0003619599742
-0.001387879467
-0.000200797117
0.0007502828153
0.0001860124008
-0.0005515720854
0.0001145537026
-2.97796009e-05
2.540511466e-05
-3.729043888e-05
0
0
0
0
0
0
0
0
0
0
0
0
0
0
0
0
0
0
0
0
0
0
0
0
0
0
0
0
0
0
0
0
0
1.916804533e-05
0
-2.512803698e-05
-5.351943256e-05
-6.169226927e-05
0.000122795607
0.0002789713234
-0.0001308014904
-0.0004473797123
0.0003214489541
0.001098811541
-0.0003256310647
-0.001330944734
0.000348464559
0.001942200099
-0.0003499728284
-0.002092535609
0.0002060975819
0.002279550277
-0.0002068144885
-0.001135115634
-0.001143717737
1.640126158e-05
0.0005658979901
-1.655585333e-05
-0.0005657433983
-1.907542094e-05
0.0002819777173
1.854414088e-05
-0.0005640944046
0.0002826479673
0.001129989089
-0.0001277823622
0.000265658295
-0.002268954072
0.001138245903
-0.0001371568533
-0.0003853036134
0.002154217264
0.00037390842
-0.002032200689
-0.0003240420597
0.001501477065
0.0003106407539
-0.001282826009
-0.0001505591535
0.0006217474081
0.0001407639461
-0.0004300129625
4.872923627e-05
-1.024781273e-05
8.022690948e-06
-4.795704312e-06
0
0
0
0
0
0
0
0
0
0
0
0
0
0
0
0
0
0
0
0
0
0
0
0
0
0
0
0
0
0
0
0
0
2.815415045e-05
0
-2.327386868e-05
-7.477798819e-05
-6.914112157e-05
0.0001428267315
0.0003364997414
-0.0001387454994
-0.0005256618585
0.0003369608823
0.001227848946
-0.0003321893426
-0.001473802048
0.0003494244847
0.002105586117
-0.0003476542456
-0.002251623528
0.0002016893526
0.002419545216
-0.0002016893526
-0.001205707793
-0.001213837423
1.470804889e-05
0.001205707793
-2.695326922e-05
1.224522032e-05
-0.0006014869274
-0.0006042208651
-5.18611965e-05
0.0006014869666
5.186113763e-05
-0.001205707793
0.0006042208848
0.002419545216
-0.0002709867324
0.0002701423599
-0.002413655566
-0.0003483604019
0.002136611397
0.0003394524364
-0.001976748599
-0.0002669038535
0.001336689532
0.0002527139596
-0.001108155999
-0.00010264273
0.0004505383757
9.017912752e-05
-0.0002869140176
6.917840971e-06
-1.545763449e-06
7.000526835e-07
0
0
0
0
0
0
0
0
0
0
0
0
0
0
0
0
0
0
0
0
0
0
0
0
0
0
0
0
0
0
0
0
0
0
1.460711676e-05
0
-5.399369285e-06
-3.563617018e-05
-2.252035495e-05
0.0001097700134
0.0002492373791
-9.573201499e-05
-0.0004190646518
0.0002959988735
0.001091363641
-0.0002769166365
-0.001338840817
0.0003314665291
0.002017254258
-0.000321285829
-0.002194809435
0.0002032015317
0.002514293905
-0.0002036502693
-0.00254918125
2.69532692e-05
0.00255922635
-4.405575546e-05
-0.00255922635
1.710248625e-05
-0.0001135738837
0.00255922635
0.0001135738837
-0.00255922635
-0.00026170489
0.002515610101
0.0002541677018
-0.002447392817
-0.0003008484402
0.002025900161
0.0002841000417
-0.001821996495
-0.0001997224721
0.001110433213
0.000183707791
-0.0008694087693
-5.469891861e-05
0.0002656056001
4.430165964e-05
-0.0001389836206
0
0
0
0
0
0
0
0
0
0
0
0
0
0
0
0
0
0
0
0
0
0
0
0
0
0
0
0
0
0
0
0
0
0
0
0
0
1.32348831e-07
0
0
-2.033990822e-07
0
4.853552359e-05
8.769001417e-05
-3.36451596e-05
-0.0001965508435
0.0002022732863
0.0007206875923
-0.0001733267752
-0.0009366756316
0.0002722385556
0.001594950112
-0.0002494860094
-0.001793322935
0.0001948009065
0.002255401932
-0.0001873185526
-0.002358837423
4.677390886e-05
0.002532225368
-4.888966004e-05
-0.002553353122
-0.0001041055717
0.002531458719
9.485329893e-05
-0.002493523098
-0.0002118400952
0.002254348471
0.0001917239137
-0.002126013458
-0.0002177878779
0.001600692164
0.0001918804303
-0.001390219946
-0.0001252418179
0.0007365957022
0.0001041261401
-0.000536615976
-1.808808768e-05
9.775203156e-05
1.072350301e-05
-2.670402603e-05
0
0
0
0
0
0
0
0
0
0
0
0
0
0
0
0
0
0
0
0
0
0
0
0
0
0
0
0
0
0
0
0
0
0
0
0
0
0
0
0
0
0
3.615485961e-06
2.064170862e-07
-5.988508139e-07
-1.549682219e-05
8.573440525e-05
0.0002653877582
-5.978704488e-05
-0.000403257077
0.0001663205524
0.0008950479387
-0.0001360402703
-0.001064020421
0.0001488182913
0.001511831868
-0.000131007296
-0.001629116772
5.269179692e-05
0.001857451783
-5.140810391e-05
-0.001890169939
-5.699376597e-05
0.001856736318
4.404213137e-05
-0.001802004551
-0.0001226218076
0.00151290466
9.965255612e-05
-0.001379140317
-0.0001121911694
0.000903919246
8.747006988e-05
-0.0007353736415
-4.500571234e-05
0.0002777767976
2.90031864e-05
-0.0001618229144
-1.516137865e-07
6.852785969e-07
0
0
0
0
0
0
0
0
0
0
0
0
0
0
0
0
0
0
0
0
0
0
0
0
0
0
0
0
0
0
0
0
0
0
0
0
0
0
0
0
0
0
0
0
0
0
0
0
7.119402047e-06
7.142837539e-06
-1.118664344e-06
-3.306134921e-05
5.231321312e-05
0.0002280682135
-3.082831902e-05
-0.0003169088413
6.993975868e-05
0.000590989997
-5.008734202e-05
-0.0006716533181
3.679799016e-05
0.0008404053006
-2.916455565e-05
-0.0008662067831
-1.437152527e-05
0.0008419459045
8.514604216e-06
-0.0008008770144
-4.168737236e-05
0.0005966229158
2.754518385e-05
-0.0005092742511
-2.810433724e-05
0.0002363475836
1.495986505e-05
-0.0001557343601
-1.406645563e-06
8.878635185e-06
3.919871302e-09
-9.546862461e-08
0
0
0
0
0
0
0
0
0
0
0
0
0
0
0
0
0
0
0
0
0
0
0
0
0
0
0
0
0
0
0
0
0
0
0
0
0
0
0
0
0
0
0
0
0
0
0
0
0
0
0
0
0
0
1.726502782e-07
0
0
-1.217415158e-06
6.974359022e-06
3.321193235e-05
-1.109139057e-06
-5.143316748e-05
6.980329369e-06
0.0001002560296
-2.377893266e-06
-0.0001089250839
-7.949584267e-07
0.0001014266043
1.924741724e-07
-8.85136541e-05
-2.697459852e-06
3.517979718e-05
2.231732804e-07
-1.937336005e-05
0
0
0
0
0
0
0
0
0
0
0
0
0
0
0
0
0
0
0
0
0
0
0
0
0
0
0
0
0
0
0
0
0
0
0
0
0
0
0
0
0
0
0
0
0
0
0
0
0
0
0
0
0
0
0
0
0
0
0
0
0
0
0
0
0
0
0
0
0
0
0
0
0
0
0
0
0
0
0
0
0
0
0
0
0
0
0
0
0
0
0
0
0
0
0
0
0
0
0
0
0
0
0
0
0
0
0
0
0
0
0
0
0
0
0
0
0
0
0
0
0
0
0
0
0
0
0
0
0
0
0
0
0
0
0
0
0
0
0
0
0
0
0
0
0
0
0
0
0
0
0
0
0
0
0
0
0
0
0
0
0
0
0
0
0
0
0
0
0
0
0
0
0
0
0
0
0
0
0
0
0
0
0
0
0
0
0
0
0
0
0
0
0
0
0
0
0
0
0
0
0
0
0
0
0
0
0
0
0
0
0
0
0
0
0
0
0
0
0
0
0
0
0
0
0
0
0
0
0
0
0
0
0
0
0
0
0
0
0
0
0
0
0
0
0
0
0
0
0
0
0
0
0
0
0
0
0
0
0
0
0
0
0
0
0
0
0
0
0
0
0
0
0
0
0
0
0
0
0
0
0
0
0
0
0
0
0
0
0
0
0
0
0
0
0
0
0
0
0
0
0
0
0
0
0
0
0
0
0
0
0
0
0
0
0
0
0
0
0
0
0
0
0
0
0
0
0
0
0
0
0
0
0
0
0
0
0
0
0
0
0
0
0
0
0
0
0
0
0
0
0
0
0
0
0
0
0
0
0
0
0
0
0
0
0
0
0
0
0
0
0
0
0
0
0
0
0
0
0
0
0
0
0
0
0
0
0
0
0
0
0
0
0
0
0
0
0
0
0
0
0
0
0
0
0
0
0
0
0
0
0
0
0
0
0
0
0
0
0
0
0
0
0
0
0
0
0
0
0
0
0
0
0
0
0
0
0
0
0
0
0
0
0
0
0
0
0
0
0
0
0
0
0
0
0
0
0
0
0
0
0
0
0
0
0
0
0
0
0
0
0
0
0
0
0
0
0
0
0
0
0
0
0
0
0
0
0
0
0
0
0
0
0
0
0
0
0
0
0
0
0
0
0
0
0
0
0
0
0
0
0
0
0
0
0
0
0
0
0
0
0
0
0
0
0
0
0
0
0
0
0
0
0
0
0
0
0
0
0
0
0
0
0
0
0
0
0
0
0
0
0
0
0
0
0
0
0
0
0
0
0
0
0
0
0
0
0
0
0
0
0
0
0
0
0
0
0
0
0
0
0
0
0
0
0
0
0
0
0
0
0
0
0
0
0
0
0
0
0
0
0
0
0
0
0
0
0
0
0
0
0
0
0
0
0
0
0
0
0
0
0
0
0
0
0
0
0
0
0
0
0
0
0
0
0
0
0
0
0
0
0
0
0
0
0
0
0
0
0
0
0
0
0
0
0
0
0
0
0
0
0
0
0
0
0
0
0
0
0
0
0
0
0
0
0
0
0
0
0
0
0
0
0
0
0
0
0
0
0
0
0
0
0
0
0
0
0
0
0
0
0
0
0
0
0
0
0
0
0
0
0
0
0
0
0
0
0
0
0
0
0
0
0
0
0
0
0
0
0
0
0
0
0
0
0
0
0
0
0
0
0
0
0
0
0
0
0
0
0
0
0
0
0
0
0
0
0
0
0
0
0
0
0
0
0
0
0
0
0
0
0
0
0
0
0
0
0
0
0
0
0
0
0
0
0
0
0
0
0
0
0
0
0
0
0
0
0
0
0
0
0
0
0
0
0
0
0
0
0
0
0
0
0
0
0
0
0
0
0
0
0
0
0
0
0
0
0
0
0
0
0
0
0
0
0
0
0
0
0
0
0
0
0
0
0
0
0
0
0
0
0
0
0
0
0
0
0
0
0
0
0
0
0
0
0
0
0
0
0
0
0
0
0
0
0
0
0
0
0
0
0
0
0
0
0
0
0
0
0
0
0
0
0
0
0
0
0
0
0
0
0
0
0
0
0
0
0
0
0
0
0
0
0
0
0
0
0
0
0
0
0
0
0
0
0
0
0
0
0
0
0
0
0
0
0
0
0
0
0
0
0
0
0
0
0
0
0
0
0
0
0
0
0
0
0
0
0
0
0
0
0
0
0
0
0
0
0
0
0
0
0
0
0
0
0
0
0
0
0
0
0
0
0
0
0
0
0
0
0
0
0
0
0
0
0
0
0
0
0
0
0
0
0
0
0
0
0
0
0
0
0
0
0
0
0
0
0
0
0
0
0
0
0
0
0
0
0
0
0
0
0
0
0
0
0
0
0
0
0
0
0
0
0
0
0
0
0
0
0
0
0
0
0
0
0
0
0
0
0
0
0
0
0
0
0
0
0
0
0
0
0
0
0
0
0
0
0
0
0
0
0
0
0
0
0
0
0
0
0
0
0
0
0
0
0
0
0
0
0
0
0
0
0
0
0
0
0
0
0
0
0
0
0
0
0
0
0
0
0
0
0
0
0
0
0
0
0
0
0
0
0
0
0
0
0
0
0
0
0
0
0
0
0
0
0
0
0
0
0
0
0
0
0
0
0
0
0
0
0
0
0
0
0
0
0
0
0
0
0
0
0
0
0
0
0
0
0
0
0
0
0
0
0
0
0
0
0
0
0
0
0
0
0
0
0
0
0
0
0
0
0
0
0
0
0
0
0
0
0
0
0
0
0
0
0
0
0
0
0
0
0
0
0
0
0
0
0
0
0
0
0
0
0
0
0
0
0
0
0
0
0
0
0
0
0
0
0
0
0
0
0
0
0
0
0
0
0
0
0
0
0
0
0
0
0
0
0
0
0
0
0
0
0
0
0
0
0
0
0
0
0
0
0
0
0
0
0
0
0
0
0
0
0
0
0
0
0
0
0
0
0
0
0
0
0
0
0
0
0
0
0
0
0
0
0
0
0
0
0
0
0
0
0
0
0
0
0
0
0
0
0
0
0
0
0
0
0
0
0
0
0
0
0
0
0
0
0
0
0
0
0
0
0
0
0
0
0
0
0
0
0
0
0
0
0
0
0
0
0
0
0
0
0
0
0
0
0
0
0
0
0
0
0
0
0
0
0
0
0
0
0
0
0
0
0
0
0
0
0
0
0
0
0
0
0
0
0
0
0
0
0
0
0
0
0
0
0
0
0
0.0008526039869
-0.0008526471592
3.044982267e-05
0.0001252868924
-0.0008549010904
-0.0001257586283
0.0004295349227
0.0004258379037
-0.0001327836469
0.0008026060733
0.0001293433921
0.0009175469591
3.004210931e-05
-0.0004578461519
-0.0004595020021
0.000121834099
-0.0009241730686
-0.000122314566
0.0004633559842
0.0004612975514
0.0001238219511
0.0004344254004
0.0004320975252
0.000987774634
3.017741419e-05
-0.0004928564925
-0.0004947987091
0.0001207002388
-0.0009906848686
-0.0001200882432
0.0004959305684
0.0004941423047
0.0001214841134
0.0004665850326
0.0004655901597
0.001056964385
3.028949766e-05
-0.0005273602817
-0.0005294312351
0.0001179659595
-0.001057060447
-0.0001186972229
0.00105779171
0.001000717257
0.000120196899
0.0005642533835
-0.0005642572857
1.640516372e-05
-0.0002819771384
8.806809647e-06
-8.898168787e-06
0.0002820684976
0.0002814271533
-0.0005627318535
-1.974785918e-05
0.0001170340367
-0.001122793917
-0.000117043226
0.001122803106
0.001066527244
0.0001176377639
0.0005998709951
-0.0005998709951
1.470804889e-05
-0.0005998711042
2.223630367e-05
-2.22365612e-05
0.0005998713617
0.0002823097632
8.474763801e-06
-0.001197012091
0.0005468363662
4.894391564e-06
-6.450967074e-06
0.0002090664537
-0.002354553978
0.001193237704
0.001177543697
-0.0001085557081
-0.0001167381695
0.001129996201
0.000117026924
0.0007976818055
-0.0007972625012
3.314049885e-05
-4.13029019e-05
0.0007104678283
4.109837152e-05
-0.0007942833378
-0.0001313855217
0.0007928852126
-0.0001376260842
0.0007279908651
0.0001438449331
2.224774168e-05
-0.0002082615966
-2.232528747e-05
0.0002083391424
-0.0004044633565
-4.941555446e-05
0.0004055590134
4.831989756e-05
-0.0008545524047
-0.0001342637927
0.0003942648926
-0.001696190556
-0.0003966110649
0.001699026013
-0.0004007426191
0.001596736775
0.0003962753097
0.001822278537
-0.001827318163
0.0002069643819
-3.999351031e-05
3.996562953e-05
0.0009175748399
4.012829146e-05
0.0008599575016
-4.004152621e-05
2.470765972e-05
-0.0002233379127
-2.455363355e-05
0.0002231838866
-2.212208913e-05
-0.0002158850537
0.0002158604494
2.214669344e-05
-0.0009239177632
-0.0001322799493
0.0003912051543
-0.001835889862
-0.0003920327443
0.001836805908
0.001735380261
0.0003932891974
0.001964987093
-0.001967360008
0.0002065993376
-3.994449505e-05
3.991722781e-05
0.0009878019012
0.0009262059523
-4.002024408e-05
-3.040493302e-05
0.000953413215
3.037582646e-05
-0.0004755159725
-0.0004778681359
4.471990668e-07
-0.0002392345352
-4.376408031e-07
0.0004778744728
-0.0002386494959
-5.270813299e-07
-0.0002302229911
0.0004615034711
3.530539278e-07
-0.0002311064526
2.147315862e-05
-0.0002406706165
-2.159382621e-05
0.0002407912841
-2.296334712e-05
-0.0002322252048
0.0002316756761
2.351287575e-05
-0.0009907157632
-0.0001304339812
0.0003866472633
-0.001964538559
-0.0003884299844
0.001969949729
0.00186802566
0.0003903326518
0.002105076745
-0.002105465973
0.0002060393414
-3.995425121e-05
3.99301799e-05
0.001056988457
0.0009965326324
-3.992326714e-05
-3.002472768e-05
0.001022667616
3.023704341e-05
-0.0005104249201
-0.0005124550119
5.922371486e-07
-0.0002564787957
-6.439289673e-07
0.0002565304875
-2.331617818e-07
-0.0002482394709
0.0004971197261
2.769682941e-07
-0.0002489240617
4.083887545e-05
-0.0005131491649
-4.104992509e-05
0.0005133602145
-4.189121086e-05
-0.0004992822833
4.080861065e-05
0.000250713832
0.0002496510515
0.002244923027
0.0002063387729
-0.001118244004
-0.001126920214
-4.010185331e-05
-0.0005625490544
3.994386118e-05
0.00112696043
0.001065970193
-3.998023076e-05
-1.639081808e-05
0.0005473892284
-0.0005474466731
1.644826285e-05
1.719253466e-06
-0.0002744416133
-1.445869676e-06
0.0002741682295
-1.138598105e-06
-0.0002651572834
0.000265265258
1.030623469e-06
0.0002760946526
1.123107638e-05
-0.0002752648089
-1.206092013e-05
3.954558638e-05
-0.0005470547838
-3.941390884e-05
0.0005469231063
-4.035113874e-05
-0.0005322994841
0.0005323100441
4.034057877e-05
0.002337909811
0.0002011319255
-0.001140340292
-0.001197012091
-3.680640451e-05
-0.0005971410962
3.680640452e-05
0.001197012091
-0.0005691829392
0.001135070356
-4.009128052e-05
-1.638485331e-05
0.0005817056921
-0.0005816528872
1.633204842e-05
7.638698059e-07
-0.0002892208972
-1.515326717e-06
0.0002899723541
-2.195514638e-06
-0.0002812669881
0.0002816094311
1.853071626e-06
0.001266569623
-0.001266569623
2.695326921e-05
-0.001266569623
4.200921302e-05
-4.200921301e-05
0.001266569623
0.0006014871107
2.223615959e-05
-2.930022329e-06
0.0004132972193
2.596602384e-06
-0.000205960139
-0.0002070036604
3.221859877e-06
0.0004270664466
-3.169001445e-06
-0.0002135882873
-0.0002135310178
0.00040469819
4.549018676e-06
-5.440962931e-06
-0.0004038062457
0.0004122542637
-0.0004125663758
-2.617910172e-06
-0.000215424615
-2.206536924e-05
0.0002153678951
-0.0002082042841
0.000208392077
2.205994875e-05
-0.0001272020808
-0.000832165889
0.0001263078897
0.0004184078174
0.0004146522628
-4.803240719e-05
0.0002082132699
4.728352259e-05
-0.0004156686694
2.278011794e-05
-0.0002154546981
-2.275003483e-05
-0.0002295968421
-7.418221554e-07
0.0004593396311
-0.0002295280482
-0.000444905043
-5.640993958e-07
0.0004449471812
5.219611316e-07
3.024841934e-05
0.0008925817124
-3.027937613e-05
-0.0008925507556
-3.046833811e-06
2.751451073e-06
-0.0002220928256
-0.0002225168347
1.241702311e-06
-0.0002295953421
-1.243202285e-06
0.0004286958748
3.022385411e-06
-0.0002139228116
-0.0002145735887
0.0004431846727
-2.971746785e-06
-0.0002215002462
-0.0002217595135
-0.0002312741652
-2.236768772e-05
0.0002306785058
-0.0002246208311
0.0002243174674
2.501102343e-05
-6.281019363e-05
-0.0004489865627
0.0004490833227
6.271343368e-05
-2.494268317e-05
2.501240665e-05
-0.0002246905546
2.312848846e-05
-0.0002316285377
-2.277411596e-05
2.2771012e-05
-0.0002158759478
-0.0002234932519
-2.478734403e-05
-0.0004461763615
-6.281796714e-05
0.000446184135
-0.0002475592127
-4.222321099e-07
0.000494672671
-0.000246924388
-0.0002400032705
0.0004804517489
6.295224611e-07
-0.0002406308018
0.0009624673263
-3.016730163e-05
-0.0004803534743
-0.0004823514834
-1.40281263e-06
1.453901118e-06
-0.000240054359
9.773782495e-07
-0.0002475073353
-1.029255681e-06
1.19634627e-06
-0.0002301776351
-0.0002393378033
-1.299544475e-06
-0.0004964679356
-4.179931303e-05
0.0002484593414
0.0002479166964
-0.0002410888313
0.0002410375941
2.15243958e-05
-0.000120226697
-0.0009649079576
0.0001203206972
0.0004831144563
0.0004816995011
-4.478866459e-05
0.0002409273304
4.439976324e-05
-0.0004816272603
4.420427102e-05
-0.0004963938296
-4.427837697e-05
2.347630245e-05
-0.0002325730188
0.000239764503
-0.0004799198853
-2.222718389e-05
-2.307671482e-05
-0.0009566769603
-0.0001210720577
0.0004797504306
0.0004777718904
-0.000264618348
-1.195265119e-06
0.0002646750151
-0.0002569741879
0.0002569783721
5.880529202e-07
0.001030584842
-3.033722676e-05
-0.0005142927147
-0.0005159796281
-1.35688416e-06
1.201222222e-06
-0.000256818526
2.221514375e-06
-0.0002644497863
-2.390076124e-06
9.734023762e-07
-0.000248235495
-0.000256418959
-1.416720811e-06
-0.0005304801192
-4.041352266e-05
0.0005305425031
-0.0005156860914
0.0005156925786
4.083238823e-05
-0.0002819084129
-2.415418385e-06
0.0002821283167
-0.0002745035545
0.000274605849
1.616958951e-06
0.0005494105414
-1.638541851e-05
-0.000549415941
-8.941789917e-06
-0.0002746484535
0.0002737099626
9.880280737e-06
-2.844386911e-06
2.679316146e-06
-0.0002743384837
2.552157009e-06
-0.0002814475387
-3.013031224e-06
1.999785827e-06
-0.0002649355548
-0.0002746263674
-2.659632868e-06
-1.050998901e-05
0.0002776628517
7.668004241e-05
-0.001122424945
-7.650726608e-05
0.0005618467643
0.0005604054041
-0.0005487186456
0.000548557126
3.970710602e-05
1.122213699e-05
-0.0002746395141
-0.0006048693722
8.513701037e-07
0.0006020861711
1.82200237e-06
1.098286683e-07
-0.0002897550869
0.0002901824591
3.36497626e-07
0.0005836653091
-1.649457984e-05
-0.0005835555826
-1.224657838e-05
-0.0005763792563
0.0005768036503
1.182218434e-05
-1.781554047e-07
-8.59867182e-08
-0.0002894909448
4.975782973e-06
-0.0006049123947
-4.819699045e-07
-4.450790581e-06
2.077925219e-06
-0.0002807927563
-7.247465423e-07
-0.000288674306
-0.0005746677704
-1.302379778e-05
0.0005754449898
0.001685938058
-0.001694768361
0.0002080205707
4.021325855e-05
0.0008525190198
4.303255996e-05
0.0008056917638
-4.195767138e-05
-3.141453785e-05
0.0008229545763
-0.0008228720028
3.133196439e-05
3.444239061e-07
-2.938885531e-07
0.0004122037283
1.74245535e-06
0.0004059075868
-2.951852213e-06
3.856138285e-05
-0.0002017403311
-5.379129709e-06
0.000168558078
-0.000207504868
-2.238826143e-05
0.0002103567428
1.953638663e-05
0.0008843769429
-0.0008844700291
3.034150556e-05
-5.656769407e-07
0.0004431862502
-5.383334892e-07
0.0004286966732
5.375350563e-07
8.321669522e-05
-0.0002553335793
-3.702641736e-05
0.0002091433014
-0.001056715915
-0.0001289696331
0.0003819651343
-0.002078751324
-0.0003838972375
0.002105721832
0.002004772255
0.0003865007968
8.146391007e-05
-0.0002707525094
-3.250891556e-05
0.0002217975149
2.989265349e-05
-0.0005387210176
-3.025588297e-05
0.0002697835074
0.0002693007397
-1.555910609e-05
-0.0002659635836
0.0002659203889
1.560230078e-05
1.677143949e-05
-0.0005742834548
-1.715575514e-05
8.195600669e-05
-0.001152566513
-7.9542973e-05
0.001150153479
-0.00112987177
7.694154274e-05
0.0005656356011
0.0005639746682
-5.373357708e-07
0.0004270654489
0.0004133205541
3.210890924e-07
0.0008266305499
-3.087618204e-05
-0.0008271689057
-4.738009444e-06
0.0002100456327
5.112138408e-06
-0.0002104197617
0.0002085855709
1.940159393e-06
8.554257255e-07
-0.000211381156
0.0002051461915
3.432235949e-06
-0.0002054069309
-3.171496592e-06
-5.4334779e-05
5.09690636e-05
-0.0004010976411
0.0002069833344
-0.0004143802916
-4.88970465e-05
-0.0008229242596
-0.0001256216638
0.0004119866107
0.0004093572319
-0.0002658940571
-1.577586043e-05
0.0002661108115
-1.862691125e-05
-0.0002623499972
0.000263143538
1.783337051e-05
-0.0001195938482
-0.001031770959
0.001032166568
0.000119198239
-4.363607862e-05
4.343439336e-05
-0.0005154844061
4.298031414e-05
-0.0005303321704
-4.31282629e-05
4.386563557e-05
-0.0004989436479
-0.0005131501265
-4.363511705e-05
-0.001024613854
-0.0001197458139
0.001024765819
-1.181211578e-05
-0.0002792386556
0.0002802320303
1.081874106e-05
0.0002839717971
9.173220584e-06
-0.0002839600006
-9.185017112e-06
1.419786039e-05
-0.0005690338511
-1.443152017e-05
0.0002845867166
0.0002846807942
-0.0003714953953
-2.037797159e-05
0.000371505226
2.036814086e-05
0.0008017084148
9.070392796e-06
-1.571407906e-05
-7.501896764e-06
-0.0003895143999
-0.0003980484319
0.0003988954913
-0.00040706602
1.271954736e-05
-0.0004013491054
-4.997213894e-05
0.0004019056898
-0.0007851449029
-0.0001115852992
0.000394610308
0.0003767107514
5.675388367e-05
6.865525902e-05
-3.07442564e-05
3.131447746e-05
-0.0003720656164
-0.0002556880746
0.0002942494575
-4.624936566e-05
-0.0004104867205
4.545093077e-05
0.0002057573944
0.0002055277609
-2.21437404e-05
-2.628735836e-05
-0.0002072569758
-2.06720426e-05
1.926565996e-05
-0.0002060984854
-0.0002064486568
-1.743541475e-05
-0.0004068737872
-4.498601473e-05
0.0002033732687
0.0002022371677
-2.159154674e-05
-0.000219769095
0.0002197972733
2.156336846e-05
-0.0002196238481
-2.16821028e-05
0.0002197144042
-2.116976066e-05
-0.0002373355576
0.0002372235367
2.128178154e-05
-0.0002375422334
-2.15254097e-05
0.0002378978824
-0.0002564806681
1.864100864e-05
-1.674860918e-05
0.0002545882686
-0.0002599096472
0.0003308850241
1.224131829e-05
-4.137610059e-05
-0.0005065493833
0.0005065457367
4.137974726e-05
-2.155062334e-05
1.785617662e-05
-0.0002562152005
1.911896452e-05
-0.0002570091807
-1.859045191e-05
-1.930371361e-05
3.68016182e-05
-0.0002466298403
0.0002291319357
-0.0002538564266
-2.302777601e-05
-0.0005047889385
-4.143978878e-05
0.0002526170826
0.0002522355441
-0.0002699452621
-1.098873736e-07
0.0002700551048
4.474853224e-11
6.943293267e-06
0.000540345743
-6.988523249e-06
-0.000540300513
-6.97704972e-06
0.0005473619447
-0.0005474170931
7.032198068e-06
2.88913684e-05
-0.0005468487049
-2.907742893e-05
0.0005470347655
-0.000540677867
2.949846354e-05
0.000270889445
0.000270182612
0.0003497723496
7.582787663e-06
-0.0002758912272
1.150488696e-06
-0.0002865474418
0.0002869435349
-1.546581824e-06
7.23020516e-06
0.0005749171516
-7.283974764e-06
-0.000574863382
-7.285008884e-06
0.0005816008682
7.016089918e-06
-0.0002903652121
-0.0002909667371
7.097284855e-06
0.0005656542354
-7.248408662e-06
-0.0005655031115
0.0005726955515
-0.0005726473797
7.182033425e-06
-0.0002851929386
6.392658893e-07
0.0002857041614
0.0002120860196
-2.982490618e-06
5.837986189e-05
-0.0002674833909
0.0002086078462
-4.948004184e-06
-0.0002083978514
2.726167215e-06
0.0004194518159
-2.889637268e-06
-0.0002090599349
-0.000210228411
5.047261463e-06
-5.497967198e-06
0.0002090585519
-5.201271994e-06
0.0002098640224
7.423269153e-06
7.88519385e-06
-2.075989851e-05
0.0002141527744
-0.0002012780697
0.0002103746776
4.718216598e-06
0.0004220048287
3.187534125e-06
-0.000211208672
-0.0002112575236
1.679428765e-06
0.0004112804175
-0.0004115383351
-1.421511191e-06
4.399542205e-06
-4.629262805e-06
0.0002053759121
6.926447526e-06
0.000202254915
-5.957917007e-07
-0.0002091367479
-4.36884964e-06
0.0002083043255
-0.000205423661
0.00020543624
4.386963234e-06
0.0004101867175
1.937154661e-06
-0.0004104444434
4.753850282e-06
-0.0002067452754
-0.0002088260438
-3.293194661e-06