/*--------------------------------*- C++ -*----------------------------------*\
| =========                 |                                                 |
| \\      /  F ield         | OpenFOAM: The Open Source CFD Toolbox           |
|  \\    /   O peration     | Version:  v1912                                 |
|   \\  /    A nd           | Website:  www.openfoam.com                      |
|    \\/     M anipulation  |                                                 |
\*---------------------------------------------------------------------------*/
FoamFile
{
    version     2.0;
    format      ascii;
    class       pointVectorField;
    location    "2.32";
    object      pointDisplacement;
}
// * * * * * * * * * * * * * * * * * * * * * * * * * * * * * * * * * * * * * //

dimensions      [0 1 0 0 0 0 0];


internalField   nonuniform List<vector> 
26316
(
(0 0 0)
(0 0 0)
(0 0 0)
(0 0 0)
(0 0 0)
(0 0 0)
(0 0 0)
(0 0 0)
(0 0 0)
(0 0 0)
(0 0 0)
(0 0 0)
(0 0 0)
(0 0 0)
(0 0 0)
(0 0 0)
(0 0 0)
(0 0 0)
(0 0 0)
(0 0 0)
(0 0 0)
(0 0 0)
(0 0 0)
(0 0 0)
(0 0 0)
(0 0 0)
(0 0 0)
(0 0 0)
(0 0 0)
(0 0 0)
(0 0 0)
(0 0 0)
(0 0 0)
(0 0 0)
(0 0 0)
(0 0 0)
(0 0 0)
(0 0 0)
(0 0 0)
(0 0 0)
(0 0 0)
(0 0 0)
(0 0 0)
(0 0 0)
(0 0 0)
(0 0 0)
(0 0 0)
(0 0 0)
(0 0 0)
(0 0 0)
(0 0 0)
(0 0 0)
(0 0 0)
(0 0 0)
(0 0 0)
(0 0 0)
(0 0 0)
(0 0 0)
(0 0 0)
(0 0 0)
(0 0 0)
(0 0 0)
(0 0 0)
(0 0 0)
(0 0 0)
(0 0 0)
(0 0 0)
(0 0 0)
(0 0 0)
(0 0 0)
(0 0 0)
(0 0 0)
(0 0 0)
(0 0 0)
(0 0 0)
(0 0 0)
(0 0 0)
(0 0 0)
(0 0 0)
(0 0 0)
(0 0 0)
(0 0 0)
(0 0 0)
(0 0 0)
(0 0 0)
(0 0 0)
(0 0 0)
(0 0 0)
(0 0 0)
(0 0 0)
(0 0 0)
(0 0 0)
(0 0 0)
(0 0 0)
(0 0 0)
(0 0 0)
(0 0 0)
(0 0 0)
(0 0 0)
(0 0 0)
(0 0 0)
(0 0 0)
(0 0 0)
(0 0 0)
(0 0 0)
(0 0 0)
(0 0 0)
(0 0 0)
(0 0 0)
(0 0 0)
(0 0 0)
(0 0 0)
(0 0 0)
(0 0 0)
(0 0 0)
(0 0 0)
(0 0 0)
(0 0 0)
(0 0 0)
(-6.497252714e-07 -1.848816484e-06 2.775557562e-17)
(0 0 0)
(0 0 0)
(-3.584231703e-07 -2.071058362e-05 3.469446952e-16)
(1.655243457e-06 -1.76040133e-05 2.775557562e-16)
(0 0 0)
(0 0 0)
(0 0 0)
(0 0 0)
(0 0 0)
(0 0 0)
(0 0 0)
(0 0 0)
(0 0 0)
(0 0 0)
(0 0 0)
(0 0 0)
(0 0 0)
(0 0 0)
(0 0 0)
(0 0 0)
(0 0 0)
(0 0 0)
(0 0 0)
(0 0 0)
(0 0 0)
(0 0 0)
(0 0 0)
(0 0 0)
(0 0 0)
(0 0 0)
(0 0 0)
(0 0 0)
(0 0 0)
(0 0 0)
(0 0 0)
(0 0 0)
(0 0 0)
(0 0 0)
(0 0 0)
(0 0 0)
(0 0 0)
(0 0 0)
(0 0 0)
(0 0 0)
(0 0 0)
(0 0 0)
(0 0 0)
(0 0 0)
(0 0 0)
(0 0 0)
(0 0 0)
(0 0 0)
(0 0 0)
(0 0 0)
(0 0 0)
(0 0 0)
(0 0 0)
(0 0 0)
(0 0 0)
(0 0 0)
(0 0 0)
(0 0 0)
(0 0 0)
(0 0 0)
(0 0 0)
(-4.047693642e-05 -4.234483519e-05 4.857225733e-16)
(-0.0002329137715 -0.0002655334865 3.080868893e-15)
(-3.046116201e-06 -3.217110624e-06 4.163336342e-17)
(-0.0004420434717 -0.0006392758254 8.007483565e-15)
(-0.001096746342 -0.001714857201 1.99146255e-14)
(-0.001300455412 -0.002322100182 2.696454171e-14)
(-0.000607220505 -0.001001966793 1.254552018e-14)
(-0.0007371183454 -0.002110781474 2.645106356e-14)
(-0.001288406212 -0.004011201782 4.660161146e-14)
(-0.00107169851 -0.004432870042 5.148659277e-14)
(-0.0006334755787 -0.002402200597 3.010092176e-14)
(-2.271911958e-05 -0.00281120735 3.520794767e-14)
(-2.31832407e-05 -0.005015830627 5.820344207e-14)
(0.0003661426502 -0.004952884412 5.745404152e-14)
(0.0002121769882 -0.002765755213 3.462508058e-14)
(0.0007000109485 -0.002121419605 2.654820808e-14)
(0.001242522184 -0.004031960563 4.674038934e-14)
(0.001359697057 -0.00352336098 4.082845173e-14)
(0.0007354893309 -0.001775948984 2.221833828e-14)
(0.0004319160414 -0.0006479566474 8.10462808e-15)
(0.001072523573 -0.001733031186 2.008115896e-14)
(0.0008065076687 -0.001157649147 1.341982081e-14)
(0.0002522563859 -0.0003359234195 4.204969706e-15)
(0 0 0)
(4.24637633e-05 -4.560582426e-05 5.273559367e-16)
(0 0 0)
(0 0 0)
(0 0 0)
(0 0 0)
(0 0 0)
(0 0 0)
(0 0 0)
(0 0 0)
(0 0 0)
(0 0 0)
(0 0 0)
(0 0 0)
(0 0 0)
(0 0 0)
(0 0 0)
(0 0 0)
(0 0 0)
(0 0 0)
(0 0 0)
(0 0 0)
(0 0 0)
(0 0 0)
(0 0 0)
(0 0 0)
(0 0 0)
(0 0 0)
(0 0 0)
(0 0 0)
(0 0 0)
(0 0 0)
(0 0 0)
(0 0 0)
(0 0 0)
(0 0 0)
(0 0 0)
(0 0 0)
(0 0 0)
(0 0 0)
(0 0 0)
(0 0 0)
(0 0 0)
(0 0 0)
(0 0 0)
(0 0 0)
(0 0 0)
(0 0 0)
(-0.0001130450902 -0.0001151515385 1.026956298e-15)
(-0.0006174129009 -0.0006704233243 6.009082121e-15)
(-0.0001462764659 -0.0001498036678 1.415534356e-15)
(-0.002084475094 -0.002665013583 2.536859611e-14)
(-0.003331457372 -0.004519597986 4.060640713e-14)
(-0.004245729175 -0.006287195723 5.652422974e-14)
(-0.002863362437 -0.003994210238 3.803901638e-14)
(-0.004433425695 -0.00853123935 8.136546992e-14)
(-0.005854659752 -0.01198258877 1.078720446e-13)
(-0.005873998155 -0.01378268979 1.240951786e-13)
(-0.004545747816 -0.01001911281 9.556244684e-14)
(-0.003513628663 -0.01371793932 1.307842723e-13)
(-0.004347686815 -0.01815911525 1.633693181e-13)
(-0.003401687981 -0.01915897366 1.722788578e-13)
(-0.002778738912 -0.01457707018 1.38916656e-13)
(6.662500145e-05 -0.01574511305 1.497413304e-13)
(0.0001299120494 -0.02051476743 1.840472219e-13)
(0.00136573749 -0.0203896556 1.827704654e-13)
(0.001071491028 -0.0156320689 1.485755963e-13)
(0.003587148407 -0.01381505948 1.310618281e-13)
(0.004521654662 -0.01830088971 1.636885072e-13)
(0.005232729403 -0.01706809502 1.525723992e-13)
(0.004119122638 -0.01275841944 1.209726763e-13)
(0.004415256106 -0.008628624911 8.178180355e-14)
(0.005874689446 -0.01213215902 1.083855228e-13)
(0.005554582094 -0.01022233826 9.132972156e-14)
(0.00406616677 -0.007076089911 6.708522626e-14)
(0.00206915894 -0.002707268972 2.568778523e-14)
(0.003310827513 -0.00458829227 4.103661855e-14)
(0.002339053644 -0.002993319223 2.678413047e-14)
(0.00129819631 -0.001567921222 1.487698853e-14)
(0 0 0)
(0.0001122328672 -0.0001164516744 1.040834086e-15)
(0 0 0)
(0 0 0)
(0 0 0)
(0 0 0)
(0 0 0)
(0 0 0)
(0 0 0)
(0 0 0)
(0 0 0)
(0 0 0)
(0 0 0)
(0 0 0)
(0 0 0)
(0 0 0)
(0 0 0)
(0 0 0)
(0 0 0)
(0 0 0)
(0 0 0)
(0 0 0)
(0 0 0)
(0 0 0)
(0 0 0)
(0 0 0)
(0 0 0)
(0 0 0)
(0 0 0)
(0 0 0)
(0 0 0)
(0 0 0)
(0 0 0)
(0 0 0)
(0 0 0)
(0 0 0)
(0 0 0)
(0 0 0)
(0 0 0)
(0 0 0)
(0 0 0)
(-4.863730762e-05 -5.123187686e-05 3.747002708e-16)
(0 0 0)
(-0.002069001946 -0.002466308047 1.890154699e-14)
(-0.003074385006 -0.003838298866 2.806088695e-14)
(-0.004807897382 -0.006404729006 4.687916721e-14)
(-0.003531443627 -0.004489878279 3.444466934e-14)
(-0.008046349806 -0.01281090352 9.85739268e-14)
(-0.009758638637 -0.01630265136 1.197236754e-13)
(-0.01089462254 -0.01989306525 1.462024946e-13)
(-0.009172189614 -0.01595734995 1.228739333e-13)
(-0.0103685625 -0.02504002702 1.930122728e-13)
(-0.01180810448 -0.02995346628 2.203237592e-13)
(-0.0112459235 -0.03277903018 2.41071052e-13)
(-0.009974016153 -0.02766892364 2.132599652e-13)
(-0.006744835549 -0.03364432666 2.589317649e-13)
(-0.007434546503 -0.03901506821 2.864236626e-13)
(-0.005649455961 -0.04031399776 2.957079026e-13)
(-0.005154480936 -0.03492965109 2.685907052e-13)
(0.0003502151897 -0.03665041317 2.80969692e-13)
(0.0004054442609 -0.0420338974 3.073374888e-13)
(0.002475767227 -0.0419157854 3.061301213e-13)
(0.002241107757 -0.03651969922 2.796651799e-13)
(0.007307057307 -0.0339636874 2.593064652e-13)
(0.008108427043 -0.03939679591 2.868122406e-13)
(0.009604170761 -0.0377692905 2.747246874e-13)
(0.00860582834 -0.03236531075 2.468997229e-13)
(0.01060731525 -0.02542994837 1.9372004e-13)
(0.01213263562 -0.03042357134 2.209205041e-13)
(0.01217238001 -0.02725062317 1.97841743e-13)
(0.01052599246 -0.02252349644 1.715710907e-13)
(0.008016981094 -0.01293279633 9.860168237e-14)
(0.009994838656 -0.01685228268 1.223188217e-13)
(0.008609474824 -0.01342214564 9.738043705e-14)
(0.006822068022 -0.01015593485 7.741030039e-14)
(0.002361566692 -0.002862879671 2.184363801e-14)
(0.003529949487 -0.004485458652 3.261280135e-14)
(0.001991360911 -0.002382104779 1.733335697e-14)
(0.001137860605 -0.001298442944 9.922618283e-15)
(0 0 0)
(0 0 0)
(0 0 0)
(0 0 0)
(0 0 0)
(0 0 0)
(0 0 0)
(0 0 0)
(0 0 0)
(0 0 0)
(0 0 0)
(0 0 0)
(0 0 0)
(0 0 0)
(0 0 0)
(0 0 0)
(0 0 0)
(0 0 0)
(0 0 0)
(0 0 0)
(0 0 0)
(0 0 0)
(0 0 0)
(0 0 0)
(0 0 0)
(0 0 0)
(0 0 0)
(0 0 0)
(0 0 0)
(0 0 0)
(0 0 0)
(0 0 0)
(0 0 0)
(0 0 0)
(0 0 0)
(-0.0002247934001 -0.0002562871744 1.637578961e-15)
(-0.0005111977192 -0.0006064115927 3.719247132e-15)
(-0.001815399334 -0.002264834624 1.391942117e-14)
(-0.001220561851 -0.001463564197 9.353628982e-15)
(-0.007165239306 -0.0101794934 6.530886942e-14)
(-0.008475425608 -0.01252684748 7.725764473e-14)
(-0.01091841776 -0.01720718196 1.062483435e-13)
(-0.009467391843 -0.01434158261 9.210687768e-14)
(-0.0149057949 -0.02825734821 1.821320872e-13)
(-0.01645901582 -0.03245755547 2.009642452e-13)
(-0.01732702063 -0.03731812216 2.312317005e-13)
(-0.01584022857 -0.03281205944 2.117195308e-13)
(-0.01557553891 -0.04490045392 2.902122986e-13)
(-0.01654092229 -0.0494469429 3.070044219e-13)
(-0.01523634081 -0.05234343964 3.249622793e-13)
(-0.01439706476 -0.0476850965 3.081285227e-13)
(-0.00895248774 -0.05338007781 3.442246488e-13)
(-0.009263980188 -0.05709184964 3.537448112e-13)
(-0.006901235765 -0.05768806152 3.571171137e-13)
(-0.006709032011 -0.05429543998 3.497896417e-13)
(0.0004217749263 -0.05533811466 3.553407568e-13)
(0.0003729223136 -0.05817877308 3.590183706e-13)
(0.002807964923 -0.05823614078 3.589628594e-13)
(0.002825328329 -0.05532640812 3.548550342e-13)
(0.009803343863 -0.0539709499 3.449462938e-13)
(0.01006009991 -0.05767667453 3.542305338e-13)
(0.01225994186 -0.05679349183 3.483879851e-13)
(0.0118593795 -0.05275993647 3.368277879e-13)
(0.01613138913 -0.04569143095 2.908506769e-13)
(0.01714853524 -0.05042504447 3.080591338e-13)
(0.01795672861 -0.04715535566 2.877142968e-13)
(0.01671641901 -0.04221520575 2.683409051e-13)
(0.01539552616 -0.02948974415 1.873223798e-13)
(0.01696694391 -0.03381573331 2.063071936e-13)
(0.01553011389 -0.02864350628 1.748601264e-13)
(0.01392901921 -0.02469052044 1.569300245e-13)
(0.007573637003 -0.01095227302 6.980527267e-14)
(0.008927749358 -0.01343420232 8.223977055e-14)
(0.00643399068 -0.009116422725 5.587197371e-14)
(0.005271123187 -0.007177355936 4.579669977e-14)
(0.000347768555 -0.0004025286285 2.581268532e-15)
(0.0005974512306 -0.0007197302876 4.413136523e-15)
(1.516625284e-05 -1.739998698e-05 1.110223025e-16)
(0 0 0)
(0 0 0)
(0 0 0)
(0 0 0)
(0 0 0)
(0 0 0)
(0 0 0)
(0 0 0)
(0 0 0)
(0 0 0)
(0 0 0)
(0 0 0)
(0 0 0)
(0 0 0)
(0 0 0)
(0 0 0)
(0 0 0)
(0 0 0)
(0 0 0)
(0 0 0)
(0 0 0)
(0 0 0)
(0 0 0)
(0 0 0)
(0 0 0)
(0 0 0)
(0 0 0)
(0 0 0)
(0 0 0)
(-2.139654234e-05 -2.761181895e-05 1.387778781e-16)
(-5.838533813e-07 -7.28824455e-07 0)
(0 0 0)
(-0.00160474762 -0.002125731801 1.168509733e-14)
(-0.002025417 -0.002776288331 1.475208844e-14)
(-0.004201225279 -0.006055214032 3.22103455e-14)
(-0.003584414446 -0.004992846637 2.749189765e-14)
(-0.01162764494 -0.01917885553 1.059430321e-13)
(-0.01265633542 -0.02159584992 1.152827833e-13)
(-0.01536531205 -0.02794641067 1.493527524e-13)
(-0.0145571269 -0.02559611371 1.415811912e-13)
(-0.02007672827 -0.04412666869 2.446792768e-13)
(-0.02090849021 -0.04750793522 2.545186284e-13)
(-0.02144099807 -0.05316017469 2.848832281e-13)
(-0.02068808622 -0.04963044782 2.75279799e-13)
(-0.01859693207 -0.06148248333 3.409217353e-13)
(-0.01899430501 -0.06480563595 3.470557175e-13)
(-0.0170653351 -0.06652311164 3.560624018e-13)
(-0.01681712658 -0.0635945857 3.525374437e-13)
(-0.009723278861 -0.06481312351 0)
(-0.009882986879 -0.06717208618 0)
(-0.008655712391 -0.06718354109 0)
(-0.007361090846 -0.06714339795 0)
(-0.007271171257 -0.06597595032 0)
(-0.00722967382 -0.06483558331 0)
(0.0001897442405 -0.06498637906 0)
(0.0001595343727 -0.0661206182 0)
(0.001402162838 -0.06615272012 0)
(0.001425640082 -0.0650184084 0)
(0.01017938139 -0.06534546901 0)
(0.01018543969 -0.06651137553 0)
(0.01019983052 -0.0676955646 0)
(0.0114349908 -0.06776412182 0)
(0.01265280516 -0.06780974803 0)
(0.0126613251 -0.0654689744 0)
(0.01908658546 -0.06284915703 3.432809592e-13)
(0.01937199343 -0.06614951154 3.491235079e-13)
(0.02084086314 -0.0635409845 3.351346978e-13)
(0.02039870954 -0.05999800799 3.275019145e-13)
(0.02059867517 -0.04591484664 2.505079477e-13)
(0.02133580125 -0.04926425212 2.595562654e-13)
(0.02025034395 -0.04325310659 2.279426647e-13)
(0.01933466177 -0.03987262619 2.176037128e-13)
(0.01246837787 -0.02097345262 1.146999162e-13)
(0.01363583732 -0.02374557168 1.254274462e-13)
(0.01074227952 -0.01761178907 9.311995619e-14)
(0.009675096322 -0.015323588 8.38912273e-14)
(0.002153569964 -0.002898591216 1.591782262e-14)
(0.002691905587 -0.00374985886 1.988686993e-14)
(0.0009643507043 -0.001279047291 6.786238238e-15)
(0.0006561280089 -0.0008408765377 4.62130334e-15)
(0 0 0)
(0 0 0)
(0 0 0)
(0 0 0)
(0 0 0)
(0 0 0)
(0 0 0)
(0 0 0)
(0 0 0)
(0 0 0)
(0 0 0)
(0 0 0)
(0 0 0)
(0 0 0)
(0 0 0)
(0 0 0)
(0 0 0)
(0 0 0)
(0 0 0)
(0 0 0)
(0 0 0)
(0 0 0)
(0 0 0)
(0 0 0)
(0 0 0)
(0 0 0)
(0 0 0)
(0 0 0)
(-0.0001927935274 -0.000281391755 1.276756478e-15)
(-0.0001098676455 -0.0001557061377 7.21644966e-16)
(-8.988131287e-05 -0.0001235840671 5.967448757e-16)
(-0.002910221418 -0.004392531306 2.119138198e-14)
(-0.003018228226 -0.004694899986 2.198241589e-14)
(-0.00558779914 -0.009137077519 4.27990976e-14)
(-0.005440087261 -0.00863205205 4.168887457e-14)
(-0.01462389401 -0.02744609048 1.329769628e-13)
(-0.01485883296 -0.02872982713 1.350447532e-13)
(-0.01768622216 -0.03643068895 1.714045572e-13)
(-0.01743499038 -0.0348632051 1.691008444e-13)
(-0.0226028384 -0.0563571905 2.738642646e-13)
(-0.02284258481 -0.05863390797 2.763761442e-13)
(-0.02313385873 -0.06471967561 3.050892872e-13)
(-0.02291602687 -0.06229261768 3.027716966e-13)
(-0.01963218245 -0.07314724381 3.551881012e-13)
(-0.01974169364 -0.07561262376 3.560624018e-13)
(-0.01748139857 -0.07630018478 0)
(-0.01741680145 -0.07399076268 3.590183706e-13)
(-0.01015038061 -0.07415738599 0)
(-0.01018826095 -0.0753275704 0)
(-0.008977870284 -0.0753526965 0)
(-0.008940145075 -0.07418435287 0)
(0.01009542778 -0.07466029881 0)
(0.01007154459 -0.07581949449 0)
(0.01128130332 -0.07585641266 0)
(0.01130641496 -0.07469896649 0)
(0.01968918064 -0.07460098744 3.572697693e-13)
(0.01967816046 -0.07707292606 3.581301922e-13)
(0.02164045142 -0.07556465257 3.508582314e-13)
(0.02157265122 -0.07289922934 3.488598299e-13)
(0.02338326043 -0.05968197728 2.853828285e-13)
(0.02365126277 -0.06231657892 2.891159534e-13)
(0.02283248672 -0.05559550257 2.580019531e-13)
(0.02251905498 -0.05312997805 2.541300503e-13)
(0.01600192657 -0.03073038495 1.473127176e-13)
(0.01636002473 -0.03240513289 1.506988978e-13)
(0.01328368291 -0.02475941215 1.152550277e-13)
(0.01294375063 -0.02339375012 1.122574256e-13)
(0.003905653342 -0.005993367977 2.885192085e-14)
(0.004410358549 -0.006978688902 3.258504577e-14)
(0.002103336816 -0.003168147443 1.47937218e-14)
(0.001731502753 -0.002529462146 1.21846977e-14)
(0 0 0)
(0 0 0)
(0 0 0)
(0 0 0)
(0 0 0)
(0 0 0)
(0 0 0)
(0 0 0)
(0 0 0)
(0 0 0)
(0 0 0)
(0 0 0)
(0 0 0)
(0 0 0)
(0 0 0)
(0 0 0)
(0 0 0)
(0 0 0)
(0 0 0)
(0 0 0)
(0 0 0)
(0 0 0)
(0 0 0)
(0 0 0)
(0 0 0)
(0 0 0)
(0 0 0)
(0 0 0)
(-0.0003164832992 -0.0005153890212 2.109423747e-15)
(-0.000285847276 -0.0004534401334 1.887379142e-15)
(-0.000250768965 -0.0003872076624 1.665334537e-15)
(-0.003586359584 -0.006076436057 2.610411887e-14)
(-0.003708512395 -0.006455071119 2.699229729e-14)
(-0.006467072765 -0.01183081629 4.95159469e-14)
(-0.006314088603 -0.01124449634 4.835021272e-14)
(-0.01579194712 -0.03322587146 1.433020369e-13)
(-0.01598475416 -0.03453620564 1.449673714e-13)
(-0.01879315504 -0.04322765896 1.816047313e-13)
(-0.01860283692 -0.04167619947 1.798977634e-13)
(-0.02353591635 -0.06557059458 2.834954493e-13)
(-0.02368679839 -0.06770697415 2.848832281e-13)
(-0.02384969161 -0.07421276111 3.122779813e-13)
(-0.02371844587 -0.07195478647 3.111122471e-13)
(-0.01999434921 -0.08276491969 3.574363028e-13)
(-0.02006383201 -0.08509692814 3.576583474e-13)
(-0.01771918078 -0.08548461924 0)
(-0.01766132027 -0.08319418703 0)
(-0.01040705234 -0.08338500564 0)
(-0.01043669384 -0.08453099968 0)
(-0.00922950265 -0.08456258534 0)
(-0.009199701905 -0.08341659553 0)
(0.009877274022 -0.08390772733 0)
(0.009846922628 -0.0850604489 0)
(0.01105387046 -0.08509319676 0)
(0.01108441868 -0.08394106475 0)
(0.01954198023 -0.08416024366 3.589767372e-13)
(0.01948046019 -0.08647004283 3.590183706e-13)
(0.02164859272 -0.08553406512 3.548966676e-13)
(0.02167804527 -0.08313368849 3.543554339e-13)
(0.02432635076 -0.07018321857 2.988997938e-13)
(0.02443014072 -0.07254174401 3.007316618e-13)
(0.02386492326 -0.06541464712 2.712274849e-13)
(0.02371409161 -0.06317407128 2.690903056e-13)
(0.01764445998 -0.03816452508 1.628697177e-13)
(0.01789648475 -0.0398013842 1.653399639e-13)
(0.01485475949 -0.03106750553 1.291744489e-13)
(0.01459099693 -0.02968340786 1.268013472e-13)
(0.005056914986 -0.008723382797 3.737288257e-14)
(0.005262318634 -0.009329050832 3.889943923e-14)
(0.002713746712 -0.00457837016 1.910971381e-14)
(0.002558386632 -0.004200279096 1.801336857e-14)
(0 0 0)
(0 0 0)
(0 0 0)
(0 0 0)
(0 0 0)
(0 0 0)
(0 0 0)
(0 0 0)
(0 0 0)
(0 0 0)
(0 0 0)
(0 0 0)
(0 0 0)
(0 0 0)
(0 0 0)
(0 0 0)
(0 0 0)
(0 0 0)
(0 0 0)
(0 0 0)
(0 0 0)
(0 0 0)
(0 0 0)
(0 0 0)
(0 0 0)
(0 0 0)
(0 0 0)
(0 0 0)
(-0.000466861546 -0.0008390074197 3.094746681e-15)
(-0.0004209051825 -0.0007386638986 2.775557562e-15)
(-0.0003799881589 -0.0006508496692 2.525757381e-15)
(-0.004012721746 -0.007540867452 2.919886555e-14)
(-0.004135951761 -0.007963276886 3.010092176e-14)
(-0.006997358778 -0.01415581284 5.354050536e-14)
(-0.006845500067 -0.01351775858 5.238864897e-14)
(-0.01646137901 -0.03834950939 1.490335633e-13)
(-0.01664920648 -0.03972151857 1.506572644e-13)
(-0.0194510126 -0.04936975564 1.874056466e-13)
(-0.01926601459 -0.04775833507 1.857541898e-13)
(-0.02407352368 -0.07400331449 2.882416528e-13)
(-0.02421943104 -0.07617891221 2.895461648e-13)
(-0.02431833387 -0.08317203783 3.161221285e-13)
(-0.02419176438 -0.08088589336 3.150535388e-13)
(-0.02025971919 -0.09204832549 3.581163144e-13)
(-0.02032490795 -0.09436853635 3.582828478e-13)
(-0.01794660749 -0.09462717174 0)
(-0.01789012864 -0.09234275865 0)
(-0.01064057953 -0.09253323945 0)
(-0.0106694125 -0.09367479277 0)
(-0.00946385986 -0.0937060693 0)
(-0.009449335798 -0.09313524237 0)
(-0.009434824425 -0.0925648932 0)
(0.009621459809 -0.09311906154 0)
(0.009587720499 -0.09426733719 0)
(0.01079333891 -0.09429813737 0)
(0.0108272276 -0.09315023754 0)
(0.01927863444 -0.09335822432 3.58990615e-13)
(0.01920654713 -0.09563228994 3.589351039e-13)
(0.02133531355 -0.09438969284 3.540640003e-13)
(0.02143043478 -0.09225374557 3.545358451e-13)
(0.0241883082 -0.07799062196 2.994965387e-13)
(0.0240527456 -0.07960973971 2.984001934e-13)
(0.02348344496 -0.07166150392 2.686600942e-13)
(0.02362288433 -0.07024783818 2.697980728e-13)
(0.01767187303 -0.04254306001 1.636746294e-13)
(0.01754537578 -0.04331084225 1.626476731e-13)
(0.01452695231 -0.03369796442 1.266486915e-13)
(0.0146424653 -0.03313091949 1.275785033e-13)
(0.00511937438 -0.009808598396 3.787248293e-14)
(0.005052253486 -0.009920623572 3.738676035e-14)
(0.002559629376 -0.004782014089 1.804112415e-14)
(0.002606947917 -0.004752555567 1.836031327e-14)
(0 0 0)
(0 0 0)
(0 0 0)
(0 0 0)
(0 0 0)
(0 0 0)
(0 0 0)
(0 0 0)
(0 0 0)
(0 0 0)
(0 0 0)
(0 0 0)
(0 0 0)
(0 0 0)
(0 0 0)
(0 0 0)
(0 0 0)
(0 0 0)
(0 0 0)
(0 0 0)
(0 0 0)
(0 0 0)
(0 0 0)
(0 0 0)
(0 0 0)
(0 0 0)
(0 0 0)
(0 0 0)
(-0.0006685989724 -0.00131439853 4.427014311e-15)
(-0.0006139488511 -0.0011810655 4.066191828e-15)
(-0.0005610920918 -0.001055710412 3.719247132e-15)
(-0.004521371712 -0.009330775863 3.28903571e-14)
(-0.004657201123 -0.009825555076 3.387568004e-14)
(-0.007633022397 -0.01691496038 5.836997552e-14)
(-0.007468413723 -0.01619032635 5.712097462e-14)
(-0.01722485401 -0.04398529459 1.555700013e-13)
(-0.01742359017 -0.04546341696 1.572630914e-13)
(-0.02021113449 -0.05606416029 1.940808625e-13)
(-0.02001651303 -0.0543488949 1.923738946e-13)
(-0.02466169986 -0.08280951799 2.93459701e-13)
(-0.02481215854 -0.08505845018 2.947919686e-13)
(-0.02482919277 -0.09245237942 3.204103649e-13)
(-0.02470012858 -0.0901102187 3.193417752e-13)
(-0.02051515666 -0.1013208791 3.586714259e-13)
(-0.02057667918 -0.1036334388 3.587685704e-13)
(-0.01817022203 -0.1037701973 0)
(-0.01811471653 -0.1014844304 0)
(-0.010869618 -0.1016744742 0)
(-0.01089778908 -0.1028171076 0)
(-0.009694308115 -0.1028483822 0)
(-0.009680089866 -0.102277069 0)
(-0.009665821353 -0.1017058635 0)
(0.009342923837 -0.1022918637 0)
(0.00930593563 -0.1034384594 0)
(0.01051041863 -0.1034680076 0)
(0.01054766379 -0.1023217375 0)
(0.01894886288 -0.1022624445 3.580885588e-13)
(0.01883883652 -0.1043342887 3.573669138e-13)
(0.02074788099 -0.1018698318 3.487765632e-13)
(0.02093602981 -0.1002270062 3.508027202e-13)
(0.02317313693 -0.08266892941 2.891853423e-13)
(0.02267928316 -0.08285737412 2.835509605e-13)
(0.02204857063 -0.0741716711 2.538802502e-13)
(0.02245495036 -0.07377933561 2.58140731e-13)
(0.01624741987 -0.04308111844 1.509903313e-13)
(0.01583517938 -0.04295492838 1.472710842e-13)
(0.01284606211 -0.03272236335 1.122713034e-13)
(0.01322970588 -0.03294624874 1.155603391e-13)
(0.004129197737 -0.008697033731 3.057276654e-14)
(0.003907450984 -0.008415701198 2.894906537e-14)
(0.001737485868 -0.003559935976 1.225408663e-14)
(0.001886195343 -0.003779482882 1.329492072e-14)
(0 0 0)
(0 0 0)
(0 0 0)
(0 0 0)
(0 0 0)
(0 0 0)
(0 0 0)
(0 0 0)
(0 0 0)
(0 0 0)
(0 0 0)
(0 0 0)
(0 0 0)
(0 0 0)
(0 0 0)
(0 0 0)
(0 0 0)
(0 0 0)
(0 0 0)
(0 0 0)
(0 0 0)
(0 0 0)
(0 0 0)
(0 0 0)
(0 0 0)
(0 0 0)
(0 0 0)
(0 0 0)
(-0.0008450554798 -0.001803799684 5.606626274e-15)
(-0.000873922797 -0.001828526044 5.787037516e-15)
(-0.0007977557869 -0.001635555321 5.287437155e-15)
(-0.005101345971 -0.01146603088 3.709532681e-14)
(-0.005275049083 -0.01209839907 3.83582055e-14)
(-0.008373222579 -0.02016379553 6.396272401e-14)
(-0.008166480343 -0.01927458535 6.239453398e-14)
(-0.01805800168 -0.05012141896 1.626476731e-13)
(-0.01829931519 -0.05179964084 1.647154635e-13)
(-0.02106382273 -0.06333933933 2.015332345e-13)
(-0.02082991111 -0.06142819647 1.994793219e-13)
(-0.02528248654 -0.09195456669 2.989414272e-13)
(-0.02545515012 -0.09433901016 3.004818616e-13)
(-0.02537333928 -0.1020360399 3.249900349e-13)
(-0.02522892458 -0.09959109471 3.237549118e-13)
(-0.02075535757 -0.1105478599 3.589767372e-13)
(-0.02081306531 -0.1128437743 3.590183706e-13)
(-0.01839042039 -0.1129106045 0)
(-0.01833540674 -0.1106253557 0)
(-0.01109150658 -0.1108145178 0)
(-0.01111866625 -0.1119570717 0)
(-0.009917460838 -0.1119880203 0)
(-0.009903769196 -0.1114165338 0)
(-0.009890035751 -0.1108454734 0)
(0.00903879704 -0.1114421533 0)
(0.00899856466 -0.1125848912 0)
(0.01020264837 -0.1126134727 0)
(0.01024325233 -0.1114707446 0)
(0.0184279228 -0.1100090814 3.536893001e-13)
(0.01824760711 -0.1115992359 3.516215097e-13)
(0.01983790522 -0.1072497299 3.37799233e-13)
(0.02011196619 -0.1062192056 3.413658245e-13)
(0.021288628 -0.08327336508 2.675776267e-13)
(0.02091969871 -0.08364843238 2.634142904e-13)
(0.01985022907 -0.07296253526 2.298161661e-13)
(0.02048581221 -0.0737048243 2.368799601e-13)
(0.01398653305 -0.04048884826 1.303401831e-13)
(0.01310871803 -0.03873604287 1.222077994e-13)
(0.01016779822 -0.02819930324 8.903988657e-14)
(0.01104810732 -0.03002043597 9.671430323e-14)
(0.00277221331 -0.006365248717 2.053912596e-14)
(0.002421089009 -0.005673854525 1.794397964e-14)
(0.0007864273309 -0.001753410993 5.551115123e-15)
(0.0009898450637 -0.002162218449 6.980527267e-15)
(0 0 0)
(0 0 0)
(0 0 0)
(0 0 0)
(0 0 0)
(0 0 0)
(0 0 0)
(0 0 0)
(0 0 0)
(0 0 0)
(0 0 0)
(0 0 0)
(0 0 0)
(0 0 0)
(0 0 0)
(0 0 0)
(0 0 0)
(0 0 0)
(0 0 0)
(0 0 0)
(0 0 0)
(0 0 0)
(0 0 0)
(0 0 0)
(0 0 0)
(0 0 0)
(0 0 0)
(0 0 0)
(-0.001502540229 -0.003459635335 9.950373858e-15)
(-0.001369821747 -0.003096337542 9.076073226e-15)
(-0.001172311397 -0.002600772434 7.771561172e-15)
(-0.005833472212 -0.01417979849 4.238276397e-14)
(-0.006268016321 -0.0155199334 4.55330218e-14)
(-0.009509324284 -0.0247109528 7.255307466e-14)
(-0.008977254895 -0.02290541294 6.852851619e-14)
(-0.01911469372 -0.05724572085 1.716404796e-13)
(-0.01947324099 -0.05937449641 1.746935929e-13)
(-0.02214685946 -0.07167933795 2.110256414e-13)
(-0.0218488393 -0.06946962139 2.084166173e-13)
(-0.02601850036 -0.1017536672 3.055333764e-13)
(-0.02611951564 -0.1039224456 3.061995102e-13)
(-0.02600035028 -0.1121276722 3.303746166e-13)
(-0.02583732808 -0.1095617819 3.2897296e-13)
(-0.02098323727 -0.1197014428 0)
(-0.02104137723 -0.1219863961 0)
(-0.01861509845 -0.1220496709 0)
(-0.01858625138 -0.1209075867 0)
(-0.01855771999 -0.1197653879 0)
(-0.0113062218 -0.1199544862 0)
(-0.01131962264 -0.1205250242 0)
(-0.01071885505 -0.1205402904 0)
(-0.01070551152 -0.1199699102 0)
(-0.0008871068521 -0.1203667898 0)
(-0.0009012847325 -0.120651143 0)
(-0.0009135508831 -0.1209356002 0)
(-0.0003251915527 -0.1209445341 0)
(-0.0002978510683 -0.1203761725 0)
(0.008690653704 -0.1205696534 0)
(0.008641736309 -0.1217073798 0)
(0.00859234962 -0.122844775 0)
(0.01100760911 -0.122902923 0)
(0.0111033417 -0.1206266177 0)
(0.009897446093 -0.1205982537 0)
(0.01758907024 -0.1153820402 3.429617701e-13)
(0.01727363056 -0.1158835092 3.380906666e-13)
(0.01843956686 -0.1089728198 3.178429742e-13)
(0.01893668005 -0.1095301989 3.254757575e-13)
(0.01912627114 -0.08140472847 2.419037193e-13)
(0.0184344682 -0.08003458039 2.334521465e-13)
(0.01710964697 -0.06819738392 1.989935994e-13)
(0.0178331089 -0.06970243799 2.07195372e-13)
(0.01086293782 -0.03406274065 1.014188733e-13)
(0.0102088236 -0.0326269471 9.535428003e-14)
(0.007470589765 -0.02239959698 6.550315845e-14)
(0.008046703238 -0.02367374042 7.052691764e-14)
(0.001144911062 -0.00284566651 8.493206138e-15)
(0.0009307169737 -0.002357559435 6.911138328e-15)
(7.379773541e-05 -0.0001779015849 5.273559367e-16)
(0.0001409943888 -0.0003334906233 9.853229344e-16)
(0 0 0)
(0 0 0)
(0 0 0)
(0 0 0)
(0 0 0)
(0 0 0)
(0 0 0)
(0 0 0)
(0 0 0)
(0 0 0)
(0 0 0)
(0 0 0)
(0 0 0)
(0 0 0)
(0 0 0)
(0 0 0)
(0 0 0)
(0 0 0)
(0 0 0)
(0 0 0)
(0 0 0)
(0 0 0)
(0 0 0)
(0 0 0)
(0 0 0)
(0 0 0)
(0 0 0)
(0 0 0)
(-0.001424943022 -0.003537637786 9.478529073e-15)
(-0.001610328224 -0.003929309004 1.071365219e-14)
(-0.001720738324 -0.004125676328 1.144917494e-14)
(-0.00694332358 -0.01823376508 5.06539255e-14)
(-0.006720289459 -0.01795989555 4.903022433e-14)
(-0.01002822132 -0.02812182327 7.68274333e-14)
(-0.01029522093 -0.02837084583 7.886746811e-14)
(-0.02036346592 -0.065805792 1.833255769e-13)
(-0.02003832626 -0.06587306651 1.803002192e-13)
(-0.02268204069 -0.07911870081 2.166600233e-13)
(-0.02299801789 -0.07887334682 2.198380367e-13)
(-0.02666619574 -0.1123817689 3.13471471e-13)
(-0.02646274047 -0.1133472081 3.106265245e-13)
(-0.02614642214 -0.1213772922 3.326089404e-13)
(-0.02628806441 -0.1201100046 3.349959199e-13)
(-0.02094794737 -0.1288707874 0)
(-0.02100864522 -0.1311560446 0)
(-0.01857560273 -0.1312206677 0)
(-0.01854526085 -0.1300783045 0)
(-0.01851490488 -0.1289354105 0)
(-0.01121588358 -0.1291292771 0)
(-0.01124623955 -0.1302721711 0)
(-0.01002977139 -0.1303044812 0)
(-0.01001458636 -0.1297327688 0)
(-0.009999415418 -0.1291615872 0)
(-0.0106076495 -0.1291454321 0)
(-0.001483874619 -0.1293877653 0)
(-0.00149904454 -0.1299589469 0)
(-0.001514229068 -0.1305306593 0)
(-0.0002977235296 -0.1305629705 0)
(-0.000267367555 -0.1294200764 0)
(0.00824813783 -0.1296462535 0)
(0.00818743998 -0.1319315108 0)
(0.01058437639 -0.131490321 3.576583474e-13)
(0.01067362115 -0.1296080885 3.587408148e-13)
(0.01635198675 -0.1171387607 3.238243007e-13)
(0.01594037371 -0.1166331318 3.168992846e-13)
(0.01675592562 -0.1076331607 2.924049891e-13)
(0.01724969804 -0.1085881164 3.001349169e-13)
(0.01604430061 -0.07373807929 2.038647029e-13)
(0.01539471472 -0.07207218951 1.958433415e-13)
(0.01373324594 -0.05892468758 1.601635491e-13)
(0.01467298571 -0.06185593496 1.710576125e-13)
(0.007705432688 -0.02600481573 7.202571872e-14)
(0.006715633356 -0.02305956715 6.276923425e-14)
(0.00456447645 -0.01470476255 4.005129561e-14)
(0.005201077149 -0.01646518898 4.563016631e-14)
(0.000191628545 -0.0005127620573 1.415534356e-15)
(8.655766989e-05 -0.0002357567531 6.383782392e-16)
(0 0 0)
(0 0 0)
(0 0 0)
(0 0 0)
(0 0 0)
(0 0 0)
(0 0 0)
(0 0 0)
(0 0 0)
(0 0 0)
(0 0 0)
(0 0 0)
(0 0 0)
(0 0 0)
(0 0 0)
(0 0 0)
(0 0 0)
(0 0 0)
(0 0 0)
(0 0 0)
(0 0 0)
(0 0 0)
(0 0 0)
(0 0 0)
(0 0 0)
(0 0 0)
(0 0 0)
(0 0 0)
(0 0 0)
(0 0 0)
(-0.0003328008014 -0.0008832069556 2.220446049e-15)
(-0.0006038813287 -0.001576739042 4.010680676e-15)
(-0.0008971931465 -0.002304124871 5.967448757e-15)
(-0.005149290092 -0.01448888679 3.758104938e-14)
(-0.004399261129 -0.012588628 3.211320099e-14)
(-0.007168020485 -0.02152702253 5.494216193e-14)
(-0.00810890893 -0.02394341073 6.21447338e-14)
(-0.0175610838 -0.06076478067 1.579708586e-13)
(-0.01627984579 -0.05730386249 1.465078059e-13)
(-0.01890729398 -0.07059158816 1.80577775e-13)
(-0.02020994754 -0.07417665486 1.929290061e-13)
(-0.02459549304 -0.1106389268 2.880057304e-13)
(-0.0235144295 -0.1075530698 2.753630657e-13)
(-0.02373073264 -0.1174852166 3.008010507e-13)
(-0.02465426913 -0.1200759771 3.125832926e-13)
(-0.02094758978 -0.1365282014 3.551603456e-13)
(-0.02063797778 -0.1365070602 3.492900413e-13)
(-0.01864727772 -0.1391785832 3.559930128e-13)
(-0.01874576966 -0.1379956602 3.588240816e-13)
(-0.01145870318 -0.1382713676 0)
(-0.01151941513 -0.1405571556 0)
(-0.00908642572 -0.1406217773 0)
(-0.009025713771 -0.1383359893 0)
(-0.01024223502 -0.1383036777 0)
(-0.001726692472 -0.1385298558 0)
(-0.001787404422 -0.1408156439 0)
(0.0006456009086 -0.140880266 0)
(0.0007063128578 -0.138594478 0)
(0.007945990233 -0.1375491568 3.558264794e-13)
(0.007785098635 -0.1376367464 3.502892421e-13)
(0.009887967829 -0.1334706363 3.395617121e-13)
(0.01015030639 -0.1344572932 3.476802179e-13)
(0.01459206893 -0.112670545 2.911004771e-13)
(0.01396208926 -0.1095618609 2.785272013e-13)
(0.0142918541 -0.0982456203 2.497446694e-13)
(0.01503021701 -0.1016992587 2.627342788e-13)
(0.01273791683 -0.06269057484 1.620370504e-13)
(0.01183530476 -0.05915803338 1.504629754e-13)
(0.01005009862 -0.0460343709 1.171146513e-13)
(0.01093614023 -0.0493211717 1.2753687e-13)