/*--------------------------------*- C++ -*----------------------------------*\
| =========                 |                                                 |
| \\      /  F ield         | OpenFOAM: The Open Source CFD Toolbox           |
|  \\    /   O peration     | Version:  v1912                                 |
|   \\  /    A nd           | Website:  www.openfoam.com                      |
|    \\/     M anipulation  |                                                 |
\*---------------------------------------------------------------------------*/
FoamFile
{
    version     2.0;
    format      ascii;
    class       volVectorField;
    location    "2.32";
    object      U;
}
// * * * * * * * * * * * * * * * * * * * * * * * * * * * * * * * * * * * * * //

dimensions      [0 1 -1 0 0 0 0];


internalField   nonuniform List<vector> 
12556
(
(99.99772467 0.005414738692 -4.543652995e-21)
(99.99720485 0.01769688981 6.856202662e-25)
(99.99565385 0.03567817004 -4.527946184e-21)
(99.99308197 0.06299798375 -4.487851119e-21)
(99.99988979 0.04810285524 4.312024631e-21)
(99.99674093 0.07629228495 0)
(99.99515676 0.1188476007 0)
(99.99483382 0.1755300618 -7.32932408e-21)
(99.99371202 0.2471819901 8.410707449e-22)
(99.99330291 0.3288820459 -5.25508233e-21)
(99.99368211 0.4080401123 7.934636728e-22)
(99.99578518 0.4653271498 0)
(100.0009073 0.4824078402 0)
(100.0056099 0.4540282559 1.705476915e-21)
(100.0061819 0.3914600576 -2.163334316e-21)
(100.0065545 0.3138305862 1.080207095e-21)
(100.005889 0.2375813323 0)
(100.0050149 0.1720828707 1.607780675e-21)
(100.0044771 0.1186784167 6.570309081e-21)
(100.0023906 0.08110641153 -1.800323691e-21)
(100.0088545 0.08969752605 -1.550960541e-20)
(100.0058536 0.05410033148 0)
(100.0041348 0.02822717281 -1.93022114e-21)
(100.0038542 0.008786688248 -1.357244404e-20)
(99.97976346 0.01464852472 1.82273212e-20)
(99.9734213 0.04840635568 4.545429159e-21)
(99.95899055 0.09823586021 3.169629025e-20)
(99.93422116 0.1743998449 -1.357350921e-20)
(99.94070062 0.2281184854 4.347932346e-21)
(99.90374914 0.3654534339 -6.585195615e-23)
(99.85801546 0.5698784985 0)
(99.8360962 0.7454873636 -7.472641106e-21)
(99.79316582 1.062558447 -6.792861746e-21)
(99.77043031 1.436906023 -1.142694363e-20)
(99.7873054 1.808583883 -4.511793548e-21)
(99.85411182 2.091329525 -5.1247356e-21)
(99.95951909 2.193699261 -2.448351341e-21)
(100.0687861 2.082871955 8.628586103e-22)
(100.1423691 1.806008772 -6.984126556e-22)
(100.1692912 1.451865359 5.566797714e-21)
(100.1600502 1.097425292 -1.032834608e-20)
(100.1305207 0.7964005504 0)
(100.1293995 0.5785633792 -2.758027689e-20)
(100.0890809 0.3837772867 5.279327179e-20)
(100.0832603 0.2540246394 1.501440165e-20)
(100.0560435 0.1527087587 3.071085741e-20)
(100.0403124 0.07994139634 -3.080188307e-20)
(100.0342341 0.02492178845 1.550283933e-20)
(99.94539063 0.01963512465 -1.818671194e-20)
(99.92737949 0.06596135018 -3.655673752e-20)
(99.88808608 0.1361549723 -8.172616736e-20)
(99.82228489 0.2467962475 1.086691421e-19)
(99.79444001 0.362729035 -8.974764822e-21)
(99.68392445 0.5969433078 -8.651613239e-21)
(99.5416266 0.9504795267 -1.497920582e-20)
(99.47273153 1.322018341 0)
(99.33410641 1.935752337 2.824345192e-20)
(99.26552231 2.672838174 -1.103397744e-19)
(99.3335092 3.434377624 -1.105937897e-19)
(99.5833392 4.055554948 -3.821693308e-19)
(99.99017863 4.316945596 4.81196475e-20)
(100.3964085 4.097277584 -2.510956647e-21)
(100.6361922 3.485506944 -7.998778973e-20)
(100.6923088 2.741835346 -4.291466973e-21)
(100.6338475 2.040051041 -1.10330527e-20)
(100.5142667 1.444569494 -2.504788137e-20)
(100.425508 0.9767998262 -1.656927694e-19)
(100.3007236 0.6390408852 -3.632292924e-20)
(100.2284619 0.3789330061 -1.530840794e-20)
(100.1565592 0.2255010109 3.474494993e-20)
(100.1132544 0.1179003319 -3.893002264e-21)
(100.0943191 0.03657675289 0)
(99.90365986 0.0178316655 -9.186953802e-21)
(99.86901244 0.06243500463 6.426305872e-20)
(99.79477316 0.1367390027 -1.839195595e-20)
(99.67336973 0.2575968612 0)
(99.58138732 0.421918867 0)
(99.36550635 0.7252687934 -7.041304614e-20)
(99.07155956 1.201304353 -1.405753262e-19)
(98.8576782 1.761215011 3.279572266e-20)
(98.53715144 2.657110678 0)
(98.33649706 3.780361518 -2.432591024e-19)
(98.40035911 5.056987327 7.189514965e-19)
(98.91002122 6.253861138 1.247999594e-19)
(99.90480457 6.87821329 1.128470893e-19)
(100.9656846 6.517266347 -8.056002796e-20)
(101.5563701 5.364067318 4.416809508e-19)
(101.6116648 4.008174041 6.492093136e-19)
(101.4048459 2.851626651 0)
(101.1287085 1.969068229 0)
(100.8726525 1.264748574 5.95254555e-20)
(100.6154752 0.8074134783 -4.557410646e-20)
(100.4290075 0.439394958 -3.906703468e-20)
(100.2953187 0.2581260616 1.971537769e-20)
(100.2124872 0.1325123188 -3.949318935e-21)
(100.1746638 0.04064574246 0)
(99.87105888 0.007606373222 0)
(99.81701467 0.03230024456 0)
(99.70212645 0.09051901878 9.333937449e-21)
(99.51350979 0.194850052 1.405236545e-20)
(99.34274034 0.38521091 2.322045718e-20)
(98.98514272 0.7135372047 0)
(98.49140788 1.236831983 0)
(98.05189101 1.936273686 2.08621792e-19)
(97.44111762 3.051547681 -6.031180436e-19)
(96.93075261 4.56190977 1.517269778e-18)
(96.75529638 6.540201156 9.087329132e-19)
(97.44549854 8.824516933 -3.528578039e-19)
(99.5196197 10.34933921 8.538870712e-20)
(101.9800804 9.751250076 1.462361279e-19)
(103.2018614 7.565405263 0)
(103.1332224 5.216873826 -9.558915089e-20)
(102.5424669 3.454573832 0)
(101.9488285 2.274007115 -3.551702708e-22)
(101.4386632 1.385733648 -9.676718599e-20)
(101.0015201 0.8568639382 8.016089686e-21)
(100.6572547 0.4172132322 0)
(100.4472503 0.2382546763 4.007898396e-21)
(100.3168348 0.1169884727 -3.010536154e-21)
(100.2562437 0.03505330068 -9.97600703e-22)
(99.86590676 -0.0115782607 0)
(99.79192743 -0.02641751385 0)
(99.63657799 -0.008860188445 -1.866975539e-20)
(99.37703026 0.05354655765 3.81809428e-20)
(99.11640343 0.2357125837 0)
(98.60146503 0.5274029642 0)
(97.87832996 1.010600749 2.989925401e-20)
(97.16543184 1.745773846 1.645705967e-19)
(96.14836312 2.90102774 -7.246660338e-19)
(95.04901009 4.638615031 3.739230313e-19)
(94.03788391 7.436698763 -1.313588553e-18)
(94.2293015 11.83863162 4.798378442e-19)
(98.43046815 15.90904074 0)
(104.2181122 14.43648902 9.174419621e-19)
(106.1971574 9.909890254 -3.880208931e-19)
(105.4892638 6.146240162 -4.741959495e-19)
(104.0736991 3.703915655 3.231962392e-21)
(102.9125374 2.268922343 0)
(102.0664894 1.284666687 2.480247809e-20)
(101.4109578 0.7509542587 -1.648351237e-20)
(100.8793795 0.3010461966 0)
(100.5836572 0.1578005384 0)
(100.4027667 0.06753888682 -1.007267657e-21)
(100.3179135 0.01876372611 -3.014089784e-21)
(99.90580072 -0.03929966289 4.578477376e-21)
(99.81391109 -0.1115628449 -4.615145701e-21)
(99.62387202 -0.1576155039 9.428410222e-21)
(99.30221305 -0.1665374098 -3.444252808e-20)
(98.9420927 -0.02907095929 6.529274835e-23)
(98.28603549 0.162455754 2.965647258e-20)
(97.3648083 0.5101891775 -1.352675666e-19)
(96.35705825 1.132160323 1.090692398e-18)
(94.88758826 2.113628717 1.309760973e-20)
(92.98403423 3.687137838 0)
(90.2095571 6.6112671 0)
(86.67064051 13.88502963 0)
(94.57897634 26.73931898 0)
(110.9769943 20.78972536 0)
(111.4491963 11.43096999 1.546102919e-18)
(108.6586202 6.107403794 1.603718813e-18)
(105.8916968 3.309294476 0)
(103.9368095 1.849558988 -8.542092015e-19)
(102.648867 0.9122664902 0)
(101.7842006 0.4686166639 8.853003779e-21)
(101.0527201 0.09072806406 2.62868761e-21)
(100.673685 0.01416845829 -3.112523333e-21)
(100.4464499 -0.01548877945 -3.538425331e-21)
(100.3384695 -0.008082051212 8.543856506e-21)
(100.0058315 -0.07375484117 -4.578959571e-21)
(99.90060143 -0.2173969555 4.616799187e-21)
(99.68582748 -0.3446861198 -5.869415604e-21)
(99.31991497 -0.4474550595 -3.960998319e-21)
(98.87641497 -0.3899547767 1.692468504e-20)
(98.1173596 -0.3515408956 1.012759851e-20)
(97.06577171 -0.2322351522 -5.31185956e-21)
(95.8169527 0.1481597012 0)
(94.01621692 0.7100797831 0)
(91.48361239 1.57358166 -1.148087848e-18)
(87.09601644 2.912592738 1.034882468e-18)
(78.10451915 5.635948003 1.327130107e-18)
(127.329152 22.93974844 -3.430605361e-18)
(118.559729 9.172946629 0)
(112.0832985 4.292301884 8.455384744e-19)
(107.6010709 2.041996333 -6.600947384e-19)
(104.8278601 0.9670269389 5.862126311e-19)
(103.0764545 0.2754066718 -4.665455937e-21)
(102.0456915 0.02567205579 1.993007091e-20)
(101.1327265 -0.2052633265 -3.187814252e-21)
(100.6881486 -0.1831463468 2.611149915e-21)
(100.4251118 -0.126879015 -4.821854684e-22)
(100.2981281 -0.0441302659 -7.999273032e-21)
(100.1769521 -0.1122363193 -2.211577855e-21)
(100.0645427 -0.3355687937 -1.662652835e-21)
(99.83787943 -0.5542049058 -5.704337202e-22)
(99.45095306 -0.7635728708 1.732335848e-21)
(98.9488153 -0.8106173589 -3.390063478e-23)
(98.1493012 -0.9562753047 0)
(97.05183381 -1.104063435 -4.076613383e-20)
(95.68366343 -1.042101839 1.021618785e-18)
(93.78860352 -0.9902862995 4.847688949e-19)
(91.2171646 -0.9860260174 -1.058683816e-18)
(87.16981302 -1.510609472 1.078069176e-18)
(81.47303713 -3.77376147 1.195435481e-18)
(139.8446503 5.463110247 2.365200298e-18)
(123.1875065 1.963384062 2.950690288e-18)
(114.2888156 0.5811915135 -9.655691662e-19)
(108.668178 -0.03685964341 1.36242738e-18)
(105.3385033 -0.3034529577 2.450536206e-18)
(103.2529368 -0.5534796523 -4.727768892e-21)
(102.1213661 -0.5404264842 1.113349778e-20)
(101.0863058 -0.5598088221 1.088007399e-21)
(100.6041231 -0.4165459947 0)
(100.3202128 -0.2576237862 4.025013584e-21)
(100.1812185 -0.0865632247 3.981377166e-21)
(100.4243039 -0.1515638881 4.35751948e-21)
(100.3114663 -0.4562361622 6.682493611e-23)
(100.0868204 -0.7675865233 0)
(99.70390354 -1.085782971 2.252226264e-22)
(99.17404474 -1.248338425 -2.327088308e-21)
(98.39629773 -1.578840885 2.493669029e-21)
(97.33957049 -1.983429389 9.174729955e-20)
(95.99207533 -2.224484566 2.018023892e-19)
(94.22815266 -2.596232735 0)
(91.96226856 -3.169569918 1.025818741e-18)
(88.79747596 -4.426582195 -9.614941952e-19)
(85.29968719 -6.633261874 -2.363789994e-19)
(136.0234873 -11.31374913 -2.249207402e-18)
(122.5354106 -6.201904368 -9.750689905e-20)
(114.2213838 -3.768374397 -4.626774128e-19)
(108.6553578 -2.444288051 1.359592418e-18)
(105.2906097 -1.743671263 1.184649646e-18)
(103.1131199 -1.464462261 3.984221195e-20)
(101.9742486 -1.162516061 0)
(100.8952881 -0.9357452417 -1.060449126e-21)
(100.4082623 -0.6631751636 -4.422254635e-21)
(100.1210282 -0.3958263851 4.943886806e-22)
(99.97856096 -0.1315071011 0)
(100.746692 -0.1886828578 -2.145750999e-21)
(100.6396745 -0.5697773461 2.165850209e-21)
(100.4294977 -0.9669061662 2.112763977e-21)
(100.0752882 -1.386546112 -1.983231144e-21)
(99.54524235 -1.662007209 -2.295497653e-21)
(98.83915153 -2.153464148 0)
(97.88900995 -2.773932804 7.83257981e-20)
(96.65009033 -3.259970932 -1.959120034e-19)
(95.10879727 -3.918486716 9.348065806e-19)
(93.20284111 -4.805200858 -9.450665404e-19)
(90.6478767 -6.295857978 0)
(87.91978562 -8.207933497 -8.800627009e-19)
(126.4118311 -20.1736649 -1.599261083e-18)
(118.272293 -11.98789478 0)
(112.1739327 -7.296583746 0)
(107.6104906 -4.56718143 0)
(104.6767337 -3.09157694 -5.930005125e-19)
(102.6553072 -2.326906907 0)
(101.6058168 -1.760904506 -2.613978543e-20)
(100.5579689 -1.293840078 -1.330412233e-20)
(100.099938 -0.8988939149 1.012495215e-21)
(99.82649685 -0.5287419804 -3.198148717e-21)
(99.68896982 -0.174874 4.685214701e-22)
(101.1370202 -0.2209804378 7.852850327e-21)
(101.0411271 -0.6678785729 0)
(100.854588 -1.135050479 -2.108608655e-21)
(100.5453759 -1.650323512 0)
(100.0340466 -2.019391253 0)
(99.439461 -2.632497564 -6.825256349e-21)
(98.64023095 -3.413937902 1.530226096e-19)
(97.55945098 -4.075417976 -7.408187826e-19)
(96.2676143 -4.912665765 9.084061847e-19)
(94.68969742 -5.982769178 8.448034317e-19)
(92.53883981 -7.639273947 7.508366784e-19)
(90.05727101 -9.571536158 5.736242261e-19)
(116.5480256 -23.09634873 3.140097128e-18)
(112.7775259 -14.70665785 1.75108394e-18)
(109.1207244 -9.363098977 -4.688908889e-19)
(105.9036874 -6.033452919 0)
(103.6415704 -4.144388898 -1.092862896e-18)
(101.9359104 -3.036489565 2.088316007e-21)
(101.0494658 -2.270964178 -3.192280539e-20)
(100.0962628 -1.609040491 7.882078799e-21)
(99.69133424 -1.101302494 0)
(99.44472236 -0.6453342635 3.682061731e-21)
(99.31912527 -0.2130845177 0)
(101.583968 -0.2475020133 7.842761751e-21)
(101.5022061 -0.74897695 1.237183854e-19)
(101.3432729 -1.271689009 -2.492955297e-19)
(101.0831625 -1.856696843 -5.115836849e-22)
(100.6397938 -2.293060945 -1.978086944e-21)
(100.1564502 -2.988817596 0)
(99.53041075 -3.875098548 0)
(98.6260396 -4.635245276 3.483123972e-19)
(97.59534252 -5.566851961 0)
(96.34052586 -6.748399902 -7.511485033e-19)
(94.61198829 -8.606299529 1.617335518e-19)
(92.49111272 -10.85661766 7.400547256e-21)
(103.326174 -31.92858621 -9.042628588e-19)
(107.7551699 -21.16052301 -1.544803643e-19)
(107.6439378 -14.83901256 0)
(105.961234 -10.01677079 0)
(103.9618696 -6.774732661 -7.195269457e-19)
(102.3807995 -4.817144072 -1.908063702e-19)
(101.0501129 -3.531756326 -6.385825285e-20)
(100.3539334 -2.648568994 0)
(99.54423514 -1.848083105 0)
(99.20262839 -1.259113039 1.153274283e-20)
(98.99086715 -0.7383993578 2.125482998e-21)
(98.88202163 -0.2436006555 -6.903819821e-21)
(102.0729473 -0.2657851194 0)
(102.0069903 -0.8055797396 0)
(101.879503 -1.365457517 0)
(101.6707117 -1.987249181 0)
(101.293113 -2.486830659 0)
(100.9232058 -3.237610869 0)
(100.4541192 -4.170977959 0)
(99.74777843 -4.968118038 4.585617777e-19)
(98.96602098 -5.920072647 -7.360246876e-19)
(98.0398073 -7.123923208 -7.95604054e-20)
(96.83354014 -9.025925069 0)
(95.65043385 -11.70557404 -3.539020618e-19)
(96.56345629 -21.06361352 1.684497967e-19)
(102.5289924 -17.39283938 -5.643376577e-20)
(103.7889281 -13.37139648 -8.165424987e-20)
(103.2425777 -9.654178568 1.779483339e-19)
(102.103057 -6.910419865 0)
(101.0657552 -5.130603098 -8.517261784e-20)
(100.0949681 -3.810292285 -8.960603385e-20)
(99.58695664 -2.890158615 -3.372485899e-20)
(98.93337146 -2.001378405 -1.878722198e-20)
(98.65731733 -1.36824132 1.852614279e-20)
(98.48434189 -0.8038049211 0)
(98.39452953 -0.2650183949 1.852702643e-20)
(102.5892756 -0.2759227871 0)
(102.5397735 -0.837179505 0)
(102.4457052 -1.416941857 0)
(102.2892196 -2.048642343 0)
(101.9750743 -2.57950058 0)
(101.7199879 -3.341713083 0)
(101.4025344 -4.251999854 -1.412878601e-19)
(100.869094 -5.089488556 5.084419243e-19)
(100.292685 -6.028341814 -1.742377083e-18)
(99.65951952 -7.131921347 -5.742157662e-19)
(98.99677855 -8.709325047 4.309202119e-19)
(98.7820805 -11.18722574 3.347701629e-19)
(98.0524504 -13.90203756 0)
(100.4506773 -13.44331963 -1.599984382e-21)
(101.3525895 -11.31491036 4.22544127e-19)
(101.1569013 -8.766422711 2.583242208e-19)
(100.4919768 -6.649402231 3.20936332e-19)
(99.82919206 -5.16609269 -2.425015519e-20)
(99.14111433 -3.900321122 0)
(98.80587789 -3.002028238 0)
(98.29388214 -2.07502649 -3.506289259e-20)
(98.08035681 -1.427764479 1.730232596e-20)
(97.94580757 -0.8404615206 7.244462185e-22)
(97.87490741 -0.2770982648 -1.276695858e-20)
(103.1179233 -0.278482811 0)
(103.0835827 -0.8449380487 0)
(103.0202217 -1.428174835 0)
(102.9116291 -2.051046718 0)
(102.6552919 -2.591005563 0)
(102.4947781 -3.332784525 0)
(102.3007014 -4.176952775 1.503134285e-21)
(101.9104503 -5.027822272 1.225190197e-18)
(101.483821 -5.937769898 1.316521557e-18)
(101.0405555 -6.903221742 -1.006400531e-19)
(100.6585133 -8.060196935 2.678917633e-18)
(97.4462693 -9.035578135 -7.205911146e-19)
(99.08342377 -10.65601982 0)
(99.75958285 -10.56482387 -8.768105742e-20)
(99.90961003 -9.381684333 -5.485201819e-19)
(99.62664437 -7.70843122 1.261671658e-18)
(99.17002996 -6.175674386 -2.78631803e-19)
(98.73005217 -4.986592921 0)
(98.25135116 -3.841299819 -2.996034102e-20)
(98.04734383 -3.004955076 4.528331651e-20)
(97.65396122 -2.080875245 1.09308852e-20)
(97.49544946 -1.442985596 1.864324242e-20)
(97.39472818 -0.851076595 -2.118170978e-20)
(97.34069296 -0.2806216477 0)
(103.6451534 -0.2746248532 0)
(103.6236306 -0.8325022437 0)
(103.5855292 -1.405282733 0)
(103.516615 -2.004257832 0)
(103.3114178 -2.535897356 0)
(103.2231428 -3.232985628 0)
(103.1140255 -3.996282826 0)
(102.8289055 -4.793593482 -4.652192833e-21)
(102.4911215 -5.654798788 0)
(102.109412 -6.479678013 -1.23460146e-18)
(101.9599515 -7.36541964 -1.231683689e-19)
(93.15298926 -7.096054567 0)
(99.60420898 -8.64371286 -6.620739917e-19)
(99.34401554 -8.562231998 -5.969724193e-19)
(98.93113788 -7.78790999 0)
(98.50477406 -6.695201478 6.228023707e-19)
(98.11667588 -5.632375579 -1.97537717e-21)
(97.79270115 -4.680141794 0)
(97.45626031 -3.682958445 0)
(97.33485547 -2.921326911 0)
(97.03549012 -2.032781301 3.797197617e-20)
(96.92138628 -1.42129858 -3.552770755e-20)
(96.84773707 -0.839476557 -2.395658787e-21)
(96.80737372 -0.2771689939 2.403790257e-21)
(104.1594059 -0.265675899 0)
(104.1481052 -0.8041438505 0)
(104.1293644 -1.355556159 0)
(104.0909185 -1.919613691 0)
(103.9269211 -2.428854085 0)
(103.8889132 -3.067913772 0)
(103.8309803 -3.743545585 0)
(103.6035913 -4.439335457 0)
(103.2874644 -5.194585227 6.048608995e-20)
(102.8862203 -5.899643233 -7.875210083e-19)
(101.5864971 -6.503958079 2.764092717e-21)
(96.5141321 -6.939080851 1.101074847e-19)
(99.61316207 -7.268151038 1.380764849e-19)
(98.87245553 -7.092542883 2.075916583e-19)
(98.19421073 -6.546030886 4.871056803e-19)
(97.68149679 -5.837180185 0)
(97.29328466 -5.075138575 0)
(97.01302964 -4.311439978 0)
(96.75376682 -3.454158983 0)
(96.68136133 -2.774506104 0)
(96.45145607 -1.942663878 0)
(96.37050024 -1.368846244 0)
(96.31772819 -0.8109353522 0)
(96.28773964 -0.2687754328 0)
(104.651935 -0.2529181318 0)
(104.6482969 -0.763985764 0)
(104.6432714 -1.286135854 0)
(104.6263418 -1.808845114 0)
(104.4928003 -2.286177834 0)
(104.4845127 -2.86187762 0)
(104.4501366 -3.45348596 0)
(104.2439947 -4.047198855 0)
(103.919268 -4.657977249 0)
(103.4832175 -5.239139864 0)
(99.56527696 -5.526183029 2.513261118e-19)
(99.46085212 -6.10773798 2.581028122e-19)
(99.44364179 -6.143391622 -8.837241405e-20)
(98.480599 -5.97807937 -4.925713763e-20)
(97.68325768 -5.614920179 0)
(97.08293985 -5.114439341 0)
(96.65035607 -4.531617894 0)
(96.37075564 -3.917940438 0)
(96.14422289 -3.187907783 0)
(96.09491484 -2.590473638 0)
(95.91039678 -1.825772046 0)
(95.85158356 -1.29562931 0)
(95.81290821 -0.7694222122 0)
(95.7911159 -0.2555774241 0)
(105.1166195 -0.2375677832 0)
(105.1182254 -0.7159156949 0)
(105.1217185 -1.203667738 0)
(105.1181623 -1.682440108 0)
(105.0055812 -2.122620372 0)
(105.0102077 -2.635232084 0)
(104.9783873 -3.152071072 0)
(104.7722627 -3.652527098 0)
(104.4202874 -4.147214813 0)
(103.9257483 -4.598100151 0)
(99.4127887 -4.776849937 0)
(99.94844385 -5.225387882 0)
(99.38809231 -5.246754656 0)
(98.25596775 -5.124992654 0)
(97.32659827 -4.858451713 0)
(96.63040603 -4.480576254 0)
(96.14296218 -4.025930472 0)
(95.8408961 -3.528005293 0)
(95.61991174 -2.908252314 0)
(95.57467469 -2.387988756 0)
(95.41626086 -1.694107525 0)
(95.37025113 -1.209801416 0)
(95.33980709 -0.7199781363 0)
(95.32320987 -0.2395795608 0)
(105.5496408 -0.2207146558 0)
(105.5543628 -0.6634086313 0)
(105.5619243 -1.114032709 0)
(105.5648012 -1.548747644 0)
(105.465803 -1.949899562 0)
(105.4707291 -2.403298707 0)
(105.4267039 -2.853589335 0)
(105.2091638 -3.27425148 0)
(104.821196 -3.678237353 0)
(104.2493443 -4.032395158 0)
(99.44044887 -4.160154987 0)
(100.1292634 -4.516431986 0)
(99.35692171 -4.520464704 -2.360434282e-35)
(98.09228223 -4.424822442 0)
(97.05740252 -4.221043811 0)
(96.27992882 -3.928391569 0)
(95.73717981 -3.567460573 0)
(95.40164252 -3.159188536 0)
(95.17006033 -2.63203921 0)
(95.11606118 -2.180763715 0)
(94.96930265 -1.556749461 0)
(94.92862836 -1.117794326 0)
(94.90164005 -0.6664717799 0)
(94.88792979 -0.222183692 0)
(105.9491085 -0.2032550669 0)
(105.9552125 -0.6092991901 0)
(105.9633627 -1.022022336 0)
(105.9672054 -1.414105051 0)
(105.8760766 -1.776616075 0)
(105.8727068 -2.176296467 0)
(105.807376 -2.566239859 0)
(105.5722028 -2.922541519 0)
(105.1462354 -3.255639957 0)
(104.4950023 -3.539417569 0)
(99.50383467 -3.639532697 0)
(100.2267095 -3.929172686 0)
(99.32616149 -3.921117619 0)
(97.96414607 -3.842157802 0)
(96.84801865 -3.681170582 0)
(96.00283458 -3.449215216 0)
(95.40827536 -3.158018477 0)
(95.03528718 -2.820378206 0)
(94.78341679 -2.36996932 0)
(94.71288497 -1.978331446 0)
(94.56759118 -1.420196966 0)
(94.52660415 -1.024544005 0)
(94.49945586 -0.6118832861 0)
(94.48679256 -0.2043766254 0)
(106.3147043 -0.1858756366 0)
(106.320849 -0.5557178528 0)
(106.3270557 -0.9312203748 0)
(106.3278689 -1.283125208 0)
(106.2402763 -1.60874803 0)
(106.2231505 -1.960329625 0)
(106.1325804 -2.297272066 0)
(105.8756845 -2.601186576 0)
(105.413419 -2.878814354 0)
(104.6859533 -3.109983174 0)
(99.59493633 -3.195845609 0)
(100.278273 -3.434825093 0)
(99.29541076 -3.419093039 -3.381888816e-35)
(97.86046064 -3.352083494 0)
(96.6809719 -3.221620265 0)
(95.77969955 -3.034061581 0)
(95.13834846 -2.795671138 0)
(94.7281598 -2.513993011 0)
(94.44986321 -2.127547581 0)
(94.35861268 -1.78657546 0)
(94.20789342 -1.288937339 0)
(94.16259977 -0.9335967576 0)
(94.13274021 -0.5583658344 0)
(94.11973704 -0.1868606943 0)
(106.6472889 -0.1690792419 0)
(106.6524724 -0.5041853053 0)
(106.6549815 -0.844143082 0)
(106.6500156 -1.158966616 0)
(106.5628019 -1.450204552 0)
(106.5286617 -1.759168344 0)
(106.4112429 -2.05069785 0)
(106.1314379 -2.311248106 0)
(105.6360227 -2.545067649 0)
(104.8375178 -2.736076235 0)
(99.70955348 -2.815403069 0)
(100.3017535 -3.01526326 0)
(99.26509165 -2.994424364 0)
(97.77458656 -2.936572794 0)
(96.54489933 -2.828782523 0)
(95.59708867 -2.674564705 0)
(94.91418479 -2.476844226 0)
(94.46841077 -2.239610702 0)
(94.16132483 -1.906648083 0)
(94.04702159 -1.608846172 0)
(93.88641076 -1.165857935 0)
(93.83417175 -0.8473215829 0)
(93.79990085 -0.5073861781 0)
(93.78555221 -0.1701199928 0)
(106.9485123 -0.153219048 0)
(106.9520135 -0.4557424212 0)
(106.9496741 -0.7624736764 0)
(106.9371514 -1.043634411 0)
(106.8481028 -1.303379482 0)
(106.7952923 -1.574925674 0)
(106.6509187 -1.827807131 0)
(106.3486638 -2.052197346 0)
(105.8237201 -2.2510647 0)
(104.9602964 -2.410872522 0)
(99.84344978 -2.487836606 0)
(100.3070531 -2.657424192 0)
(99.23554635 -2.63301645 1.205845187e-35)
(97.70227484 -2.582444932 0)
(96.43220852 -2.492041353 0)
(95.44556483 -2.363463295 0)
(94.72603524 -2.197589857 0)
(94.24698142 -1.996018948 0)
(93.91072206 -1.707840654 0)
(93.77249017 -1.446828607 0)
(93.59923528 -1.052649079 0)
(93.53842873 -0.7671994147 0)
(93.4986835 -0.4598902512 0)
(93.48228783 -0.1544733921 0)
(107.2205283 -0.1385280076 0)
(107.2218548 -0.4110562801 0)
(107.2139772 -0.687260253 0)
(107.1928493 -0.9382675839 0)
(107.1004863 -1.169527606 0)
(107.0284354 -1.408442826 0)
(106.8579501 -1.628513867 0)
(106.5346031 -1.822608456 0)
(105.9836142 -1.993279283 0)
(105.0617087 -2.128504622 0)
(99.99272442 -2.205089033 0)
(100.299979 -2.351432665 0)
(99.20693107 -2.324417285 0)
(97.64059605 -2.279742942 0)
(96.33761388 -2.203002965 0)
(95.31832759 -2.094546647 0)
(94.56658673 -1.953988201 0)
(94.05680421 -1.78133295 0)
(93.69202834 -1.530753276 0)
(93.52997389 -1.301078443 0)
(93.34254779 -0.9501381626 0)
(93.27228095 -0.69406677 0)
(93.22646538 -0.4164370627 0)
(93.20755912 -0.1401146802 0)
(107.4658099 -0.1251444138 0)
(107.4646462 -0.3705060237 0)
(107.4508813 -0.6190774209 0)
(107.4206259 -0.8433981004 0)
(107.3239509 -1.049170744 0)
(107.2328002 -1.259783023 0)
(107.0375931 -1.452038189 0)
(106.6949622 -1.620663709 0)
(106.1210244 -1.768350438 0)
(105.1470906 -1.884013994 0)
(100.1537 -1.960958779 0)
(100.2842165 -2.089593932 0)
(99.17927035 -2.060647648 0)
(97.58744101 -2.020823125 0)
(96.25732518 -1.955028518 0)
(95.21038448 -1.862620999 0)
(94.43028999 -1.74243083 0)
(93.89233754 -1.593414473 0)
(93.50024527 -1.374492768 0)
(93.3150529 -1.171476937 0)
(93.11270095 -0.858573393 0)
(93.03258618 -0.6283010409 0)
(92.98043613 -0.3773003719 0)
(92.95873509 -0.1271437823 0)
(107.6870172 -0.1131367312 0)
(107.6831767 -0.3342613735 0)
(107.6634102 -0.5581604677 0)
(107.623865 -0.7591394154 0)
(107.5222286 -0.9423037633 0)
(107.4125521 -1.12849558 0)
(107.1942833 -1.297207116 0)
(106.8343054 -1.444369633 0)
(106.2400653 -1.573148842 0)
(105.2203811 -1.6731204 0)
(100.3227853 -1.750519077 0)
(100.2622064 -1.865809124 0)
(99.15254457 -1.835457045 0)
(97.54122747 -1.799668689 0)
(96.18851781 -1.742765165 0)
(95.11795083 -1.663311115 0)
(94.31281731 -1.559654072 0)
(93.7491166 -1.430070666 0)
(93.33113677 -1.237853386 0)
(93.12379589 -1.05747011 0)
(92.90626349 -0.7778226932 0)
(92.8162463 -0.5699630528 0)
(92.75771926 -0.3425535381 0)
(92.73306678 -0.1155939909 0)
(107.886847 -0.1025271041 0)
(107.8802335 -0.3023545781 0)
(107.854504 -0.5045253899 0)
(107.80574 -0.6853569639 0)
(107.6987205 -0.8486310941 0)
(107.5713288 -1.013880469 0)
(107.3317407 -1.162715334 0)
(106.9562933 -1.291786275 0)
(106.3439891 -1.404946927 0)
(105.284541 -1.492308377 0)
(100.4967994 -1.569896361 0)
(100.2357098 -1.675317765 0)
(99.12670429 -1.643963091 0)
(97.50072816 -1.611539408 0)
(96.12903038 -1.561913359 0)
(95.03809923 -1.492988444 0)
(94.2107435 -1.402816613 0)
(93.62350143 -1.289229797 0)
(93.18113289 -1.119540743 0)
(92.95274905 -0.9582990882 0)
(92.72007617 -0.7075458199 0)
(92.62030752 -0.5189196921 0)
(92.55549873 -0.3121444413 0)
(92.52782567 -0.1054565625 0)
(108.0680422 -0.09330595772 0)
(108.0586134 -0.2747274923 0)
(108.0270466 -0.4580484375 0)
(107.9692782 -0.6217563935 0)
(107.8565397 -0.7676980102 0)
(107.7123442 -0.9151398165 0)
(107.4530464 -1.047168291 0)
(107.0639678 -1.161121295 0)
(106.4354734 -1.261392383 0)
(105.3417862 -1.338618038 0)
(100.6732215 -1.415967865 0)
(100.2060255 -1.514336601 0)
(99.1016638 -1.482269225 0)
(97.46494158 -1.452628094 0)
(96.07714247 -1.408966202 0)
(94.96849074 -1.348618224 0)
(94.12128373 -1.269463504 0)
(93.51240093 -1.169073091 0)
(93.04717191 -1.018326313 0)
(92.79884403 -0.8731268466 0)
(92.55117728 -0.647277735 0)
(92.44192683 -0.4749225007 0)
(92.3710041 -0.2859431989 0)
(92.34029173 -0.09669557462 0)
(108.2330846 -0.08545157086 0)
(108.2208468 -0.2512823077 0)
(108.1836181 -0.4185287855 0)
(108.1171402 -0.5680319008 0)
(107.9985255 -0.6989746968 0)
(107.8384879 -0.8314785365 0)
(107.5608276 -0.9488799127 0)
(107.159811 -1.050907879 0)
(106.5167319 -1.140481203 0)
(105.3937591 -1.209556544 0)
(100.8499427 -1.286208772 0)
(100.1741825 -1.379825005 0)
(99.07729916 -1.347262553 -1.941592963e-36)
(97.43302128 -1.319877091 0)
(96.03144519 -1.281072342 0)
(94.90721612 -1.227681283 0)
(94.04216627 -1.157500765 0)
(93.41341333 -1.068188223 0)
(92.92644871 -0.9332085526 0)
(92.65932628 -0.8010880535 0)
(92.39699741 -0.5965672916 0)
(92.27859212 -0.4376692396 0)
(92.20176143 -0.2637918157 0)
(92.16803647 -0.08926724425 0)
(108.3851332 -0.07891755447 0)
(108.3700585 -0.2318737786 0)
(108.3273099 -0.3857247594 0)
(108.2524224 -0.5236881941 0)
(108.1273289 -0.641934671 0)
(107.9523813 -0.762015563 0)
(107.6579991 -0.8670672728 0)
(107.2458125 -0.9596624301 0)
(106.5896174 -1.040494382 0)
(105.4417103 -1.103080176 0)
(101.0250947 -1.178662544 0)
(100.141067 -1.26935055 0)
(99.05345727 -1.236459634 0)
(97.40422899 -1.21084276 0)
(95.99074838 -1.175930098 0)
(94.85266785 -1.128101897 0)
(93.97146776 -1.065114563 0)
(93.3245275 -0.9848496051 0)
(92.8165186 -0.8629833617 0)
(92.53172073 -0.7413784131 0)
(92.25457366 -0.5548107673 0)
(92.12734343 -0.4068356196 0)
(92.04476906 -0.2454949543 0)
(92.00801809 -0.08310654793 0)
(108.5244438 -0.07371684588 0)
(108.5066632 -0.216468629 0)
(108.4586162 -0.3594479676 0)
(108.3756819 -0.488882917 0)
(108.2453652 -0.5959609238 0)
(108.0563595 -0.705909604 0)
(107.7470471 -0.8019605828 0)
(107.3239087 -0.885935274 0)
(106.655798 -0.9599603888 0)
(105.4866717 -1.017530234 0)
(101.1972482 -1.091830199 0)
(100.1073943 -1.180963866 0)
(99.0299665 -1.147872514 0)
(97.37789669 -1.12356922 0)
(95.95400524 -1.091683279 0)
(94.80343097 -1.048184506 0)
(93.90742374 -0.9907929048 0)
(93.2434262 -0.9171932338 0)
(92.71552784 -0.8062323296 0)
(92.41370338 -0.6930653881 0)
(92.12348682 -0.52206203 0)
(91.9877835 -0.3821548868 0)
(91.89969782 -0.2309781218 0)
(91.86007713 -0.07821362627 0)
(108.6617726 -0.06966294575 0)
(108.6408932 -0.2046895846 0)
(108.5873554 -0.3393361168 0)
(108.4956995 -0.4611183561 0)
(108.3555798 -0.5607781452 0)
(108.1524589 -0.6629418055 0)
(107.8291022 -0.7526777683 0)
(107.3960396 -0.8289247605 0)
(106.716784 -0.8977092287 0)
(105.5295146 -0.9515500937 0)
(101.3652865 -1.024445117 0)
(100.0737913 -1.113099192 0)
(99.00665837 -1.079958567 0)
(97.35341168 -1.05654055 0)
(95.92027935 -1.026884567 0)
(94.75825403 -0.9866051714 0)
(93.8484895 -0.933411625 0)
(93.16833609 -0.8649190612 0)
(92.62155872 -0.7624786507 0)
(92.30337177 -0.6563832836 0)
(91.99504837 -0.4956913009 0)
(91.85022961 -0.3632333163 0)
(91.75645383 -0.2198266583 0)
(91.71353578 -0.0743804108 0)
(108.7670939 -0.06728950718 0)
(108.7442167 -0.1974991735 0)
(108.6864458 -0.3265743192 0)
(108.5891016 -0.4462836246 0)
(108.4574796 -0.5355989331 0)
(108.2424265 -0.6323618709 0)
(107.9058446 -0.7180674991 0)
(107.4636147 -0.7878586095 0)
(106.773889 -0.8527884009 0)
(105.5710082 -0.9040556057 0)
(101.5282827 -0.9756108717 0)
(100.0409001 -1.06459708 0)
(98.98336337 -1.031553062 0)
(97.33018994 -1.008602854 0)
(95.88870391 -0.980421797 0)
(94.71600277 -0.9423353536 0)
(93.79330216 -0.8920587595 0)
(93.09779193 -0.827157418 0)
(92.53292547 -0.7311415892 0)
(92.19922648 -0.6303447365 0)
(91.89367911 -0.4815579076 0)
(91.74274355 -0.3511678425 0)
(91.64458333 -0.2130135085 0)
(91.59961753 -0.07217464657 0)
(108.964287 -0.06468133102 0)
(108.9371577 -0.1908806544 0)
(108.8712858 -0.3153962768 0)
(108.7591937 -0.428057948 0)
(108.5513587 -0.5211888287 0)
(108.3238666 -0.6144002034 0)
(107.975706 -0.6983380668 0)
(107.5278913 -0.7620527679 0)
(106.8282539 -0.8243983476 0)
(105.6118699 -0.874246671 0)
(101.6852998 -0.9447803261 0)
(100.0093411 -1.034699031 0)
(98.95995438 -1.001827817 0)