/*--------------------------------*- C++ -*----------------------------------*\
| =========                 |                                                 |
| \\      /  F ield         | OpenFOAM: The Open Source CFD Toolbox           |
|  \\    /   O peration     | Version:  v1912                                 |
|   \\  /    A nd           | Website:  www.openfoam.com                      |
|    \\/     M anipulation  |                                                 |
\*---------------------------------------------------------------------------*/
FoamFile
{
    version     2.0;
    format      ascii;
    class       surfaceVectorField;
    location    "2.32";
    object      Uf;
}
// * * * * * * * * * * * * * * * * * * * * * * * * * * * * * * * * * * * * * //

dimensions      [0 1 -1 0 0 0 0];


internalField   nonuniform List<vector> 
25162
(
(99.9974645 0.01095787986 -2.301153846e-21)
(99.98973768 0.0100258948 6.827157984e-21)
(99.99642859 0.02532237115 -2.263771154e-21)
(99.98655313 0.03304162204 2.32845162e-21)
(99.99436693 0.04752986991 -4.507898088e-21)
(99.97921518 0.06694659974 1.366500749e-20)
(99.99762024 0.05232995957 1.378823734e-21)
(99.96621822 0.1186796959 -8.910968938e-21)
(99.98613212 0.1149376989 -1.495868881e-21)
(99.99698119 0.09356758677 2.156181343e-21)
(99.99887595 0.0555488517 1.055441993e-21)
(99.98399899 0.1506267575 2.135059188e-21)
(99.99635885 0.08489018126 1.036123718e-21)
(99.99730056 0.06777807106 -1.083157932e-21)
(99.99556658 0.106036229 1.0360814e-21)
(99.97603072 0.2364008667 2.055650826e-21)
(99.99523748 0.1316659512 0)
(99.99507564 0.1593500779 -3.664774744e-21)
(99.96993185 0.349306392 -3.664755671e-21)
(99.99453426 0.1915081563 -9.465215917e-22)
(99.99397342 0.2274773084 3.190155171e-21)
(99.9633533 0.4929054341 3.425687315e-21)
(99.993538 0.2667082013 4.205242235e-22)
(99.99333375 0.3080442123 -2.627643556e-21)
(99.96097286 0.6574855076 3.802172987e-22)
(99.99345534 0.3497939708 -2.554189159e-21)
(99.99364527 0.3898327684 4.927903801e-22)
(99.96603671 0.8164492207 -1.640073659e-21)
(99.99393416 0.4261497119 2.366330819e-21)
(99.99498638 0.4556817336 1.873978581e-21)
(99.9815648 0.9317166895 -7.932749953e-22)
(99.99697606 0.4754496972 0)
(99.99953733 0.4842391607 0)
(100.0029795 0.966566809 9.233890714e-23)
(100.0021418 0.4810421344 0)
(100.0044929 0.4666083687 8.527266399e-22)
(100.0230279 0.9095451267 -1.543146999e-23)
(100.0059474 0.4419672275 1.380398727e-21)
(100.0062327 0.4097029473 -6.025546737e-22)
(100.0345148 0.7841367265 -8.330119625e-22)
(100.0063298 0.3727507778 -1.541028595e-21)
(100.0065159 0.33362761 8.072306398e-23)
(100.0370887 0.6277754676 2.049859779e-21)
(100.0064402 0.2939600952 5.401193202e-22)
(100.0061072 0.2554746704 0)
(100.0336666 0.4743122223 0)
(100.0056299 0.2194687537 0)
(100.0051928 0.1865768274 8.0386123e-22)
(100.0271617 0.3435990548 1.671320277e-21)
(100.0051264 0.1575358887 -4.066648513e-21)
(100.0048571 0.1301914393 -1.521239167e-21)
(100.0216497 0.2359161892 3.285405928e-21)
(100.0040875 0.1070506395 3.285160767e-21)
(100.0030442 0.08793501309 -9.000864741e-22)
(100.012789 0.1578029021 -4.197672574e-23)
(100.0009924 0.074270989 1.765226741e-21)
(100.0073621 0.06949346468 -7.760897883e-21)
(100.0428318 0.1717210403 3.087304206e-22)
(100.0159694 0.157678222 -2.745772645e-21)
(100.0026763 0.07275817176 -1.575782817e-21)
(100.004996 0.03943344216 -9.663912254e-22)
(100.0281107 0.1033504509 1.533824798e-20)
(100.0039944 0.01822743958 -7.751378284e-21)
(100.0199234 0.05406439833 -1.635355667e-20)
(100.0171772 0.0168533284 1.303736845e-21)
(99.97659162 0.03070752546 1.138700364e-20)
(99.96087395 0.01713501997 3.69611705e-22)
(99.96620236 0.07155352932 1.812118507e-20)
(99.94825537 0.05716027907 -1.596056011e-20)
(99.94660501 0.1340850272 9.506378079e-21)
(99.92068696 0.1171488566 -2.46092116e-20)
(99.93854031 0.2058821935 -1.62164946e-21)
(99.87364736 0.2105033069 4.739483285e-20)
(99.89579714 0.260274831 -1.040797388e-20)
(99.91018303 0.2624312685 -2.238156164e-21)
(99.93168938 0.2564709462 4.376442832e-21)
(99.95752878 0.1835745604 2.173878204e-21)
(99.93509149 0.2952070322 2.102560848e-21)
(99.91321444 0.3258941646 2.150901254e-21)
(99.85490625 0.4283224292 -4.365044193e-21)
(99.89309691 0.4116059315 -3.233683387e-23)
(99.90343808 0.4619160965 2.055973435e-21)
(99.87023137 0.5155980702 -2.643857491e-23)
(99.7885332 0.6711632942 0)
(99.85905356 0.5945593081 0)
(99.82178626 0.6823317358 -2.546824655e-21)
(99.87284702 0.6713266108 -4.980599607e-21)
(99.85469049 0.7113632223 -7.819144663e-23)
(99.81470484 0.8208163085 -1.119996098e-20)
(99.84487608 0.7734259138 -3.850210831e-21)
(99.81534367 1.017373311 2.923316387e-23)
(99.84315759 0.954533782 -2.480127501e-21)
(99.76733408 1.174281277 -1.348667027e-20)
(99.80929876 1.098314768 -3.294947862e-21)
(99.79507382 1.384737571 -5.9013703e-21)
(99.83233594 1.286545595 -5.60965928e-21)
(99.74580924 1.592901492 7.892777866e-22)
(99.79676486 1.477072167 -7.059276438e-21)
(99.81296158 1.758010202 6.32454737e-24)
(99.85629285 1.613928732 -4.365545575e-21)
(99.77397655 2.009440806 4.258273974e-21)
(99.82669854 1.84578861 -3.247503201e-21)
(99.87991142 2.051971396 -3.34158644e-21)
(99.92290042 1.860123771 -5.554222573e-21)
(99.86115241 2.329460115 -3.923493413e-21)
(99.90521887 2.117661666 -1.581093636e-21)
(99.98590896 2.179868384 1.145520933e-21)
(100.0142822 1.945904675 -2.471352255e-21)
(99.99365603 2.447325704 4.074182634e-21)
(100.0135715 2.201625368 -2.274827761e-21)
(100.0947874 2.1040596 1.437767802e-22)
(100.0848823 1.843480993 -3.896056451e-24)
(100.1212972 2.323940136 6.70117973e-21)
(100.1168852 2.064738437 -1.128257161e-21)
(100.1688761 1.8504083 -3.492338448e-22)
(100.1272889 1.596178085 -2.6036227e-22)
(100.2014697 2.01253999 -7.848138119e-23)
(100.1776749 1.770757171 2.688344538e-21)
(100.1945443 1.505591201 2.783523555e-21)
(100.1374972 1.281714678 4.836703149e-21)
(100.2269286 1.616246836 4.829277111e-21)
(100.1931528 1.409737858 5.901242433e-22)
(100.1832104 1.148568713 -7.420463158e-21)
(100.1250972 0.9685829979 -6.884228654e-21)
(100.209359 1.21937037 -2.505071687e-21)
(100.1752249 1.058314286 -2.445554177e-21)
(100.1505484 0.8381983058 -5.695373104e-21)
(100.0983191 0.7026035274 5.143604901e-22)
(100.166918 0.8803549802 -1.504800888e-21)
(100.1400379 0.7647615378 6.108963555e-21)
(100.0871313 0.4658340446 -1.378611096e-20)
(100.1408295 0.6393500933 -1.37850398e-20)
(100.1945512 0.6832622303 1.39266545e-20)
(100.1189271 0.5243681684 -2.804866399e-20)
(100.0987768 0.4273695893 1.216992023e-20)
(100.1356685 0.4509627256 -1.68185996e-20)
(100.0793961 0.3464024577 2.457096551e-20)
(100.0599551 0.3090590737 2.727581214e-20)
(100.0696661 0.2010553294 2.286045237e-20)
(100.1605639 0.3164933154 -1.513709246e-22)
(100.1262324 0.3647740844 4.857143706e-20)
(100.0742579 0.2880668594 2.598675629e-21)
(100.0481694 0.1146857114 -7.171117138e-22)
(100.109139 0.1891092066 3.272828848e-20)
(100.0372716 0.05192707303 -7.636067867e-21)
(100.0790839 0.09892058067 -1.73454174e-20)
(100.0661565 0.03074779897 7.750698265e-21)
(99.93638551 0.04198207714 -2.736992197e-20)
(99.92122813 0.01872494462 -1.368025351e-20)
(99.90772838 0.09938478686 -5.913818055e-20)
(99.89415345 0.06418784676 1.241476024e-20)
(99.85520666 0.1889685028 1.143997154e-20)
(99.83654094 0.1364381178 -5.004726246e-20)
(99.80365736 0.3148813174 3.016903998e-20)
(99.74216513 0.2521941866 5.432581512e-20)
(99.73658998 0.344116288 -4.591332781e-20)
(99.83394354 0.3297193079 -8.974597917e-21)
(99.74474408 0.3784298521 -6.63345259e-20)
(99.76850092 0.410272518 -4.486994144e-21)
(99.74551749 0.5440460927 -8.682005404e-21)
(99.7132738 0.5303039637 -4.323877996e-21)
(99.60916531 0.6366551241 3.037890005e-20)
(99.65032518 0.6763063064 8.486862703e-21)
(99.6307137 0.8614577541 -7.488212581e-21)
(99.57919106 0.8530866829 5.561212423e-21)
(99.43220358 1.023198951 -4.273274735e-20)
(99.54107834 1.026741033 2.956219612e-21)
(99.46570294 1.103966021 -1.854456936e-20)
(99.53137577 1.254297686 -7.540469557e-21)
(99.49154214 1.257645451 0)
(99.40676941 1.385264105 7.85380632e-21)
(99.45568487 1.390809 -7.488718271e-21)
(99.40907108 1.830440719 3.610093261e-21)
(99.3513811 1.852256004 1.412247068e-20)
(99.24902982 2.036806362 6.986376345e-21)
(99.3220037 2.023306343 1.751511789e-20)
(99.34909453 2.52153271 -5.237961263e-20)
(99.27046358 2.578354345 -4.90490079e-20)
(99.17018148 2.821391143 1.235351912e-19)
(99.26915965 2.768990838 -3.101007436e-20)
(99.41126767 3.230591579 -8.352022439e-20)
(99.32011467 3.343306819 -5.534036372e-20)
(99.24220599 3.639650677 -2.256568344e-19)
(99.35829179 3.521981963 3.637813191e-20)
(99.63351609 3.80201557 -1.914409357e-19)
(99.5462125 3.992027363 -2.074336842e-19)
(99.52285026 4.317179872 -1.907815415e-19)
(99.63277167 4.108581101 -1.853846518e-19)
(99.98955859 4.037906439 2.24729457e-20)
(99.93949 4.309651036 2.401645266e-20)
(99.98691586 4.609220487 9.6356672e-20)
(100.046561 4.310976743 1.157754244e-20)
(100.3464535 3.831857704 -9.142577503e-24)
(100.354309 4.149735126 1.55613124e-20)
(100.452764 4.373796314 -1.258486319e-21)
(100.4396424 4.033655451 -1.256466247e-21)
(100.5579173 3.269021538 -3.314467917e-20)
(100.6191277 3.574183674 6.863822415e-21)
(100.7256327 3.706760388 -4.016004252e-20)
(100.6526508 3.392387452 -6.92507851e-20)
(100.6115047 2.583535603 -1.013773139e-21)
(100.6936614 2.83488709 -1.882800665e-21)
(100.7840804 2.899042873 -2.152323435e-21)
(100.6919291 2.650100957 2.748603441e-21)
(100.5605686 1.926146222 -6.824133995e-21)
(100.6474633 2.124841622 -1.601151363e-20)
(100.7162063 2.150715655 -5.516866319e-21)
(100.6215922 1.958409612 5.996188556e-21)
(100.5309796 1.512168017 -1.863212896e-20)
(100.4553553 1.36656704 -1.252223405e-20)
(100.5795334 1.516242887 -1.253912078e-20)
(100.5014485 1.37919187 6.634491244e-21)
(100.3420635 0.8823493581 -5.45369762e-20)
(100.4610777 1.083115746 -2.85869481e-20)
(100.529274 1.057706119 -8.273099493e-20)
(100.3925913 0.8836009072 -3.948608927e-20)
(100.2415859 0.5787896748 -6.164365122e-20)
(100.3302386 0.715156479 2.462764271e-20)
(100.3736961 0.6867795584 -2.926612864e-20)
(100.2736977 0.5744388638 -2.557323113e-20)
(100.1925018 0.3006708376 1.032462105e-20)
(100.3345766 0.4091421648 -2.609417525e-20)
(100.3227466 0.5068209721 -1.245910599e-22)
(100.2406222 0.465534825 -1.49922991e-20)
(100.1348837 0.1704577093 1.534675733e-20)
(100.2316149 0.2418082163 2.722867625e-20)
(100.1037858 0.0766020944 -1.946283294e-21)
(100.1676248 0.1252022054 -3.921163459e-21)
(100.1383974 0.03860770471 0)
(99.88633803 0.0396401238 2.748532419e-20)
(99.8838632 0.01271325719 -4.592785043e-21)
(99.83190006 0.09843482779 2.316962817e-20)
(99.83873493 0.04735600834 3.212041558e-20)
(99.7341043 0.1977294002 -9.200772396e-21)
(99.74298813 0.1136081892 -4.521267343e-21)
(99.61205089 0.3613142448 0)
(99.58765098 0.2261879318 7.032906734e-21)
(99.53208571 0.3630787724 2.131486814e-20)
(99.63591565 0.4081071663 -6.204559077e-20)
(99.51956359 0.4146090937 1.602535822e-20)
(99.53205225 0.4851043278 0)
(99.44957669 0.7008705087 1.656997629e-22)
(99.42420869 0.6391820672 -3.513348657e-20)
(99.27120628 0.732446581 -3.510985129e-20)
(99.29731134 0.8297476486 7.110235754e-20)
(99.19547651 1.148478253 -1.054282477e-19)
(99.15049474 1.063233152 4.016735095e-20)
(98.93173725 1.224779992 -7.061616384e-20)
(99.04033946 1.335096999 -3.518437395e-20)
(98.93374858 1.360612285 -5.770382899e-20)
(98.94513102 1.715485301 8.269698602e-21)
(98.89975734 1.668173991 1.64035896e-20)
(98.76367245 1.799134436 4.161682639e-20)
(98.81518575 1.862143319 8.202043198e-21)
(98.65100582 2.579042954 -1.908693949e-21)
(98.57388693 2.53414462 7.79404155e-21)
(98.41270762 2.725914174 1.314407045e-19)
(98.50393782 2.788047302 -6.233107917e-20)
(98.47322609 3.653221611 -4.570801277e-19)
(98.35249236 3.63077995 1.833872746e-21)
(98.18389967 3.898741311 3.051908494e-21)
(98.32902854 3.935150997 -2.392568459e-19)
(98.54424516 4.857171259 3.603539937e-19)
(98.37548995 4.894126478 3.08212133e-19)
(98.23492729 5.253920942 -2.651891232e-20)
(98.4397673 5.217175759 -7.584102177e-21)
(99.0212218 5.964502896 2.682501499e-19)
(98.8210812 6.119571081 6.217891735e-20)
(98.77746295 6.555112235 -1.178018487e-21)
(99.01579285 6.370220817 1.875653073e-19)
(99.92541596 6.527312442 4.199205419e-20)
(99.7656588 6.84420604 -4.716966451e-22)
(99.87791806 7.255874385 5.644500414e-20)
(100.0469508 6.882759597 9.142963492e-21)
(100.8780685 6.18591452 -1.440882642e-19)
(100.8477897 6.611576904 -4.015835105e-20)
(101.0637014 6.872454339 2.92072766e-20)
(101.0680538 6.400428933 -4.860856172e-21)
(101.4128365 5.114830844 2.34308747e-19)
(101.5114514 5.529395472 1.898833133e-19)
(101.7177532 5.622443705 -2.710346458e-19)
(101.5842182 5.192806782 -1.6876261e-20)
(101.4713136 3.848546212 1.696912933e-19)
(101.6230899 4.171975866 3.947499559e-19)
(101.7674823 4.165911848 2.487663885e-19)
(101.5926246 3.849089459 1.535724826e-19)
(101.2935439 2.760244626 4.878610725e-20)
(101.4359038 2.982953905 -4.711890733e-20)
(101.5272442 2.935755486 7.378997563e-20)
(101.3726068 2.730083627 2.257839196e-19)
(101.1655312 2.067826937 0)
(101.0411817 1.910278151 5.016600609e-20)
(101.2231919 2.019199346 0)
(101.091562 1.874106903 0)
(100.7531674 1.20165365 2.980261356e-20)
(100.9493562 1.411954158 1.937975967e-20)
(101.008898 1.306898552 -1.663942755e-20)
(100.8042543 1.139147302 3.734882193e-20)
(100.5319445 0.7709077062 -3.389083215e-20)
(100.675666 0.9107249492 -1.515070201e-20)
(100.7099038 0.8283697201 -1.527418538e-20)
(100.5637735 0.7209735122 -7.465095972e-21)
(100.3621045 0.3483977949 -9.594314426e-21)
(100.5499106 0.4282911371 -1.95228638e-20)
(100.5881349 0.5876057173 -2.589131041e-21)
(100.4843533 0.5672965281 5.985231752e-21)
(100.2538929 0.1940840612 7.820096148e-21)
(100.3770716 0.2481832008 1.186117759e-20)
(100.1935743 0.08602705435 -1.974530662e-21)
(100.2695259 0.1247467484 -3.479961697e-21)
(100.219525 0.03784629196 -4.987877338e-22)
(99.84403866 0.01990108737 0)
(99.86511598 -0.001989289244 0)
(99.75957433 0.06058985353 4.666635083e-21)
(99.80043317 0.002941351005 0)
(99.60781928 0.1445089298 1.187247079e-20)
(99.66397349 0.0408402064 -3.662878325e-21)
(99.39975229 0.3277903212 1.955796813e-20)
(99.43659192 0.1242225664 2.610956127e-20)
(99.32259666 0.2824802554 -7.855178896e-21)
(99.40222313 0.3962661476 2.760811905e-20)
(99.2822586 0.3509109204 2.203156018e-21)
(99.26153494 0.4557885621 -1.119664331e-20)
(99.08099512 0.7265426242 0)
(99.0827306 0.6205847553 -2.322024515e-20)
(98.88572709 0.6786338633 -1.911124135e-20)
(98.87071518 0.8290812373 4.736409432e-21)
(98.63977842 1.242622404 0)
(98.62382472 1.092057331 4.735902336e-21)
(98.33483179 1.197717696 -4.911977658e-21)
(98.39361782 1.420356183 2.352329173e-20)
(98.27232934 1.414180482 6.117799939e-21)
(98.15846953 1.930784424 3.741223404e-19)
(98.1258889 1.825310723 1.041317911e-19)
(97.9410214 1.931309558 1.407072585e-19)
(97.97619583 2.055960999 -1.72011536e-19)
(97.59080626 3.023854098 -4.436397374e-19)
(97.51529381 2.894891424 2.634560548e-19)
(97.2864215 3.057549007 9.265730686e-19)
(97.3686047 3.221039785 -2.992949855e-19)
(97.1300174 4.487042507 1.453973847e-18)
(96.98491187 4.352170609 -1.417501269e-19)
(96.71540601 4.616988766 -6.626534295e-19)
(96.88608857 4.785324415 1.333654927e-18)
(97.00428148 6.368850535 9.260978962e-19)
(96.75029098 6.268325173 4.7632214e-19)
(96.4731812 6.695727509 6.026125123e-20)
(96.78617564 6.819107039 4.566575739e-19)
(97.68675353 8.481849793 -1.028355949e-19)
(97.29721961 8.541052944 2.329414997e-19)
(97.15763452 9.181514403 3.967115512e-19)
(97.63995456 9.082996875 7.245758214e-20)
(99.59271046 9.851489703 2.233316375e-20)
(99.20414133 10.24731702 -3.185623691e-20)
(99.42978073 10.90789746 9.463709595e-20)
(99.84840324 10.38965808 5.432803852e-20)
(101.8178026 9.293370004 1.174164741e-19)
(101.7080543 9.934036284 9.224602887e-21)
(102.167041 10.2552083 -1.299815317e-19)
(102.2062741 9.524833628 2.562742868e-20)
(102.9455838 7.274910199 -2.773243707e-19)
(103.1219819 7.868367232 0)
(103.4890837 7.861016799 0)
(103.2388805 7.258128312 0)
(102.9050486 5.072834366 1.28260596e-19)
(103.1792335 5.4890752 -1.338575687e-19)
(103.3876131 5.35537606 4.980295719e-19)
(103.0707805 4.963684271 -4.72812072e-20)
(102.3807271 3.390732556 -1.574624493e-19)
(102.6232758 3.64207225 0)
(102.7157826 3.507383033 3.419153584e-19)
(102.4615454 3.280355996 -5.701139706e-20)
(102.0165342 2.400101912 -1.504788984e-20)
(101.8385141 2.248340273 -3.846340121e-21)
(102.0644898 2.289579517 1.114768479e-20)
(101.8829315 2.159004374 2.296001653e-20)
(101.2918491 1.367392295 -9.500606841e-20)
(101.5704088 1.56503057 -6.005732141e-20)
(101.5964521 1.376595808 -3.351860158e-20)
(101.3219847 1.240294771 -1.707833126e-20)
(100.9024825 0.8531223157 1.166088824e-20)
(101.1033871 0.9745781361 3.526341194e-20)
(101.1060108 0.8410610779 -3.922989476e-21)
(100.9153051 0.757644456 -3.850242774e-21)
(100.5522422 0.3299207086 2.004127902e-21)
(100.7756201 0.359138923 0)
(100.8825369 0.5585663805 -6.228950496e-23)
(100.7717468 0.5806181602 -1.046302439e-20)
(100.3820388 0.1765699143 4.469515066e-22)
(100.5216471 0.1980207171 2.003947222e-21)
(100.2865375 0.07579194643 -2.006796913e-21)
(100.3645648 0.09225791261 -2.008794982e-21)
(100.2910068 0.02690592431 -2.005907553e-21)
(99.8289222 -0.01889296403 0)
(99.88296229 -0.02544182502 2.28949433e-21)
(99.71426319 -0.01750427342 -9.33362425e-21)
(99.79921177 -0.06900541554 -2.308280833e-21)
(99.50682274 0.02324720289 9.751632942e-21)
(99.62571876 -0.08326710486 -4.615970593e-21)
(99.2032627 0.1689060371 1.272500191e-20)
(99.33357414 -0.05646917247 4.131087416e-21)
(99.1374175 0.09718194878 -4.785253918e-23)
(99.17600192 0.2761720412 -9.409471466e-21)
(99.05787541 0.1740974339 -9.56739046e-21)
(98.99917405 0.2944545217 0)
(98.69400074 0.5855849582 -1.911076957e-20)
(98.74175643 0.4442650371 0)
(98.51421747 0.4471756132 -1.43266664e-22)
(98.43380893 0.636283392 -1.055609469e-22)
(98.02797656 1.084660063 9.928829111e-21)
(98.07223694 0.8828209507 1.484462419e-20)
(97.73480531 0.9029325835 2.008926098e-20)
(97.7135055 1.236061496 -1.68156976e-20)
(97.60040596 1.155372585 -1.682917805e-20)
(97.27510647 1.789373196 4.331510221e-20)
(97.28301602 1.636197579 4.341644315e-20)
(97.05620674 1.688921745 -4.082827018e-23)
(97.04129387 1.871034201 7.621940609e-19)
(96.31574761 2.944647185 3.387177928e-19)
(96.27808097 2.737421488 -8.380274769e-21)
(95.97684688 2.835088613 7.930354369e-19)
(96.01538443 3.097557978 2.046606729e-20)
(95.30103919 4.67520477 -1.159498456e-18)
(95.19329746 4.407935344 -1.951346731e-19)
(94.79306051 4.571650289 -8.047268402e-19)
(94.91280093 4.938933845 -1.566858156e-18)
(94.43732717 7.377221241 -8.044363714e-19)
(94.14411216 7.013807933 -6.533044494e-19)
(93.6007635 7.444465666 -1.449234798e-18)
(93.96226061 7.898492129 -2.879465934e-20)
(94.77041959 11.44527239 -4.755971052e-19)
(94.07540508 11.20320022 -2.826972913e-20)
(93.58561483 12.22210721 -6.3389864e-20)
(94.52060584 12.46574507 -2.022762355e-19)
(98.61515645 15.05473377 1.693235845e-19)
(97.69082293 15.60942409 2.845302395e-19)
(98.21180202 16.94087507 0)
(99.23453805 16.04565116 0)
(103.8173441 13.76308348 3.505712432e-19)
(103.6368208 14.88103791 5.503322455e-19)
(104.7062352 15.17821749 5.765226908e-20)
(104.6509294 13.90764333 3.225999011e-19)
(105.727798 9.625405541 -1.937866241e-19)
(106.119072 10.48026394 -1.708330574e-19)
(106.74086 10.18221482 8.640139393e-20)
(106.1901263 9.369764374 -6.703835063e-19)
(105.1484502 6.055936039 4.586657487e-19)
(105.6378676 6.520465343 -2.366597466e-19)
(105.857561 6.204362078 2.868447439e-19)
(105.313779 5.737518495 2.537516591e-19)
(103.8647221 3.697283795 2.417457882e-19)
(104.2474195 3.950111459 -4.798019679e-19)
(104.2927794 3.691305755 1.62185031e-21)
(103.908468 3.484860172 2.536357953e-19)
(103.0368429 2.410090104 1.873214342e-19)
(102.7857022 2.286726685 0)
(103.0418714 2.23798565 0)
(102.7985228 2.137344393 -3.313206801e-20)
(101.9107755 1.326018595 2.759357115e-20)
(102.2602744 1.466180057 -2.223276726e-22)
(102.2209756 1.20926535 1.661444694e-20)
(101.8905797 1.135340148 1.239736606e-20)
(101.3094575 0.7881175912 -1.622045716e-20)
(101.5627905 0.8678694771 -8.246041951e-21)
(101.5107226 0.6923425782 -8.247639505e-21)
(101.2832604 0.653769175 1.251342093e-20)
(100.7314981 0.2321430482 0)
(100.9760473 0.1958390532 1.314863549e-21)
(101.1639152 0.4073598479 -1.105056739e-20)
(101.0635358 0.4821523021 2.746427769e-20)
(100.4932043 0.1120678268 -5.036768265e-22)
(100.6348111 0.08596660937 -1.556562729e-21)
(100.3603383 0.04347265932 -2.014683878e-21)
(100.4292251 0.02601929316 -2.272958155e-21)
(100.3319986 0.005338793856 2.588477008e-21)
(99.85985871 -0.07487156216 -1.805652303e-23)
(99.95360569 -0.05652866367 1.021942017e-22)
(99.71890247 -0.1334821531 2.40584015e-21)
(99.85457197 -0.1644897213 -1.232551247e-22)
(99.46308084 -0.160670313 -1.257091053e-20)
(99.65154185 -0.2511888631 1.930495067e-21)
(99.06221414 -0.07687202538 -1.125473806e-20)
(99.30667128 -0.3071522732 -1.908281374e-20)
(99.02936768 -0.1866939368 -1.633204776e-20)
(98.98748895 0.04177142654 -8.858447308e-21)
(98.90741057 -0.1142773768 -3.579235294e-21)
(98.79326579 0.008148818953 3.265102577e-23)
(98.35680341 0.2648530424 1.450843195e-20)
(98.46524597 0.1069554126 1.482617158e-20)
(98.23092025 0.04163420526 7.321859009e-21)
(98.07360862 0.240408302 2.531384771e-20)
(97.48073218 0.6529379317 -6.218248352e-20)
(97.61296627 0.4134956285 -5.725493637e-20)
(97.2722605 0.3365814404 -2.610103088e-20)
(97.11325868 0.6958292421 -7.158802186e-20)
(97.02457871 0.5789346432 -4.445806018e-20)
(96.44832616 1.228370839 8.999198934e-21)
(96.51637987 1.042965981 3.808515499e-19)
(96.27319889 1.024899562 1.110342342e-18)
(96.18488247 1.236449915 5.378959323e-19)
(95.03367674 2.243545993 1.272479361e-21)
(95.08442783 1.971010992 -3.937512532e-19)
(94.75318615 1.963123395 -4.361191397e-19)
(94.67699877 2.276118492 -4.243468722e-19)
(93.23147681 3.863979061 0)
(93.25470839 3.447851074 2.226263257e-19)
(92.75067637 3.473961676 -9.112894591e-19)
(92.69057609 3.957987683 0)
(90.70640448 6.832885066 0)
(90.61350431 6.126152334 0)
(89.70577309 6.288754648 0)
(89.77469696 7.192970403 -4.587399326e-19)
(87.94583826 13.88945599 -7.688556507e-19)
(87.08137529 12.56249554 0)
(85.08933146 14.18958762 1.579722327e-19)
(85.33496795 13.27804842 0)
(87.02216554 15.55065442 5.025046678e-19)
(85.91952937 15.58713107 0)
(93.47127577 26.1459939 0)
(94.94139437 25.65398886 0)
(94.07595017 28.0625981 -6.982803496e-20)
(95.84861767 27.11102832 -5.497753627e-20)
(109.5924382 21.91421802 0)
(109.6720895 19.99618208 5.04571945e-19)
(111.3851645 19.37546706 7.153064384e-19)
(110.5785523 22.60683635 0)
(112.7066269 21.17064603 0)
(112.3353909 22.07528536 1.182344129e-18)
(111.6597083 12.37662048 3.298552505e-19)
(110.6835625 11.34619344 2.430912902e-19)
(112.3004445 11.39404626 3.72643713e-19)
(111.1571197 10.61233854 2.369029009e-19)
(108.2343849 6.183781933 6.416004825e-19)
(109.0401703 6.627165612 1.399928602e-19)
(109.104076 5.976961583 8.005189065e-19)
(108.2862233 5.668710705 8.061103201e-19)
(105.6606819 3.395689855 5.346427876e-19)
(106.2029819 3.577940466 5.908634657e-19)
(106.1248783 3.194900151 3.006343091e-19)
(105.6046756 3.081144868 0)
(104.1391684 1.989473317 -2.953164502e-19)
(103.8082312 1.925208236 -4.264744341e-19)
(104.0635484 1.762307571 -1.500095861e-19)
(103.7513817 1.718291219 -4.211175171e-19)
(102.5123892 1.023169532 4.328839007e-21)
(102.9186863 1.062716247 1.889808218e-20)
(102.7708743 0.7676773566 -2.44943283e-21)
(102.4171277 0.7879583074 -4.455196456e-21)
(101.6954914 0.5511355556 4.426450502e-21)
(101.9848618 0.5674354905 -2.544568619e-23)
(101.8624497 0.368418554 -7.282466422e-21)
(101.6131918 0.3901952006 8.916029433e-21)
(100.8631998 0.05356265475 -2.145486801e-22)
(101.0991667 -0.05727271827 -2.796100484e-22)
(101.3883887 0.1306105292 8.560544645e-22)
(101.3123565 0.2379277392 6.583280075e-21)
(100.5600644 -0.0002925977818 -3.330003552e-21)
(100.6854913 -0.084483395 -2.509037436e-22)
(100.3924577 -0.01133848255 2.500185753e-21)
(100.4395888 -0.07118135973 -2.187040808e-21)
(100.3212868 -0.02610686018 4.111015021e-22)
(99.95321688 -0.1448300078 1.888548121e-23)
(100.0902306 -0.09299595047 -3.395261204e-21)
(99.79321597 -0.2790607217 -6.262339968e-22)
(99.98122223 -0.2764847026 1.476991385e-21)
(99.5028687 -0.3942139911 -4.892359977e-21)
(99.76025284 -0.4494521207 -3.219766212e-21)
(99.02426548 -0.4063100321 1.010035947e-20)
(99.38344405 -0.6055267086 -1.114108415e-21)
(99.03573019 -0.5446384536 1.068762186e-21)
(98.893926 -0.2946701297 4.976178942e-21)
(98.87453487 -0.489087221 1.026920616e-20)
(98.70377205 -0.3856070636 7.259689899e-21)
(98.14747441 -0.2152527579 -2.462833095e-21)
(98.32424294 -0.364501686 3.853260095e-21)
(98.11129233 -0.4990781243 2.539806426e-21)
(97.87644781 -0.3259287505 7.715425226e-21)
(97.12268485 -0.03489732496 3.940710824e-20)
(97.35044532 -0.2676895078 -2.494133748e-23)
(97.042082 -0.446013351 -4.049100359e-21)
(96.73263215 -0.0971577423 -1.734980953e-21)
(96.69481488 -0.26160225 2.390385557e-19)
(95.86793524 0.2849313611 -1.956075795e-19)
(96.00727322 0.09992599513 0)
(95.77884524 0.004804414753 0)
(95.6094404 0.2070438676 2.056006403e-19)
(94.09974731 0.9069578462 4.551583109e-19)
(94.26316202 0.6275273658 4.903902756e-21)
(93.95305689 0.5017950617 0)
(93.7465407 0.8024903033 4.832470789e-19)
(91.62016572 1.87923507 -5.73816943e-19)
(91.85934668 1.448343314 -5.716637962e-19)
(91.38562872 1.253009209 -9.439620637e-21)
(91.06530673 1.713110434 -2.142483379e-19)
(87.34564822 3.491634751 -5.274984442e-19)
(87.80472367 2.71741042 1.037441122e-18)
(86.96655407 2.311305763 5.328903383e-19)
(86.26119775 3.137097836 1.057988061e-18)
(78.37341232 6.49205643 6.637490494e-19)
(79.0169723 5.459390207 6.742340286e-19)
(78.01612339 4.770631248 -2.075556292e-20)
(77.04574029 5.85978485 -4.260216842e-20)
(128.0598373 24.44225295 -2.66367812e-18)
(125.9890953 23.39388053 -1.616163317e-18)
(128.6462469 22.25117995 -8.371885575e-19)
(126.663863 21.6643513 -2.503116521e-18)
(119.5496919 10.17578935 -6.523622738e-19)
(117.7010057 9.71380184 1.081127033e-18)
(119.3749598 8.452851998 1.308619789e-18)
(117.6697967 8.398797423 0)
(111.690342 4.619397126 4.228734425e-19)
(112.8046243 4.747777391 -4.924693423e-19)
(112.4460799 3.903512736 4.249196694e-19)
(111.4366691 3.933279591 -3.091879503e-19)
(107.4124181 2.244688927 -6.38184019e-19)
(108.0719719 2.251016722 1.824564674e-21)
(107.7735944 1.815709471 -6.472331295e-19)
(107.1812801 1.87126687 -9.610079943e-19)
(105.1056659 1.069653793 1.477658015e-19)
(104.7259258 1.100764475 7.123834503e-20)
(104.9196132 0.8246502981 2.921642878e-19)
(104.5768375 0.8755823418 -5.27108277e-20)
(102.9845575 0.4493385559 -4.779846733e-21)
(103.4159777 0.3715311016 4.742277578e-20)
(103.1413109 0.07730988111 7.517019147e-21)
(102.7984865 0.204783738 1.139763628e-21)
(101.9901931 0.1469933318 -2.027368478e-21)
(102.2831343 0.08042567506 1.344715053e-20)
(102.0796914 -0.1081230157 4.984092198e-21)
(101.8409378 -0.0146655294 9.874332012e-21)
(100.9104408 -0.1919505535 -3.43791485e-22)
(101.1129643 -0.3824221112 -1.051296419e-21)
(101.4967305 -0.2500248293 -1.062702689e-21)
(101.4683528 -0.1041540006 -1.160382063e-21)
(100.5566265 -0.1532032269 1.07555617e-21)
(100.6488232 -0.2998074153 1.306016395e-21)
(100.3616174 -0.08463676011 -4.240877776e-21)
(100.3748509 -0.1922391818 1.669909071e-21)
(100.2414291 -0.06534578569 -2.0906225e-21)
(100.1207467 -0.2230805094 -1.93711225e-21)
(100.3006653 -0.1319003864 1.073840742e-21)
(99.95121152 -0.442424854 -1.131678398e-21)
(100.1881655 -0.3959041977 -7.942369136e-22)
(99.64441348 -0.6570389169 5.809674701e-22)
(99.96275299 -0.6609007493 -2.852031972e-22)
(99.11621543 -0.7862412985 6.617712535e-22)
(99.57816997 -0.9246921207 9.617678709e-22)
(99.17850945 -0.940527154 5.775058847e-22)
(98.93090389 -0.6993978178 1.678289998e-21)
(98.98583977 -0.9130883912 -1.694805443e-23)
(98.76525643 -0.8443437131 -1.695046497e-23)
(98.12767504 -0.8014132844 -2.537233307e-21)
(98.36549928 -0.9170257727 0)
(98.19799196 -1.112955787 -1.246946885e-21)
(97.89938406 -0.9913748445 -1.330556897e-21)
(97.03586653 -0.8819240489 -2.178862113e-20)
(97.34990091 -1.066892467 -2.175708543e-20)
(97.10660293 -1.32704949 -4.42861638e-20)
(96.6688062 -1.04590987 2.319085923e-19)
(96.69284538 -1.232477877 -1.318371445e-20)
(95.68583949 -0.8870368399 2.178805522e-19)
(95.88604779 -1.040528416 5.195129926e-19)
(95.70839453 -1.19375234 5.102752404e-19)
(95.46319699 -1.037736133 3.933786373e-19)
(93.79684196 -0.775187906 7.352007258e-19)
(94.04654476 -0.996606929 6.845883487e-21)
(93.82934818 -1.200202992 -1.287719406e-21)
(93.509835 -0.9794589676 1.254747225e-18)
(91.19264744 -0.6756445923 -1.04078595e-18)
(91.59243843 -0.9726881423 -2.671346627e-19)
(91.27847092 -1.284141861 -5.28879696e-19)
(90.80806568 -1.009401595 -5.544765298e-19)
(87.04975704 -1.024067201 5.693801904e-19)
(87.78487938 -1.384988235 5.49122143e-19)
(87.34912283 -1.944741246 5.194242313e-19)
(86.5040094 -1.681868923 5.409292842e-19)
(81.15988343 -3.465389079 5.981942602e-19)
(81.85776939 -3.488129288 1.343298674e-20)
(81.77249407 -4.034098429 -5.957246358e-19)
(81.12543718 -4.126637557 4.428269411e-19)
(141.3638932 5.622031039 8.364173117e-19)
(139.6155294 6.721821534 1.082751011e-18)
(139.9227902 4.224373728 1.182715377e-18)
(138.4641437 5.312750964 1.279293719e-20)
(124.6737238 2.241527203 1.458542443e-18)
(122.8541712 3.004992883 1.474214086e-18)
(123.3399187 0.8970561578 7.112163729e-19)
(121.9146896 1.765991922 2.36778679e-19)
(114.1097543 1.10784414 -4.815136696e-19)
(115.2374839 0.7203664213 -5.705875166e-19)
(114.3943234 0.03344830754 -9.713321241e-19)
(113.4608533 0.4859929338 -4.868051597e-19)
(108.5796371 0.2511674145 8.419899221e-19)
(109.2450083 0.02058039229 3.083015981e-19)
(108.7233405 -0.3356607717 1.37251652e-18)
(108.1595154 -0.07818075821 6.720611731e-19)