/*--------------------------------*- C++ -*----------------------------------*\
| =========                 |                                                 |
| \\      /  F ield         | OpenFOAM: The Open Source CFD Toolbox           |
|  \\    /   O peration     | Version:  v1912                                 |
|   \\  /    A nd           | Website:  www.openfoam.com                      |
|    \\/     M anipulation  |                                                 |
\*---------------------------------------------------------------------------*/
FoamFile
{
    version     2.0;
    format      ascii;
    class       volScalarField;
    location    "2.62";
    object      k;
}
// * * * * * * * * * * * * * * * * * * * * * * * * * * * * * * * * * * * * * //

dimensions      [0 2 -2 0 0 0 0];


internalField   nonuniform List<scalar> 
12556
(
36.90868737
36.90872886
36.90877513
36.90880083
36.95438349
36.9546322
36.95508099
36.95623544
36.95866272
36.96329735
36.97095904
36.98114588
36.99042944
36.9945022
36.99251313
36.98468535
36.97495528
36.966462
36.96092989
36.95732083
36.91096531
36.90949753
36.90880657
36.90842387
36.72744055
36.72763187
36.72781082
36.72809326
36.77347295
36.77476037
36.77760366
36.80454882
36.81579681
36.83719186
36.87263286
36.92045298
36.96759863
36.99320249
36.98535464
36.9491341
36.90271715
36.86125959
36.81120567
36.79094847
36.73605159
36.731151
36.7287662
36.72766772
36.54732577
36.54776622
36.5481896
36.54867855
36.59463996
36.59803009
36.6049919
36.63910235
36.66687946
36.71847437
36.80656057
36.91564454
36.99253629
37.02907533
37.01712703
36.95931525
36.86771903
36.7743982
36.68282232
36.63792588
36.56904289
36.55817244
36.55292209
36.55081446
36.36863416
36.36904211
36.36966061
36.37099296
36.41744433
36.42474602
36.43971765
36.48844879
36.54682266
36.66838216
36.84279595
37.01143769
37.11633661
37.14870779
37.11463078
37.02995459
36.90143901
36.75555699
36.59621324
36.5092283
36.41330481
36.39255296
36.38233083
36.37830337
36.19191084
36.1923513
36.19334297
36.19587338
36.24415723
36.25702833
36.28449093
36.35618046
36.48142281
36.71439191
36.99666164
37.25505633
37.42613335
37.43100168
37.33501309
37.18826727
37.00883057
36.80075401
36.57777305
36.41517172
36.27416005
36.23456923
36.21607013
36.20886313
36.01691706
36.01745646
36.01911637
36.02372228
36.07528867
36.09730928
36.14635654
36.25462472
36.48794545
36.85149671
37.31943118
37.80918978
38.12481121
38.05712052
37.76891231
37.48446064
37.21020754
36.91939067
36.60548804
36.36389753
36.1521102
36.0831861
36.05257656
36.04045984
35.84437628
35.84526608
35.84813228
35.85548033
35.91127884
35.9457707
36.02454277
36.19052325
36.54277649
37.08854109
37.87353681
39.04316196
39.8182023
39.6315202
38.57379986
37.97305091
37.52732023
37.11366035
36.67698524
36.35943897
36.04774957
35.93864329
35.89052611
35.87152027
35.67478325
35.67621253
35.68075726
35.69203128
35.75395652
35.80440769
35.92085191
36.15530518
36.62380421
37.38060663
38.61925645
41.15503533
42.26117459
39.91444475
38.67455809
37.96717591
37.3830335
36.79128242
36.37768061
35.96114851
35.80142038
35.73019613
35.70233939
35.50956462
35.51196333
35.51904824
35.53524938
35.60511954
35.67464785
35.83443895
36.13940182
36.720685
37.67723204
39.28241506
42.98064909
46.60007843
41.5990199
39.53687124
38.49114083
37.70766645
36.93540022
36.41240649
35.89167107
35.67378239
35.57457704
35.53610115
35.34939578
35.35288963
35.36280161
35.38525964
35.4657236
35.55617001
35.76209398
36.13281608
36.81797927
37.9363274
39.75385927
43.78339175
49.72579316
43.15399108
40.42922099
39.06443718
38.06015747
37.09419508
36.45765283
35.83792071
35.55923387
35.42896779
35.37833573
35.1957275
35.20081033
35.21449936
35.24561123
35.33389662
35.44816579
35.70038786
36.13335988
36.91768901
38.1702223
40.14143593
43.80563182
51.3023418
44.34527626
41.27183532
39.6292021
38.40738191
37.24947495
36.50857828
35.79674711
35.4606893
35.29866379
35.2349778
35.04833879
35.05483425
35.07211421
35.11193971
35.20926884
35.34881865
35.64525024
36.13857382
37.01728342
38.39290317
40.51553907
43.39682501
51.98667944
45.19394168
41.99134107
40.13309499
38.71169164
37.38708983
36.55823948
35.76876771
35.37859737
35.18666809
35.10983783
34.90796266
34.91637191
34.93885753
34.98854017
35.09101637
35.25556489
35.59293832
36.14696269
37.11663844
38.61375661
40.92426907
42.83541932
48.13193062
51.79937939
45.78926218
42.55134634
40.56329685
38.9548996
37.49697499
36.59952892
35.74568688
35.31137682
35.09211727
35.00324212
34.77323955
34.78349864
34.81083614
34.8685898
34.98368595
35.1800702
35.56440649
36.16931754
37.23988748
38.88257711
41.39364599
41.50089363
56.24594879
51.77738497
46.16009794
43.02727273
40.87349132
39.11400781
37.57708622
36.62823481
35.72030709
35.25369131
35.01107362
34.91172785
34.64378618
34.6558133
34.68765874
34.75301395
34.87714838
35.09662179
35.50894628
36.13774615
37.24440618
38.96958516
41.67322593
37.59595799
55.72989367
51.37370239
46.39926164
43.31926993
41.07057267
39.19556291
37.62021684
36.64133772
35.69003563
35.19921458
34.93767083
34.83003133
34.51727039
34.5309895
34.56690012
34.63958224
34.77295708
35.01172424
35.44865875
36.0751049
37.17164039
38.88554052
41.53833818
34.19865464
53.66130156
50.96740641
46.63216544
43.53722662
41.13540222
39.2073123
37.62586526
36.63279327
35.64606553
35.13967162
34.86562191
34.75149714
34.39358192
34.40882774
34.44806029
34.52702207
34.6687228
34.92310476
35.38120095
36.00729132
37.04200322
38.65638912
41.01881805
36.5944423
50.31404499
50.71058006
46.72806369
43.55394001
41.06001656
39.16976831
37.59721823
36.59151103
35.58851262
35.07424156
34.79028103
34.67123777
34.26975927
34.28636545
34.32840981
34.41311784
34.56275421
34.82931859
35.30342594
35.94553417
36.92944524
38.39192667
40.44421952
38.4227135
43.41347303
50.19859893
46.53882723
43.29652014
40.85765266
39.05729383
37.51422179
36.51553372
35.5102157
34.99409163
34.70700502
34.58458687
34.14698244
34.1647238
34.20882668
34.29787562
34.4538131
34.72965113
35.21523049
35.86847925
36.86119269
38.24755946
40.01537699
38.28490167
36.05933278
49.03383032
45.96988415
42.8903688
40.61072035
38.89443842
37.39573321
36.4131945
35.41543386
34.90221491
34.61435732
34.49048886
34.02178426
34.04048192
34.08632934
34.17940791
34.34133425
34.62408875
35.11745059
35.77707911
36.77417816
38.15030337
39.71842344
36.85174931
34.80300361
47.80969147
45.31519147
42.49438523
40.34753046
38.70447359
37.25268825
36.29037679
35.30531655
34.79772281
34.51086884
34.38641694
33.8973557
33.91678331
33.9637284
34.05930195
34.22515534
34.51306736
35.01134846
35.67389897
36.67050799
38.02312613
39.36339805
35.27063633
34.31602694
46.69144646
44.70923207
42.11845271
40.08201055
38.50159365
37.09340007
36.15227404
35.18368277
34.68397263
34.39937774
34.27496489
33.76898195
33.78901117
33.83704616
33.93539727
34.10559782
34.39730515
34.89835991
35.56142177
36.55431654
37.87182741
38.96484229
33.75626376
33.90208251
45.67293185
44.14379183
41.7636505
39.82109513
38.29382745
36.92410218
36.00326774
35.05149606
34.55998797
34.27805492
34.15402448
33.64261569
33.66305608
33.71162878
33.81108764
33.98309053
34.27770748
34.77997511
35.44184619
36.42866943
37.70071092
38.53435736
32.30855867
33.48801699
44.74173352
43.61233186
41.42714387
39.56803656
38.08583908
36.74926083
35.84690126
34.91343258
34.43108817
34.15218941
34.02874285
33.51087026
33.53167246
33.58107683
33.6827808
33.85833942
34.1552088
34.65760369
35.31712211
36.2958485
37.5125088
38.07831197
30.93881027
33.03608033
43.8854973
43.10956961
41.10559722
39.32370773
37.88031308
36.5720005
35.6860088
34.76850613
34.29412586
34.01793864
33.89509704
33.38372548
33.4047382
33.45440492
33.55628
33.73183465
34.03066996
34.53251258
35.1889579
36.15752767
37.30819227
37.60587335
29.6424306
32.54726397
43.08629765
42.63120139
40.7966077
39.08769782
37.67868182
36.39444683
35.52266306
34.6224729
34.15684514
33.88348494
33.76125964
33.24894691
33.27019693
33.3206786
33.42491149
33.60432068
33.9048171
34.40574281
35.05869319
36.01466003
37.08871386
37.12382204
28.4014602
32.0261708
42.33374854
42.17369749
40.49844897
38.85914701
37.48151105
36.21794567
35.35843307
34.4710088
34.01186917
33.740694
33.61896857
33.12294381
33.14430535
33.19492506
33.2985913
33.47607361
33.77825057
34.27811506
34.92728576
35.86758527
36.85603366
36.63597965
27.2366019
31.48678192
41.61908979
41.7342584
40.20979898
38.63722686
37.28890035
36.04332891
35.19430847
34.32278814
33.87161669
33.6028196
33.4815561
32.98520396
33.00676168
33.0582932
33.16489682
33.34782537
33.6514411
34.15022681
34.79531764
35.71632061
36.61296464
36.14511941
26.15772551
30.94483341
40.9390972
41.31057603
39.92950142
38.42118146
37.10068239
35.87104004
35.03110735
34.1679028
33.72131867
33.45410442
33.33314944
32.86274413
32.88438457
32.93601899
33.0413194
33.21950033
33.52477086
34.02252849
34.66312488
35.56091362
36.36112891
35.65340718
25.16500217
30.41365999
40.29055899
40.90090726
39.65658259
38.2103734
36.91660569
35.70131157
34.86914343
34.02168796
33.58252121
33.31726
33.1965837
32.72124022
32.74308727
32.79575446
32.90486832
33.09196408
33.39856994
33.89535645
34.5308601
35.40154332
36.10255822
35.1625028
24.25836451
29.90261151
39.67034434
40.50377082
39.39017919
38.0042242
36.73636475
35.53423298
34.70894926
33.86386085
33.42726011
33.16309298
33.04255152
32.60540617
32.62734913
32.68017609
32.78727412
32.96469072
33.27310527
33.76897287
34.39857589
35.23853869
35.8394117
34.67380376
23.43424902
29.41698202
39.07684936
40.117998
39.12955159
37.80222501
36.55965744
35.36982968
34.55041238
33.72382829
33.29441428
33.03180543
32.91138851
32.45797463
32.48016804
32.5341003
32.64583425
32.83897271
33.14865683
33.64360361
34.26628086
35.07231727
35.57351218
34.1885436
22.68636337
28.95910589
38.50917014
39.74275804
38.87409781
37.6039457
36.3862149
35.20809745
34.39414016
33.56065127
33.13199445
32.87020055
32.74978952
32.35308388
32.37540343
32.4296748
32.53920273
32.71363689
33.02549576
33.5194478
34.1339663
34.90331968
35.3051025
33.7077177
22.00785244
28.52939183
37.96606594
39.37719549
38.62329786
37.40898394
36.21571656
35.04906348
34.23964314
33.4330224
33.01105005
32.75034617
32.62995534
32.1955966
32.21823336
32.27360193
32.38744369
32.59111977
32.90416062
33.39686542
34.0016446
34.73199804
35.03471896
33.23237209
21.40229188
28.12737195
37.44625395
39.02082645
38.37676988
37.21703294
36.04797178
34.89305358
34.08828655
33.25736259
32.83590764
32.57601771
32.45553955
32.10762766
32.13044465
32.18639668
32.30020009
32.46978519
32.78567374
33.27692542
33.86933054
34.55876367
34.76305017
32.76401712
20.86424414
27.7528366
36.94937952
38.67347323
38.13422893
37.02784397
35.88278637
34.74134238
33.94003385
33.15380923
32.73564999
32.47625715
32.35572988
31.90721139
31.93053184
31.98802913
32.10616652
32.35607092
32.67271277
33.1633527
33.7374114
34.38467949
34.49273983
32.30739654
20.38531981
27.40689183
36.47932486
38.33751776
37.89644959
36.84165233
35.72013308
34.59813022
33.80071953
32.9276634
32.51079496
32.25222787
32.13152385
42.83587916
47.07457171
42.61617226
43.72775687
50.55212665
47.51471091
43.838589
52.23384362
50.84859541
43.46102295
52.92263233
52.34853968
42.87447993
43.84392966
47.18532236
53.22709585
52.96309038
41.9514366
53.61160112
44.24662231
55.927198
53.7180923
53.25129082
40.8320477
39.7522703
42.18354368
39.56629866
50.20307264
44.0425852
46.1072904
41.97422569
40.41668641
39.64809816
42.8622345
42.13740388
55.07283075
55.96440785
49.43470584
43.90940383
42.49948209
40.04898409
43.26379859
42.94300471
43.88130602
45.45209803
46.34589541
54.40976395
53.87376854
51.17363827
45.32446024
44.32533892
40.43327371
43.20465088
43.27248228
43.6766282
42.14822594
43.95564126
55.59483962
54.94122682
40.829833
42.96304308
43.1854831
43.17138846
37.73250603
39.99476373
40.00114909
56.25857444
56.04213232
41.30654281
42.45526131
42.91938573
42.51997828
32.27396364
34.6651116
40.47259316
54.76687641
53.93473795
46.764414
48.39614697
43.15365982
46.40139149
55.8283082
50.51501662
45.11085034
49.64472287
54.50536871
46.45688013
47.13858111
43.44842064
47.72226739
46.52998523
48.46733961
47.86123349
53.93248442
54.92041457
49.21542111
55.66603788
55.10452202
54.72762375
55.72087886
48.97881799
44.12960955
45.301474
43.884823
45.00143674
43.33531751
46.45300168
45.10439081
54.81982052
54.48341546
51.76734254
55.59019179
55.79677113
55.07748293
55.54141979
51.58020793
40.12004506
42.03467135
43.62755405
41.16175267
38.82238952
43.22287139
41.29078061
56.00783229
55.65988649
34.81029827
37.56834759
43.13768713
40.54551795
35.78467673
32.92345459
38.68734999
35.98051424
41.11647651
56.53777739
56.28747883
39.99809231
39.89119573
32.21281949
42.47348731
50.6027463
31.9226252
73.17229554
32.84175656
31.9276398
49.95190337
39.13799977
42.00438479
40.54033511
42.03472831
45.50363719
42.77878671
59.69462824
46.30430467
43.35029576
47.21875522
47.31522887
45.54748923
51.9464184
46.23983842
45.60872845
51.21931986
50.34245791
49.00107115
52.99197841
56.81702156
56.61585177
47.16724299
45.78579265
42.27416446
53.38537429
44.97293145
51.48281395
43.67294503
48.75959492
44.51645334
48.61899604
45.1103081
52.71657791
55.94597553
56.06321856
55.81233205
55.93066576
52.6462315
40.48561816
45.8733569
46.5581778
41.29034171
40.89009019
42.75445539
43.59175102
41.36624046
41.35382258
63.70595564
47.41674782
59.32730866
45.55922679
56.25227772
46.62939536
56.10271743
56.17429805
54.08473811
54.05044786
41.45174913
43.85632365
55.36128401
41.7719674
43.71641356
45.14041688
41.81498323
55.28286117
38.96180358
42.74188399
42.41061998
52.84088794
51.06926392
47.0440327
33.73576013
40.65709583
40.17748754
41.26402602
40.82791392
33.89212325
57.16768375
53.79455689
47.58567655
54.06657207
54.98465938
50.17932639
53.76878166
47.80851615
44.63775916
49.3769603
44.41783377
54.31454669
50.06538711
45.14813569
52.10110705
56.99388558
53.76781501
53.38591179
47.15934659
43.60250103
47.08300537
48.32615807
46.71894956
49.68498582
43.96504187
46.32672469
48.2275825
54.50323736
54.59364972
55.38197076
52.96959937
52.3603602
53.58859059
53.14141043
55.33868216
55.73786791
51.0256562
50.02025731
52.12884174
51.32507505
55.79887271
44.24471989
44.13701218
45.86796184
45.78270081
54.93894145
45.65076375
54.88483201
40.23704359
40.07729798
42.32014794
42.18888629
44.22317952
47.92635541
55.83083474
44.4444369
41.50959027
36.50272721
41.81038597
41.40655665
42.29588261
41.93659016
36.64186566
40.12661274
34.94073221
34.81946182
37.74017413
37.60447379
52.36173404
41.77019131
54.50186187
53.32568203
39.99355607
39.54431819
31.88971052
33.20223959
42.07919244
41.68619674
32.43484475
64.56469299
41.88590296
57.17720272
32.35650829
47.50855205
43.88442676
41.05864892
58.10684178
40.2683378
40.53175618
41.62952709
42.01185128
42.36681087
41.00956424
33.37231164
41.06914279
56.22789613
53.16704457
53.65049586
52.01751335
40.76430833
43.0066619
55.553174
54.80890026
42.57075918
56.91840621
56.86128583
53.46225658
42.87487177
42.34851384
44.60107117
45.56806974
42.63650512
42.89142955
55.59017797
58.07969774
57.18571855
56.21268476
54.20999206
45.97731294
46.44509295
48.56669031
47.835692
53.80193046
42.95922821
44.19853612
43.95680781
44.50041111
44.27622691
43.09035884
43.15099429
42.8463166
39.09351492
32.62063227
37.40515375
36.99483262
65.67598115
49.69475485
54.31740952
55.11701978
58.98391663
58.30355087
51.9981766
48.00112233
46.62275747
49.64848145
48.43629332
52.34825474
54.14488776
49.72101976
48.88937376
54.68097106
44.6551967
44.7665602
44.57087366
39.9842873
40.46468103
43.68562348
46.70053436
47.04501843
54.65470877
55.70470431
54.45620286
54.34242495
55.13357407
54.0172583
53.70933246
54.2960705
54.09621878
55.14997165
41.09103237
43.52632246
43.24773275
43.87348855
43.61558501
41.21948127
40.77502184
35.75963998
36.0627148
33.52974615
33.7349555
39.28176008
42.84712334
39.21878933
39.84892661
36.18310616
36.52060812
41.67625623
55.87459652
48.43909114
51.77390779
55.86742717
39.94872289
35.38391725
33.68150674
38.28484973
33.23487758
33.46075523
32.74038303
36.88450456
47.67922988
39.03475922
38.29913214
37.53091135
36.8616194
36.47084272
32.09118678
41.14003958
42.65081643
52.35900732
31.93133755
82.61777168
43.7155778
42.25347122
46.74203211
32.66819662
31.99717087
53.78986966
52.69152631
52.79501152
45.7988378
45.84393089
41.01167965
40.32154625
51.44750248
51.58067637
51.48633718
47.39221193
55.83078837
47.4463419
56.24237237
48.19442223
42.72676172
40.86928364
46.78441262
45.08417785
48.38417647
45.79261446
40.97119444
41.61849626
47.15800343
56.13030151
40.99395697
45.06406932
61.763604
40.0759529
40.51185727
40.339859
40.08806732
55.05502426
64.31162454
53.70921328
50.3660052
57.32721417
54.45043569
49.72477415
46.93835432
51.58076338
55.51695875
54.9907601
55.78649743
56.2378313
56.89247984
55.89033918
46.72793054
46.11490064
54.15169449
46.79808736
47.24847409
45.48408945
46.53894169
47.40931615
53.8476939
47.71555057
46.94696364
41.53438306
41.77467188
42.07699785
51.51918415
50.7561541
43.06970693
49.18541684
47.91818576
50.45411122
49.5817891
42.62080464
41.49436554
43.0733637
41.56386318
37.98215188
37.52845521
32.91621519
34.21513838
38.48779086
38.1105819
55.94715248
55.44739261
55.04691041
50.30248586
50.83602257
49.33956258
50.08684087
55.32522099
52.3698173
51.0040308
50.81975219
50.9478097
51.02412966
52.62313661
52.78841133
48.19778001
49.08732334
55.49069288
55.90007038
58.57957951
58.25853387
54.78782146
59.68931723
60.35476213
60.61202394
59.24601178
58.18270658
60.54188149
59.14390262
52.16355129
57.35786304
58.61155867
42.32017868
47.2608227
46.45860351
48.0179312
47.47810594
42.84762517
45.34066279
44.78396579
46.17892126
45.53203666
47.91014435
50.08976612
49.59112766
50.69571733
50.24987988
48.33551393
44.91292364
48.73020875
48.19952232
49.42109475
48.90476548
45.25684809
50.82216858
49.9144882
54.23050815
54.6925243
52.14913618
51.15708587
39.565544
39.09578146
40.38003915
39.73036931
38.34622346
37.88709373
38.94730024
38.48294203
43.8891121
43.35863811
44.60382203
44.07067616
42.29892622
40.79670383
43.16471687
42.63125429
45.70038083
44.91350148
47.5441698
46.18787415
46.21387675
44.48970631
45.20449832
44.6624149
44.31785855
35.33499799
35.64167812
40.64496528
33.95581441
33.73666404
34.25592439
34.04282674
33.63504441
39.47743034
33.81649543
35.08715893
37.27396165
38.9559263
42.71983017
36.93995158
35.19694277
37.79307005
37.11519104
34.62995579
34.35438823
35.0615007
34.7385179
41.80404683
36.64049395
37.04251627
48.39528061
42.87322291
47.68084779
44.6358229
47.47793863
42.40158162
57.80983883
39.90152273
55.93203859
50.15804384
35.2702686
34.21044463
32.96374812
33.16672944
38.15026236
37.11598897
32.7719493
32.90787742
52.11537596
32.03782195
36.28614161
35.59593058
65.13691808
71.89713914
31.86428157
75.92529426
56.66261073
41.58883814
32.60067587
64.40681349
43.89414152
74.03365738
45.3873734
32.10681911
41.87257852
39.93562318
38.77358735
50.45319321
50.11789248
52.41304801
46.81684832
46.43069671
50.378748
42.15285181
40.50616084
39.96565404
56.06991184
55.94779693
53.10103899
44.55737852
44.0579422
46.44512167
51.02965124
44.50075578
44.61469083
40.86034132
41.1879839
43.35042916
48.91561861
52.08356821
54.6553323
45.86540528
45.14483106
45.03041556
45.24642597
45.17568225
45.99209779
45.42850428
43.69681861
40.69753762
52.34096529
53.66194818
56.16617779
38.96755944
38.60695481
34.33195033
55.38982589
57.08391886
51.78688422
44.98432036
44.82559729
44.82246436
44.67872687
41.91461133
42.51176389
42.79989872
43.6826533
45.41229843
35.60187253
39.46140209
39.08599684
45.13372454
43.38939868
40.21327923
32.28818729
32.31563254
33.04569595
42.30170126
53.18120059
48.50993749
40.27802133
47.94536106
45.95269306
31.91616579
32.78181686
32.25504716
32.27410682
31.93791077
60.12517583
45.50525644
41.32833979
42.29441699
50.68129498
40.76527306
41.66365503
50.52809879
52.71210662
46.14628051
44.67583208
46.43871261
47.28799353
40.70645252
40.61771248
59.08335975
61.11136402
62.58979672
53.51980798
59.91380352
42.38557391
42.63002454
45.03590504
61.20817275
57.08342143
54.82399247
64.1960905
61.7933169
41.40686892
42.58512701
41.98610109
46.61498064
45.98400858
42.66100718
52.45758734
51.78453467
42.3467387
45.23224426
42.52782801
42.69035516
44.06420053
40.32388939
40.63746776
56.90166273
57.61289829
54.38577331
54.41266192
53.42954669
53.27602278
50.69842457
51.60830481
51.26139233
53.11118374
52.9100391
53.37710378
46.84676426
47.91014005
52.30074453
53.47473982
58.27917207
55.00008801
58.58424483
58.91269199
56.4439555
40.83157168
42.81488978
42.32335025
46.18783901
45.96991452
43.38168344
40.37529663
40.1535375
41.91993544
41.59873252
47.1110781
49.10322695
48.80126545
50.93868391
50.62897023
49.21831962
44.239286
46.75333754
46.49663046
48.49694215
48.20048648
45.96320216
41.2609117
41.74714
44.57399281
43.79625559
40.61904888
41.1019545
44.55793443
45.02671489
46.12690889
38.83534821
38.69788396
39.95604274
39.77905772
36.74831715
38.48701547
38.37203394
45.50494827
43.90114487
44.39499004
45.87852653
45.83324758
42.98224072
43.28148766
45.59981792
45.95041705
46.2979363
54.70877446
47.21836361
48.50507606
39.93041563
39.58179264
35.91530931
37.03057015
40.34901004
40.03487558
33.18994568
33.25708264
35.05278435
34.67879276
33.02906021
33.12173249
52.50417086
32.00318197
32.7162502
32.14541349
107.2859181
32.38447593
41.67155096
52.47540298
47.85465296
32.05439656
32.08405706
32.47522822
63.48056218
68.41491649
66.35911598
51.25533391
32.32974237
32.0192794
32.04004903
41.39469992
41.67411757
40.57518385
50.35275538
49.87093534
43.28497351
42.31818358
40.3811659
53.30702797
52.40346187
57.03079428
41.2069854
48.93890069
45.6624818
49.18262999
48.46113357
41.92226719
43.72232835
44.30371342
47.82729701
53.78724877
54.0975243
53.30683271
53.55405659
57.82428439
57.05575264
57.26428776
56.6142331
56.83003437
57.47979552
48.30105328
48.72369684
48.93295099
48.40262236
48.5258632
48.16683481
58.72159176
57.7009909
57.66951042
57.4657294
57.6249472
58.51730235
49.32971397
49.6278806
49.86321616
49.15971516
49.38647337
49.09627847
52.68108606
52.85249196
52.06951438
52.24456708
35.84302937
37.96153562
37.83933978
33.61093093
34.88176644
34.78767925
35.17556904
34.9937011
33.67422418
53.61435322
54.71537338
49.21214933
54.31346029
32.67813403
32.6428472
32.76524121
32.72616441
32.50648598
33.26850715
32.35647688
32.47368515
33.31456521
34.54759983
34.46088575
34.70819281
34.62681245
33.38459999
32.87991253
32.81690362
33.42763609
33.02995736
32.8954423
54.13733496
52.56000206
44.10924303
54.6035376
33.96087215
33.24245063
39.59880257
32.12076193
33.48632071
33.34528725
31.89335335
80.47477725
81.73546974
61.77705151
71.68123358
61.5938696
32.19440992
32.22823559
32.72722862
31.96362352
57.30880974
62.51648671
57.68572929
58.98005072
55.63321883
48.72243263
61.26581493
56.27429822
46.01225825
46.25891657
51.51386557
43.64602798
46.41540457
52.3864856
49.87461282
52.95976327
48.77978324
51.55438437
57.62701055
59.13513431
52.39945138
56.52373688
60.00702473
48.12438401
49.15225311
47.69683854
51.25298334
58.67886962
58.80185169
56.95711506
41.85729088
52.29736338
47.3075458
57.59804022
58.44873162
43.34481199
45.48249616
48.38012751
60.71986657
50.39356738
42.27532962
43.44202576
60.67413584
57.52584784
60.9327906
56.21989309
58.67306492
61.01198596
62.17444336
61.49528767
55.06867421
55.17457957
55.38203991
54.64882827
54.75801751
54.81441237
56.54370901
56.15184456
56.37413837
55.66872496
55.88746379
56.21399996
46.51575897
49.19770684
49.19107481
46.92446724
47.17280973
45.84195098
46.84386693
46.62587455
46.40006938
47.77673764
48.11194057
47.30414239
48.58536698
48.38892233
49.12572224
48.91752947
47.11579169
45.92283921
43.95041321
41.39716286
47.08334699
46.88890113
46.72627462
42.18459412
46.10772192
45.74776833
42.61642542
42.51286844
43.91117729
56.47262528
54.86779203
52.31828773
51.97087758
51.19617547
53.09682089
52.73723978
52.49228215
59.46409233
59.11209678
54.66336062
59.55645485
61.62302677
56.28635167
59.31964518
59.4562888
58.48568166
57.26645378
57.14035112
57.48160363
57.4501845
58.39455587
60.02042153
60.14218253
58.9846021
61.6732893
61.63733246
61.4577683
61.62320518
58.78593105
60.64163627
61.22482279
62.79491087
60.61959159
44.91287745
44.76504689
42.25352435
42.99598915
45.61848997
45.46372594
40.8324154
40.59601083
41.32729689
41.07250542
49.70983178
49.40435142
47.49569066
48.77317485
50.3230267
50.01647329
47.32631139
47.05293079
44.60733516
45.58610907
47.90156247
47.61715687
50.57977323
50.60826458
50.86015743
50.10852146
50.35815317
50.21147469
51.77873515
51.53076869
51.70161234
51.1105617
51.33979008
51.52185322
39.40335895
36.82821249
36.96992525
36.57056823
36.70428466
39.25095041
40.11191178
37.43506001
37.64601108
37.10831356
37.26587643
39.9097568
38.18109838
35.81966405
35.95554844
35.59977597
35.73380819
38.06130865
38.79072471
36.31335018
36.449959
36.05719967
36.19755236
38.6451402
39.19909421
39.04125089
43.7140076
41.80158127
41.97890935
41.43339927
41.59516936
43.52871931
39.57476177
39.40161058
37.77175641
37.62316911
42.04601615
40.17338366
40.23832781
37.9560239
38.40230973
41.39564386
43.00489155
41.07713386
41.21132726
40.71453721
40.81227383
42.78384553
38.14892156
38.05438318
45.31239263
45.49366202
45.78775673
43.69462012
44.29226765
44.70138845
46.2158726
46.21201112
46.44372878
46.46258411
44.95904436
44.42277243
44.92805983
44.44666819
45.92336716
45.71161556
44.28770837
35.41941262
37.42244878
37.29358288
37.69990594
37.58417382
35.56750944
33.89690218
33.80002579
34.18689391
34.09746156
33.60553874
33.62283876
33.98948528
36.15450326
35.52198332
37.03641435
36.78276925
34.79354373
35.62849058
34.88350216
35.09162539
35.36769811
37.58144258
35.38427402
35.52632719
35.16639733
35.3173659
37.50187218
34.53976487
34.43525094
34.95076654
34.83650649
47.06705231
41.40581906
41.95403926
40.88974549
41.08638374
47.3621509
46.64201267
46.44029239
42.63629063
44.30622372
47.82554347
54.93767881
43.75062555
45.62402749
41.12885508
42.32192031
55.67231563
32.53159661
32.48566109
32.60637778
32.57417825
32.68703441
32.93341372
34.49207058
32.32265207
32.26215585
32.43455782
32.37121755
33.02978947
34.20602458
34.11622525
34.37825336
34.28856269
33.09224871
32.81291918
33.83990436
33.71492003
34.03227376
33.94181675
32.86036316
51.61656286
33.27123372
32.9917639
31.9842654
63.09175131
89.43415406
94.96565135
88.34144121
89.65748234
68.00695256
32.08506606
66.86172636
49.5584198
52.7322775
32.54111216
32.10587007
32.1550817
64.58760508
71.28474279
69.68339637
56.46330125
62.81150465
76.03969853
71.56796321
48.04031533
67.58979932
59.67514737
32.34612151
31.93179688
32.1296205
36.67934054
36.69497362
36.81204894
36.70188546
36.73174615
36.83032195
36.74402324
36.79443739
36.86188322
36.81370576
36.88617001
36.90717701
36.90791222
36.96722275
36.95602929
36.98018477
37.00909485
36.9881325
37.01382073
37.01095442
36.99188566
37.00465843
36.9678651
36.96052102
36.95186692
36.88995534
36.91485427
36.8682358
36.80734143
36.87112552
36.52449459
36.55773721
36.65826596
36.57310287
36.63942031
36.70309593
36.6700887
36.78362893
36.78071529
36.82422314
36.94305069
36.89047212
36.97661422
37.05425505
36.97842471
37.07349152
37.10673771
37.02459501
37.1073407
37.09268832
37.02421685
37.08137366
37.02853464
36.97733915
37.00541764
36.91970477
36.89185893
36.88687736
36.78554044
36.79405253
36.38764309
36.45669919
36.52814469
36.49123414
36.63713573
36.62929328
36.6942731
36.88063227
36.79741844
36.94467942
37.12227637
36.97396557
37.17189848
37.30055738
37.09688227
37.32326294
37.34382169
37.14935641
37.33086133
37.28746741
37.12817623
37.26367417
37.17445374
37.05524108
37.13888601
37.01820861
36.93757501
36.97395479
36.83241863
36.79051976
36.27644588
36.41386995
36.43910641
36.48005816
36.71639237
36.65037862
36.80733785
37.11328489
36.92430171
37.21952755
37.53738327
37.19657601
37.62780975
37.84863968
37.39536227
37.89058275
37.89710808
37.43217328
37.82205056
37.68795485
37.36465882
37.6319633
37.45516035
37.22957327
37.39438322
37.21197715
37.05678186
37.1488951
36.95428194
36.85488085
36.20300402
36.43004953
36.41448214
36.52653709
36.88087961
36.74973163
37.02105793
37.51957539
37.19526788
37.71123217
38.37999444
37.68517633
38.62095153
39.48283253
38.07269019
39.50277033
39.28413963
38.06551676
38.96198206
38.48087134
37.84156392
38.3263918
37.94152315
37.55295716
37.82928488
37.53155687
37.27839168
37.43606638
37.15521621
36.99549778
36.16317332
36.47574828
36.43954207
36.60566796
37.10298242
36.93038055
37.30956554
38.092769
37.65010131
38.42828165
40.26881273
38.67576191
39.64389135
40.26998078
39.32267397
40.87525271
40.9493134
39.83028958
40.38930358
39.73623526
39.29896909
39.52913218
38.69184799
38.09994843
38.48663263
37.98362653
37.63242986
37.83929086
37.44061915
37.2169009
36.14231695
36.53144967
36.48562339
36.69640966
37.33569662
37.15692571
37.6064115
38.66669818
38.24444139
38.80541675
39.30278143
39.07100886
41.4683287
42.10953695
41.71318236
43.8908306
42.64631318
41.43881762
41.17136431
39.6695479
38.90906518
39.33922133
38.57018087
38.12415677
38.36035089
37.79765726
37.52204478
36.13374524
36.5955164
36.54718025
36.79330298
37.55428326
37.39265286
37.87439196
39.10974251
38.78985268
39.41418521
40.04288052
39.88819648
43.11355478
44.13719385
43.99111173
47.9810218
45.50968856
44.46594511
42.79036473
40.70579443
39.90764466
40.25542266
39.2089489
38.71376467
38.9286959
38.19362897
37.89204306
36.13273349
36.66446882
36.61243135
36.89217574
37.75549931
37.60606476
38.11300735
39.46425272
39.20356947
39.85533298
40.54774419
40.431897
43.82834111
44.80810969
44.83853213
50.46894867
47.57044107
46.9151951
44.0689933
41.64202283
40.92298189
41.10089933
39.84578888
39.35289545
39.49896256
38.59540649
38.29416362
36.13650936
36.73590418
36.68274655
36.99134367
37.94663012
37.80456278
38.33686823
39.7956733
39.54625749
40.23939845
40.99211622
40.87847937
43.76628075
44.20228593
44.36340525
51.64660509
48.73658579
48.41315081
44.97920951