/*--------------------------------*- C++ -*----------------------------------*\
| =========                 |                                                 |
| \\      /  F ield         | OpenFOAM: The Open Source CFD Toolbox           |
|  \\    /   O peration     | Version:  v1912                                 |
|   \\  /    A nd           | Website:  www.openfoam.com                      |
|    \\/     M anipulation  |                                                 |
\*---------------------------------------------------------------------------*/
FoamFile
{
    version     2.0;
    format      ascii;
    class       volScalarField;
    location    "98";
    object      p;
}
// * * * * * * * * * * * * * * * * * * * * * * * * * * * * * * * * * * * * * //

dimensions      [0 2 -2 0 0 0 0];


internalField   nonuniform List<scalar> 
157725
(
0.9158258
0.5889171
0.5230139
0.4825212
0.4602731
0.4439654
0.4299559
0.4171203
0.4051183
0.393798
0.383058
0.3728209
0.363025
0.3536206
0.3445666
0.3358284
0.3273757
0.3191817
0.3112226
0.3034781
0.29593
0.2885617
0.2813577
0.2743054
0.267393
0.2606096
0.2539459
0.2473932
0.2409433
0.2345896
0.2283261
0.2221483
0.2160519
0.2100321
0.2040844
0.1982057
0.1923926
0.1866417
0.1809502
0.1753155
0.1697363
0.1642108
0.1587368
0.1533121
0.1479345
0.1426028
0.1373156
0.1320717
0.1268693
0.1217069
0.1165831
0.1114967
0.1064474
0.1014344
0.09645695
0.09151369
0.08660336
0.08172482
0.07687752
0.07206093
0.06727432
0.06251686
0.05778798
0.05308705
0.04841341
0.04376656
0.03914598
0.03455121
0.02998196
0.02543791
0.02091885
0.0164253
0.01195827
0.007525258
0.003120946
0.8424187
0.5875507
0.5270626
0.4874807
0.4635559
0.4457562
0.4309467
0.417757
0.4056035
0.394206
0.3834117
0.3731272
0.3632878
0.3538441
0.3447558
0.3359888
0.3275128
0.319299
0.3113231
0.3035648
0.2960064
0.2886297
0.2814186
0.2743607
0.2674438
0.2606572
0.2539911
0.2474368
0.2409852
0.234629
0.2283625
0.2221826
0.216085
0.210064
0.2041147
0.1982349
0.1924212
0.1866693
0.1809761
0.1753393
0.1697584
0.1642321
0.1587579
0.1533324
0.1479535
0.1426207
0.1373327
0.1320885
0.1268863
0.1217235
0.1165988
0.1115111
0.1064605
0.1014469
0.09646949
0.09152662
0.08661583
0.08173637
0.07688847
0.07207134
0.06728442
0.06252665
0.05779749
0.0530962
0.04842232
0.04377523
0.03915448
0.03455941
0.02998993
0.02544556
0.02092622
0.01643151
0.01195944
0.007508935
0.003095674
0.7913371
0.5908988
0.531258
0.4922258
0.467252
0.4485228
0.4330318
0.4193569
0.4068563
0.3952036
0.3842139
0.3737761
0.3638133
0.3542699
0.3451026
0.3362738
0.3277507
0.3194989
0.3114884
0.3037018
0.2961264
0.2887378
0.2815142
0.2744468
0.2675232
0.2607317
0.2540632
0.2475086
0.2410552
0.234693
0.2284192
0.2222348
0.2161366
0.2101157
0.2041632
0.1982822
0.1924689
0.1867167
0.1810196
0.1753773
0.1697929
0.1642644
0.1587904
0.1533652
0.1479836
0.1426487
0.1373595
0.1321156
0.1269148
0.1217524
0.1166248
0.111533
0.10648
0.1014641
0.09648603
0.0915454
0.08663406
0.08175291
0.07690406
0.07208646
0.067299
0.06254069
0.05781106
0.05310942
0.04843497
0.04378737
0.03916617
0.03457056
0.03000065
0.02545574
0.02093584
0.01644035
0.0119683
0.007529261
0.00317407
0.7474525
0.598007
0.5320409
0.4919717
0.4670257
0.4481417
0.4326311
0.4190591
0.4066826
0.3951212
0.3841816
0.3737598
0.363793
0.3542349
0.3450474
0.3361983
0.3276624
0.3194053
0.3113964
0.3036065
0.2960393
0.2886503
0.2814147
0.2743472
0.2674269
0.260639
0.2539726
0.2474219
0.2409797
0.2346264
0.2283538
0.2221796
0.2160912
0.210071
0.2041079
0.1982233
0.1924108
0.1866661
0.1809743
0.1753296
0.1697494
0.164227
0.1587597
0.153334
0.147943
0.1426049
0.1373136
0.1320675
0.1268679
0.1217088
0.1165859
0.1114906
0.1064399
0.1014273
0.09645269
0.09152219
0.08659857
0.08171368
0.07686354
0.07204594
0.06725872
0.06250095
0.05777161
0.05307018
0.04839602
0.04374854
0.03912721
0.03453162
0.02996155
0.02541631
0.02089599
0.01639996
0.01193023
0.007511071
0.003161889
0.7485778
0.6028638
0.5337787
0.4916266
0.4663701
0.4474549
0.4320054
0.4185557
0.4063124
0.3948641
0.3840032
0.3736302
0.3636926
0.354149
0.3449649
0.3361074
0.3275494
0.3193263
0.3113665
0.3035555
0.2960342
0.288654
0.2813718
0.274301
0.2673837
0.260596
0.2539189
0.2473474
0.2409264
0.2346136
0.2283271
0.2221591
0.2161066
0.2100915
0.204085
0.1981833
0.1923524
0.1866253
0.1809673
0.1753086
0.1697335
0.164216
0.1587831
0.1533603
0.1479281
0.1425867
0.1372904
0.1320345
0.1268154
0.1216762
0.1165794
0.1114711
0.1064235
0.1014167
0.09644067
0.09156152
0.08660086
0.08169914
0.07684714
0.07202875
0.06724176
0.06248484
0.05775596
0.05305467
0.04838086
0.04373368
0.03911213
0.03451684
0.02994652
0.02540067
0.02087982
0.01638286
0.01191038
0.007487132
0.003144361
0.7434371
0.5996655
0.5331851
0.4920933
0.4668875
0.4478971
0.4323663
0.4188378
0.4065255
0.3950228
0.3841267
0.373733
0.3637825
0.3542326
0.3450478
0.3361969
0.3276555
0.3194245
0.3113719
0.3035969
0.296058
0.2886437
0.2814182
0.274344
0.2674218
0.2606333
0.2539649
0.247413
0.2409918
0.2346102
0.2283422
0.2221656
0.2161065
0.2100653
0.2041101
0.1982184
0.1924038
0.1866773
0.1809604
0.1753219
0.1697343
0.1642194
0.1587703
0.1533322
0.147946
0.1425996
0.1373069
0.1320583
0.1268563
0.121717
0.1165698
0.1114814
0.1064249
0.1014107
0.09645873
0.09151479
0.08659653
0.08170839
0.07685544
0.07203623
0.06724842
0.06249054
0.05776128
0.05305985
0.04838568
0.04373812
0.03911664
0.03452106
0.0299508
0.02540526
0.02088444
0.01638778
0.01191697
0.007495261
0.003121542
0.7599826
0.5945488
0.5304781
0.4914081
0.4666609
0.4479193
0.4324971
0.4189547
0.4065855
0.3950332
0.3841096
0.3737095
0.3637661
0.3542299
0.3450611
0.336227
0.3276996
0.3194554
0.3114492
0.3036682
0.2960966
0.2887
0.2814737
0.2744059
0.2674826
0.2606913
0.2540215
0.2474676
0.2410249
0.2346683
0.2284006
0.2222218
0.2161278
0.2100989
0.204142
0.1982562
0.1924417
0.1866962
0.181001
0.1753613
0.1697796
0.1642554
0.1587842
0.1533523
0.1479672
0.1426284
0.1373364
0.1320892
0.1268869
0.1217304
0.1166036
0.111513
0.1064619
0.1014505
0.09647682
0.09153281
0.08661579
0.08173244
0.07688175
0.07206313
0.06727533
0.06251716
0.0577875
0.05308589
0.04841158
0.04376393
0.03914245
0.03454684
0.0299765
0.02543118
0.02091038
0.01641368
0.01194125
0.007512626
0.003151638
0.8198231
0.5878146
0.5280208
0.4888405
0.4646038
0.44647
0.4314144
0.4180745
0.4058366
0.3943881
0.3835589
0.3732459
0.363382
0.353917
0.3448104
0.3360285
0.3275421
0.3193247
0.3113476
0.30359
0.2960316
0.2886524
0.2814385
0.2743786
0.2674607
0.2606737
0.2540073
0.2474541
0.2410064
0.2346536
0.2283907
0.2222137
0.2161164
0.2100923
0.2041391
0.1982554
0.19244
0.1866895
0.1809977
0.1753624
0.1697831
0.1642579
0.1587832
0.1533546
0.1479724
0.142636
0.1373451
0.1320985
0.1268951
0.1217341
0.1166104
0.1115237
0.1064747
0.1014629
0.09648606
0.09154133
0.08662765
0.08174565
0.07689585
0.07207761
0.0672898
0.0625316
0.05780226
0.05310092
0.04842672
0.0437794
0.03915824
0.0345628
0.02999274
0.02544798
0.02092789
0.01643197
0.01195818
0.007505282
0.003070317
0.87016
0.5889713
0.5256485
0.4851911
0.4618213
0.4446273
0.4302083
0.4172354
0.4052024
0.3938803
0.3831422
0.3729043
0.3631048
0.3536952
0.3446357
0.335892
0.3274353
0.3192393
0.3112792
0.303534
0.2959847
0.2886136
0.2814067
0.2743517
0.2674369
0.2606516
0.2539867
0.2474336
0.2409847
0.2346321
0.2283697
0.2221922
0.2160947
0.2100722
0.2041212
0.1982397
0.1924247
0.1866734
0.1809819
0.1753476
0.1697685
0.1642426
0.1587672
0.1533399
0.1479594
0.142625
0.1373353
0.1320894
0.1268861
0.1217239
0.1166005
0.1115148
0.106466
0.1014535
0.09647577
0.09153099
0.08661835
0.08173783
0.07688896
0.07207111
0.06728359
0.06252548
0.05779621
0.05309486
0.04842079
0.04377353
0.03915249
0.03455724
0.02998737
0.02544274
0.02092298
0.01642862
0.01195955
0.007521966
0.003125213
0.9567222
0.5811658
0.5158678
0.4796583
0.4591919
0.4433416
0.4294211
0.4166269
0.4046742
0.3934091
0.3827238
0.3725363
0.3627837
0.3534161
0.3443932
0.3356809
0.3272502
0.3190752
0.311133
0.3034028
0.2958661
0.2885064
0.2813094
0.2742627
0.2673548
0.2605756
0.2539157
0.2473667
0.2409209
0.2345715
0.2283121
0.2221373
0.2160422
0.2100227
0.2040748
0.1981958
0.1923828
0.1866328
0.1809428
0.17531
0.1697321
0.1642071
0.1587326
0.1533069
0.1479281
0.1425951
0.1373068
0.1320619
0.1268593
0.1216973
0.1165745
0.1114895
0.1064413
0.1014291
0.09645156
0.09150734
0.08659575
0.0817162
0.07686806
0.07205085
0.06726381
0.06250609
0.05777711
0.05307609
0.04840236
0.04375546
0.0391348
0.03453987
0.02997035
0.02542598
0.02090668
0.01641283
0.01194669
0.007512832
0.00307852
0.9016253
0.575791
0.5166488
0.4823427
0.4619568
0.4455876
0.4310857
0.4178116
0.4054983
0.3939685
0.3830926
0.3727732
0.3629321
0.353505
0.3444428
0.3357065
0.3272614
0.3190765
0.3111271
0.3033933
0.2958554
0.2884951
0.2812977
0.2742517
0.2673446
0.2605647
0.2539031
0.2473528
0.2409056
0.2345539
0.2282923
0.2221167
0.2160221
0.210003
0.2040556
0.1981779
0.1923658
0.1866154
0.1809245
0.1752916
0.1697142
0.1641893
0.1587152
0.1532911
0.1479147
0.1425835
0.1372962
0.1320526
0.1268508
0.1216885
0.1165648
0.1114798
0.1064319
0.1014195
0.09644181
0.09149873
0.086589
0.08171084
0.07686356
0.07204763
0.06726181
0.0625046
0.05777559
0.0530751
0.04840209
0.04375536
0.03913454
0.03454007
0.0299713
0.02542712
0.02090735
0.01641271
0.01194252
0.007495655
0.003046106
0.783867
0.5968929
0.5323667
0.4917031
0.4674537
0.4490921
0.433566
0.4196904
0.4069917
0.3951991
0.3841331
0.3736677
0.36371
0.354188
0.3450468
0.3362425
0.3277384
0.3195029
0.3115101
0.3037377
0.2961657
0.2887763
0.2815539
0.2744854
0.2675586
0.2607619
0.254086
0.2475226
0.2410635
0.2347016
0.228431
0.222247
0.2161447
0.2101191
0.2041663
0.1982831
0.1924658
0.1867109
0.1810161
0.1753789
0.1697974
0.1642694
0.1587925
0.1533654
0.147986
0.1426524
0.1373631
0.1321173
0.1269132
0.121749
0.1166237
0.1115365
0.1064865
0.1014725
0.09649366
0.09154905
0.08663766
0.08175814
0.07690991
0.07209258
0.06730528
0.06254698
0.05781721
0.0531156
0.04844138
0.04379376
0.03917235
0.03457701
0.03000733
0.02546254
0.02094241
0.0164472
0.01197557
0.007534103
0.003144447
0.6942549
0.5987581
0.5363638
0.4962965
0.4699638
0.4504577
0.4344706
0.4204348
0.4076715
0.3958359
0.384727
0.3742148
0.3642079
0.3546372
0.3454492
0.3366005
0.3280555
0.319783
0.3117569
0.3039549
0.2963569
0.288945
0.281703
0.2746172
0.2676751
0.2608656
0.2541785
0.2476053
0.2411372
0.2347675
0.2284899
0.2222997
0.2161925
0.2101624
0.2042053
0.1983183
0.1924974
0.1867392
0.1810413
0.1754012
0.169817
0.1642868
0.1588086
0.1533796
0.1479983
0.1426631
0.1373725
0.1321252
0.1269199
0.1217544
0.1166278
0.1115394
0.106488
0.1014732
0.09649374
0.09154859
0.0866364
0.08175596
0.07690701
0.07208885
0.06730075
0.06254183
0.05781149
0.05310926
0.04843437
0.04378627
0.03916443
0.03456859
0.02999828
0.02545301
0.02093259
0.01643746
0.01197241
0.007562908
0.003193155
0.6555614
0.592407
0.5371933
0.4996425
0.4732874
0.4531331
0.436482
0.4219893
0.4089417
0.3969211
0.3856755
0.3750515
0.3649487
0.3552938
0.3460316
0.3371176
0.3285156
0.3201932
0.312123
0.3042822
0.2966524
0.2892118
0.2819435
0.2748353
0.2678738
0.2610473
0.2543458
0.2477594
0.2412796
0.2348987
0.2286112
0.2224134
0.2163
0.2102633
0.2042992
0.1984062
0.1925799
0.1868171
0.1811142
0.1754692
0.1698819
0.1643496
0.1588695
0.1534374
0.1480525
0.1427148
0.1374216
0.1321722
0.1269645
0.1217975
0.1166688
0.1115779
0.1065252
0.1015097
0.09652997
0.09158447
0.08667051
0.08178804
0.07693774
0.07211819
0.06732899
0.0625691
0.0578379
0.05313469
0.04845897
0.04381016
0.03918771
0.03459092
0.03001987
0.02547403
0.0209533
0.01645952
0.01199938
0.007600446
0.003243671
0.6076897
0.5703228
0.5256577
0.4926964
0.4695461
0.4509162
0.434783
0.4205578
0.4077236
0.3958448
0.384674
0.3740811
0.36398
0.354307
0.3450147
0.3360656
0.3274273
0.3190662
0.3109503
0.3030781
0.2954334
0.2879747
0.2806941
0.2735761
0.2666067
0.2597759
0.2530742
0.2464868
0.2400058
0.2336106
0.227321
0.2211312
0.2150288
0.2089925
0.2030368
0.1971533
0.191332
0.1855746
0.1798647
0.1742221
0.1686433
0.1631198
0.1576498
0.152218
0.1468464
0.1415161
0.1362288
0.1309879
0.1257874
0.1206281
0.115494
0.1104062
0.1053612
0.1003534
0.09538028
0.09044651
0.08553303
0.08065853
0.07581535
0.071001
0.06621661
0.06146228
0.05673644
0.05203847
0.04736776
0.04272387
0.03810627
0.03351448
0.02894793
0.02440715
0.01989111
0.01541082
0.01096137
0.006640456
0.002123445
0.6007252
0.5682189
0.5260006
0.4936425
0.4704874
0.4516933
0.4353791
0.4210332
0.4081331
0.3962103
0.385003
0.374379
0.3642502
0.3545507
0.3452317
0.3362597
0.3276049
0.3192511
0.3110878
0.3031973
0.295572
0.2880599
0.2807655
0.2736443
0.2666678
0.2598276
0.2531238
0.2465348
0.2400879
0.2336484
0.2273528
0.221174
0.2151077
0.2090169
0.2030557
0.1971834
0.1913622
0.1856406
0.1798849
0.1742404
0.1686694
0.1631523
0.1577122
0.1522162
0.1468686
0.1415405
0.1362464
0.1310071
0.1258028
0.1206811
0.1155041
0.1104149
0.1053774
0.1003797
0.09539982
0.09049058
0.08553166
0.08066676
0.07582981
0.07101426
0.06622885
0.06147452
0.05674879
0.05205054
0.04737971
0.04273555
0.03811737
0.03352512
0.02895805
0.02441676
0.01990097
0.01542169
0.01097489
0.006628536
0.002080801
0.5995705
0.568437
0.5267696
0.4942446
0.4707729
0.4517599
0.4353233
0.4209174
0.407998
0.3960795
0.3848878
0.3742842
0.3641766
0.3544967
0.3451908
0.3362359
0.3275632
0.3192409
0.3111078
0.3031953
0.2955888
0.2880892
0.2807849
0.2736563
0.2666792
0.2598368
0.2531314
0.2465081
0.2400968
0.2336775
0.2273847
0.2211608
0.2151211
0.2090469
0.2030688
0.1971862
0.1913323
0.1856478
0.1799119
0.1742578
0.1686864
0.1631288
0.1577283
0.1522493
0.1468675
0.1415375
0.1362431
0.131008
0.1257737
0.1206829
0.1155218
0.1104299
0.105381
0.1003799
0.09538094
0.09050878
0.08554841
0.08066761
0.07582919
0.07101467
0.06622919
0.06147455
0.05674878
0.0520504
0.04737944
0.04273517
0.0381169
0.03352448
0.0289571
0.02441552
0.01989927
0.01541814
0.01096608
0.006596375
0.002062743
0.6008021
0.5682073
0.5259779
0.4936357
0.4704875
0.4516952
0.4353822
0.4210366
0.4081361
0.3962128
0.3850051
0.3743804
0.3642508
0.3545508
0.3452305
0.3362624
0.327578
0.3192092
0.3111228
0.3032168
0.2955466
0.2880858
0.2807825
0.2736456
0.2666686
0.25983
0.2531268
0.2465041
0.2400452
0.2336849
0.2274115
0.2211674
0.2150648
0.2090505
0.2030753
0.197183
0.1913298
0.1855987
0.1799232
0.174277
0.168701
0.1631278
0.1576792
0.152286
0.1468651
0.1415279
0.1362435
0.1310074
0.1257729
0.1206398
0.1155375
0.1104471
0.1053922
0.1003859
0.09538225
0.0904691
0.08556867
0.08067356
0.07582573
0.07101301
0.06622891
0.06147414
0.0567482
0.05204993
0.04737896
0.04273464
0.03811637
0.03352395
0.02895657
0.02441488
0.01989859
0.0154177
0.01096601
0.006622609
0.002095623
0.6077062
0.5703172
0.5256522
0.4926992
0.4695474
0.4509127
0.4347772
0.4205514
0.407717
0.3958386
0.384668
0.3740744
0.3639715
0.3542957
0.344999
0.3360475
0.3274064
0.3190588
0.3109719
0.3031042
0.2954471
0.2879819
0.2806921
0.2735698
0.2666
0.2597662
0.2530614
0.2464722
0.2400039
0.2336353
0.2273543
0.2211513
0.2150383
0.2090016
0.2030322
0.1971415
0.1913196
0.1855721
0.1798835
0.1742446
0.1686642
0.163132
0.15766
0.1522335
0.1468417
0.1415071
0.1362203
0.1309779
0.1257743
0.1206224
0.1155073
0.1104222
0.1053753
0.100368
0.09538934
0.09044919
0.0855383
0.08065553
0.07581033
0.07099771
0.06621418
0.0614599
0.0567344
0.05203655
0.04736602
0.04272219
0.03810443
0.03351239
0.02894539
0.02440393
0.0198874
0.01540493
0.01095502
0.00662424
0.002133964
0.643359
0.5908222
0.5375518
0.5005672
0.4743111
0.4539778
0.4370275
0.4223055
0.4091146
0.397007
0.3857095
0.3750565
0.3649389
0.3552786
0.3460166
0.3371083
0.3285144
0.3202027
0.3121416
0.304304
0.296674
0.2892363
0.2819732
0.2748688
0.2679105
0.261086
0.2543878
0.2478052
0.2413307
0.2349522
0.2286628
0.2224581
0.216338
0.2102993
0.2043351
0.1984435
0.1926195
0.1868596
0.181158
0.1755104
0.169919
0.1643806
0.1588959
0.1534633
0.1480768
0.1427376
0.1374444
0.1321962
0.1269901
0.1218258
0.1166984
0.1116054
0.1065498
0.1015314
0.09654687
0.09159824
0.08668481
0.08180293
0.07695264
0.07213334
0.06734385
0.06258348
0.05785212
0.05314846
0.04847227
0.04382298
0.03919996
0.03460281
0.03003101
0.02548469
0.02096347
0.01647007
0.01201062
0.007617948
0.003242513
0.6715073
0.5963311
0.537542
0.4985928
0.4718972
0.451798
0.4353415
0.4210332
0.4081283
0.3962174
0.3850622
0.3745166
0.3644831
0.3548901
0.3456828
0.3368172
0.3282578
0.3199735
0.3119374
0.3041251
0.2965166
0.2890941
0.2818423
0.2747476
0.2677976
0.2609812
0.2542884
0.2477104
0.241239
0.2348665
0.228586
0.2223915
0.2162789
0.2102435
0.2042814
0.1983899
0.1925657
0.1868058
0.1811065
0.1754647
0.1698784
0.1643454
0.1588637
0.1534312
0.148046
0.1427071
0.1374136
0.1321641
0.1269573
0.1217915
0.1166649
0.1115758
0.1065238
0.1015078
0.09652669
0.09157925
0.08666438
0.08178196
0.07693126
0.07211159
0.06732227
0.06256217
0.05783105
0.0531279
0.04845214
0.04380327
0.03918065
0.03458392
0.03001257
0.02546654
0.02094526
0.01645004
0.01198711
0.007583195
0.003222054
0.7273818
0.5996525
0.5343105
0.4928736
0.4673627
0.4486118
0.4331049
0.4193704
0.4068158
0.3951373
0.3841531
0.3737419
0.3638173
0.3543142
0.3451819
0.3363793
0.3278729
0.3196335
0.3116356
0.3038569
0.2962779
0.2888813
0.2816522
0.274577
0.2676438
0.2608419
0.2541617
0.2475946
0.2411325
0.2347682
0.2284956
0.2223088
0.216203
0.2101736
0.2042171
0.1983303
0.1925099
0.1867531
0.1810567
0.1754181
0.1698347
0.1643046
0.1588254
0.1533952
0.1480126
0.1426761
0.1373845
0.1321364
0.1269306
0.1217655
0.1166399
0.1115522
0.1065014
0.1014867
0.09650665
0.0915604
0.08664683
0.08176566
0.07691585
0.07209699
0.06730832
0.06254904
0.05781853
0.05311604
0.0484409
0.04379266
0.03917067
0.03457453
0.03000394
0.02545844
0.02093756
0.016441
0.01196964
0.007538711
0.003139629
0.8487481
0.5862099
0.5244494
0.4859829
0.4634051
0.4462666
0.4315391
0.4181781
0.4058131
0.3942478
0.3833468
0.3730069
0.3631479
0.3537065
0.3446322
0.3358837
0.3274266
0.319232
0.3112745
0.3035321
0.2959856
0.2886179
0.2814143
0.2743615
0.267448
0.2606634
0.2539983
0.2474441
0.2409933
0.2346393
0.2283758
0.2221972
0.2160989
0.2100766
0.2041264
0.1982452
0.1924298
0.1866772
0.1809848
0.1753498
0.1697698
0.1642428
0.1587667
0.1533396
0.1479598
0.142626
0.1373367
0.1320908
0.1268868
0.1217234
0.1165993
0.1115133
0.1064641
0.1014507
0.09647215
0.09152727
0.08661533
0.08173556
0.07688706
0.07206948
0.06728194
0.06252368
0.05779414
0.05309259
0.04841835
0.04377097
0.03914988
0.03455458
0.02998473
0.02543996
0.02091992
0.01642452
0.01195156
0.007499611
0.003049988
0.8488243
0.5851376
0.5239768
0.4858693
0.4634853
0.4463936
0.4316386
0.4182569
0.4058944
0.3943238
0.3834082
0.3730675
0.3632129
0.3537583
0.3446607
0.3359041
0.3274438
0.319234
0.3112565
0.303512
0.2959672
0.2885916
0.2813761
0.274328
0.2674203
0.260631
0.2539567
0.2474086
0.2409635
0.2346054
0.2283339
0.2221625
0.2160709
0.2100463
0.2040902
0.1982172
0.1924083
0.1866531
0.1809544
0.1753268
0.1697527
0.1642233
0.1587418
0.1533228
0.1479494
0.1426139
0.1373196
0.1320812
0.1268823
0.1217158
0.1165857
0.1115061
0.1064613
0.1014449
0.09646075
0.09152291
0.08661596
0.08173397
0.07688061
0.0720701
0.06728712
0.06252621
0.05779129
0.05309618
0.04842588
0.0437755
0.03914887
0.03455971
0.02999351
0.02544563
0.02092016
0.01643072
0.01196132
0.007505476
0.003048435
0.7072287
0.5943258
0.533529
0.4940796
0.4691395
0.4503123
0.434501
0.4204484
0.407631
0.3957454
0.3846003
0.3740724
0.3640639
0.3544973
0.3453154
0.3364799
0.3279504
0.3196916
0.3116766
0.3038887
0.2963044
0.2889026
0.2816671
0.2745905
0.2676569
0.2608526
0.2541675
0.247599
0.2411361
0.2347693
0.2284925
0.2223058
0.2162013
0.2101723
0.2042142
0.1983291
0.1925105
0.1867533
0.1810543
0.1754167
0.1698349
0.164305
0.1588246
0.1533971
0.1480175
0.1426825
0.13739
0.132144
0.1269398
0.1217745
0.1166465
0.1115597
0.1065102
0.1014955
0.09651408
0.09156961
0.08665864
0.0817785
0.0769279
0.07211104
0.06732433
0.06256548
0.05783349
0.05313228
0.0484586
0.04381042
0.03918684
0.03459182
0.03002253
0.02547702
0.02095422
0.01645819
0.01198686
0.007560812
0.003168646
0.6101324
0.5716825
0.5256846
0.4926896
0.4697485
0.451142
0.434941
0.4206072
0.4076433
0.3956469
0.384396
0.3737647
0.3636569
0.3539961
0.3447266
0.3358065
0.327198
0.3188683
0.3107916
0.3029469
0.2953126
0.2878682
0.2805987
0.2734909
0.2665307
0.2597053
0.2530051
0.2464218
0.2399469
0.2335713
0.2272898
0.221098
0.21499
0.2089596
0.2030028
0.1971177
0.1912992
0.1855437
0.1798487
0.174213
0.1686336
0.1631076
0.157633
0.1522092
0.1468333
0.1415029
0.1362167
0.1309749
0.1257744
0.120614
0.1154922
0.1104094
0.105364
0.1003542
0.09537918
0.09043947
0.08553252
0.08065695
0.07581267
0.07099986
0.06621699
0.06146264
0.0567366
0.0520392
0.04736924
0.04272541
0.03810745
0.03351617
0.02895014
0.02440883
0.01989107
0.01540756
0.01095279
0.006624491
0.002168704
0.5865412
0.5613788
0.5245174
0.4947334
0.4725752
0.4540018
0.4375215
0.4228547
0.4096148
0.3973974
0.3859586
0.3751627
0.3649112
0.3551246
0.3457433
0.3367217
0.3280216
0.3196104
0.3114605
0.3035488
0.295855
0.288358
0.2810411
0.2738902
0.266892
0.2600335
0.2533039
0.2466937
0.2401944
0.2337982
0.2274983
0.22129
0.2151679
0.2091249
0.2031564
0.1972602
0.1914318
0.1856679
0.1799651
0.174322
0.1687363
0.1632053
0.1577265
0.1522978
0.1469168
0.1415825
0.1362929
0.1310473
0.1258429
0.1206794
0.1155549
0.110469
0.1054209
0.1004097
0.09543324
0.09049164
0.0855825
0.08070486
0.07585908
0.07104423
0.06625946
0.06150372
0.05677638
0.05207724
0.04740561
0.04276053
0.03814143
0.03354863
0.0289812
0.02443997
0.01992406
0.01544844
0.01099464
0.006677204
0.001999065
0.5719229
0.5529723
0.5219729
0.4947138
0.4735115
0.4554605
0.4391921
0.4245229
0.411199
0.3988732
0.3873132
0.3763912
0.3660164
0.3561142
0.3466263
0.3375074
0.3287193
0.3202297
0.3120103
0.3040374
0.2962913
0.2887479
0.2813885
0.2742005
0.26717
0.2602835
0.2535298
0.2468971
0.2403781
0.2339642
0.2276493
0.2214286
0.2152969
0.2092445
0.203266
0.1973611
0.1915241
0.1857526
0.1800434
0.1743939
0.1688038
0.163269
0.1577882
0.152356
0.1469709
0.1416331
0.1363407
0.1310924
0.1258847
0.1207183
0.1155914
0.1105029
0.105453
0.1004409
0.09546375
0.09052223
0.08561147
0.08073131
0.07588378
0.07106761
0.06628138
0.06152462
0.05679635
0.05209607
0.04742331
0.04277722
0.0381572
0.0335633
0.02899508
0.02445391
0.01993937
0.01546763
0.01101363
0.006705583
0.001968633
0.5635649
0.5475876
0.5193086
0.4935427
0.4732703
0.4558432
0.4399677
0.4255381
0.4123537
0.4000837
0.3885102
0.3775272
0.3670649
0.3570635
0.3474742
0.3382581
0.3293797
0.3208096
0.312515
0.3044795
0.296684
0.289093
0.2816957
0.2744753
0.2674163
0.2605058
0.2537328
0.247081
0.2405489
0.2341174
0.227791
0.2215622
0.2154248
0.2093589
0.203374
0.1974646
0.1916186
0.185844
0.1801262
0.1744721
0.16888
0.1633417
0.1578602
0.1524197
0.1470337
0.1416929
0.1363964
0.131146
0.1259336
0.1207685
0.115636
0.1105456
0.1054958
0.1004825
0.09550309
0.09056405
0.08564705
0.08076593
0.07591791
0.07109979
0.06631178
0.06155383
0.05682457
0.05212302
0.04744899
0.04280169
0.03818058
0.03358555
0.02901642
0.02447493
0.0199613
0.01549283
0.01104227
0.00674612
0.001980471
0.5589687
0.5446065
0.5181682
0.4933812
0.4735967
0.4564025
0.44061
0.4262011
0.4130172
0.4007328
0.3891297
0.378106
0.3675963
0.3575444
0.347904
0.3386392
0.3297105
0.3211194
0.3127792
0.3047084
0.2969078
0.2892666
0.2818464
0.2746124
0.2675393
0.2606144
0.2538344
0.2471585
0.240648
0.2341936
0.2278582
0.2216245
0.2155128
0.2094072
0.2034162
0.1975156
0.1916499
0.185904
0.1801664
0.1745066
0.1689179
0.1633745
0.1579215
0.1524409
0.1470588
0.1417216
0.1364218
0.1311758
0.1259421
0.1208098
0.1156586
0.1105644
0.1055173
0.1005067
0.09551817
0.09060906
0.08565636
0.08077684
0.0759345
0.07111593
0.06632653
0.06156802
0.05683845
0.05213643
0.04746177
0.04281391
0.03819211
0.03359646
0.0290268
0.02448488
0.0199715
0.01550349
0.01105303
0.006757012
0.001985934
0.5577791
0.5440646
0.5181725
0.493504
0.4736898
0.4564689
0.440663
0.4262536
0.4130818
0.4008154
0.3892288
0.3782164
0.3677116
0.3576591
0.3480127
0.3387399
0.3298002
0.3212178
0.312862
0.3047652
0.2969766
0.2893292
0.281895
0.2746534
0.2675764
0.2606464
0.2538611
0.2471776
0.2406952
0.2342234
0.2278842
0.2216246
0.2155391
0.2094329
0.2034301
0.197525
0.1916547
0.1859418
0.1801865
0.1745186
0.1689334
0.1633652
0.1579425
0.1524609
0.1470638
0.1417268
0.1364277
0.1311816
0.1259417
0.1208416
0.1156709
0.1105721
0.1055221
0.1005158
0.09550705
0.09062711
0.08566665
0.08077903
0.07593785
0.07112096
0.06633141
0.06157243
0.05684265
0.05214045
0.04746555
0.04281742
0.0381954
0.03359943
0.02902948
0.02448717
0.01997342
0.01550329
0.01105008
0.006733555
0.00199009
0.5589833
0.5446209
0.5181791
0.4933887
0.4735986
0.4563996
0.4406044
0.426194
0.4130091
0.4007242
0.3891211
0.3780973
0.3675876
0.3575356
0.3478948
0.3386311
0.3297064
0.3211195
0.3127873
0.3046994
0.2968951
0.2892789
0.2818504
0.2746101
0.2675377
0.2606137
0.2538299
0.2471626
0.2406598
0.234209
0.2278754
0.2216081
0.2154931
0.2094247
0.2034223
0.1975077
0.1916542
0.1859175
0.1801829
0.1745177
0.1689277
0.1633546
0.1579051
0.1524655
0.1470568
0.1417148
0.1364204
0.1311704
0.1259475
0.1208218
0.1156719
0.1105734
0.1055196
0.1005114
0.09550207
0.09059301
0.08567064
0.08077838
0.07593087
0.0711148
0.06632645
0.06156754
0.05683775
0.05213577
0.04746102
0.042813
0.03819123
0.03359527
0.02902534
0.02448301
0.01996917
0.01549892
0.0110483
0.006737422
0.002007793
0.5635724
0.5475895
0.5193111
0.4935451
0.4732684
0.4558368
0.4399587
0.4255276
0.4123422
0.400072
0.3884986
0.3775156
0.367053
0.3570511
0.3474612
0.3382454
0.3293696
0.3208086
0.3125245
0.3044875
0.2966875
0.2890958
0.2816942
0.2744728
0.2674149
0.2605043
0.2537308
0.2470829
0.2405603
0.2341369
0.2278083
0.2215693
0.2154284
0.2093654
0.203374
0.197462
0.191622
0.1858565
0.1801446
0.174487
0.1688905
0.1633456
0.1578639
0.1524264
0.1470303
0.1416885
0.1363943
0.1311438
0.1259351
0.1207775
0.1156501
0.1105561
0.1055023
0.1004881
0.09550373
0.09056201
0.08564789
0.0807631
0.07591471
0.0710983
0.06631086
0.06155258
0.05682328
0.05212179
0.0474476
0.04280017
0.03817901
0.03358355
0.02901398
0.02447179
0.01995768
0.01548644
0.01103656
0.006724779
0.002002846
0.5719369
0.5529805
0.5219738
0.4947107
0.473505
0.4554509
0.4391807
0.4245105
0.4111859
0.3988598
0.3872999
0.3763779
0.366003
0.3561009
0.3466136
0.3374961
0.328711
0.3202268
0.3120128
0.3040407
0.2962919
0.2887476
0.2813891
0.2742017
0.2671717
0.2602859
0.2535334
0.2469041
0.2403909
0.233982
0.2276676
0.221443
0.2153062
0.2092514
0.203272
0.1973669
0.1915323
0.1857656
0.1800602
0.1744105
0.1688185
0.1632802
0.1577953
0.1523613
0.1469738
0.1416342
0.1363412
0.131093
0.1258872
0.1207252
0.1156014
0.1105127
0.1054616
0.1004479
0.09546748
0.09052207
0.08561076
0.08073048
0.07588275
0.07106647
0.06628019
0.06152314
0.05679495
0.05209441
0.04742135
0.04277487
0.03815476
0.03356037
0.02899162
0.02444971
0.01993473
0.01546038
0.01100738
0.006683645
0.001987815
0.5865445
0.5613751
0.5245083
0.494722
0.4725619
0.4539869
0.4375062
0.4228388
0.4095979
0.3973804
0.3859422
0.3751466
0.364895
0.3551091
0.3457292
0.3367093
0.3280118
0.3196045
0.3114589
0.3035499
0.2958567
0.2883608
0.2810452
0.2738951
0.2668972
0.26004
0.2533122
0.2467044
0.2402082
0.2338147
0.2275162
0.2213069
0.2151827
0.2091386
0.2031696
0.1972726
0.1914446
0.1856821
0.1799811
0.174338
0.1687511
0.1632183
0.1577376
0.1523071
0.1469242
0.141588
0.1362975
0.1310514
0.1258475
0.1206854
0.1155624
0.1104766
0.1054279
0.1004156
0.09543766
0.09049418
0.08558407
0.08070576
0.07585895
0.07104348
0.0662582
0.06150208
0.05677475
0.05207519
0.04740316
0.04275774
0.03813867
0.03354528
0.02897734
0.02443532
0.01991924
0.01544138
0.01098854
0.006656945
0.002015996
0.6101269
0.5716731
0.5256731
0.492676
0.4697316
0.4511241
0.4349238
0.4205888
0.4076224
0.3956263
0.384377
0.3737457
0.3636373
0.3539781
0.3447114
0.3357929
0.3271865
0.3188608
0.3107889
0.3029469
0.2953139
0.2878721
0.280605
0.273498
0.2665387
0.2597153
0.2530175
0.246436
0.2399626
0.2335897
0.22731
0.2211181
0.215009
0.208978
0.203021
0.1971345
0.1913154
0.1855602
0.1798662
0.1742302
0.1686497
0.1631228
0.1576474
0.1522214
0.1468432
0.1415113
0.1362243
0.1309812
0.1257801
0.12062
0.1154991
0.1104161
0.1053702
0.10036
0.09538457
0.09044305
0.08553457
0.0806582
0.07581335
0.07099937
0.06621546
0.06146086
0.05673491
0.05203683
0.04736612
0.04272217
0.03810441
0.03351241
0.02894553
0.02440389
0.01988629
0.01540087
0.01094671
0.006608092
0.002180301
0.6675744
0.5955699
0.536758
0.4982223
0.4722835
0.4524059
0.4357909
0.4212402
0.4081246
0.3960613
0.3848117
0.3742183
0.3641686
0.3545792
0.345387
0.3365428
0.3280066
0.3197458
0.3117324
0.3039424
0.2963551
0.2889523
0.2817182
0.2746388
0.2677019
0.2608964
0.2542127
0.2476419
0.2411762
0.2348085
0.2285326
0.2223428
0.2162346
0.2102033
0.204245
0.1983564
0.1925341
0.1867752
0.181077
0.1754365
0.1698514
0.1643195
0.1588391
0.153408
0.1480247
0.1426875
0.1373949
0.1321462
0.1269392
0.1217732
0.1166465
0.111558
0.1065064
0.1014908
0.09651009
0.09156329
0.08664963
0.0817683
0.07691835
0.07209932
0.06731043
0.06255082
0.05781996
0.05311711
0.04844162
0.04379305
0.03917082
0.0345743
0.03000324
0.02545731
0.02093577
0.01644001
0.01197199
0.007567301
0.003191775
0.7736014
0.5940049
0.5318989
0.4922527
0.4681887
0.4497037
0.4340199
0.4200215
0.4072415
0.3953982
0.3843004
0.3738132
0.3638383
0.3543025
0.3451496
0.3363348
0.3278218
0.3195797
0.3115822
0.3038062
0.2962315
0.2888404
0.2816171
0.2745477
0.2676199
0.2608228
0.2541467
0.2475827
0.2411233
0.2347615
0.228491
0.2223063
0.2162026
0.2101755
0.204221
0.1983357
0.1925165
0.1867601
0.1810641
0.1754257
0.1698426
0.1643126
0.1588339
0.1534043
0.1480225
0.1426868
0.1373955
0.1321476
0.1269416
0.1217762
0.1166502
0.1115623
0.1065114
0.1014964
0.09651629
0.09157011
0.08665706
0.08177633
0.07692697
0.07210843
0.06731993
0.06256071
0.0578302
0.05312771
0.04845257
0.04380433
0.03918247
0.03458637
0.03001574
0.02547008
0.02094911
0.01645243
0.01197783
0.007530762
0.003138343
0.9089607
0.5764049
0.5172094
0.4825038
0.4617762
0.4452475
0.430726
0.4175008