/*--------------------------------*- C++ -*----------------------------------*\
| =========                 |                                                 |
| \\      /  F ield         | OpenFOAM: The Open Source CFD Toolbox           |
|  \\    /   O peration     | Version:  v1912                                 |
|   \\  /    A nd           | Website:  www.openfoam.com                      |
|    \\/     M anipulation  |                                                 |
\*---------------------------------------------------------------------------*/
FoamFile
{
    version     2.0;
    format      ascii;
    class       volScalarField;
    location    "2.16";
    object      k;
}
// * * * * * * * * * * * * * * * * * * * * * * * * * * * * * * * * * * * * * //

dimensions      [0 2 -2 0 0 0 0];


internalField   nonuniform List<scalar> 
12556
(
36.90868749
36.9087289
36.90877506
36.90879836
36.95438175
36.9546209
36.95505001
36.9561604
36.95850111
36.962986
36.97043491
36.980403
36.98963633
36.99393375
36.99198461
36.98433268
36.97477676
36.96638637
36.96090418
36.95731356
36.91095894
36.90949746
36.90880717
36.90842419
36.72744025
36.72763075
36.72780674
36.72808067
36.77345231
36.7746895
36.77742552
36.80421052
36.81507483
36.83581388
36.87031466
36.91711483
36.96322248
36.9898652
36.98286771
36.9474239
36.90183794
36.86089673
36.81108223
36.79092036
36.73605781
36.73115793
36.72876915
36.72766901
36.54732579
36.54776509
36.54818192
36.54864754
36.59457344
36.59783848
36.60455727
36.6382591
36.66515411
36.71527762
36.80111299
36.90935005
36.98654323
37.02409985
37.01312905
36.95632053
36.86575196
36.77356556
36.6825454
36.63786172
36.56905781
36.55819122
36.55293745
36.55082958
36.36863435
36.36903798
36.36963843
36.37091487
36.41729366
36.42433574
36.43883598
36.4866758
36.54328032
36.66168889
36.83502603
37.00320209
37.10832372
37.14197643
37.10907449
37.0259688
36.89899087
36.75418869
36.59572475
36.50911668
36.41335937
36.39261047
36.38238377
36.37835261
36.19191652
36.19234433
36.19329923
36.19572963
36.24385359
36.25625543
36.28269504
36.35287358
36.47465613
36.70542145
36.98641495
37.24432435
37.41494241
37.42122599
37.32703264
37.18279246
37.00577157
36.7992714
36.57725162
36.41507976
36.2742937
36.23470896
36.21618764
36.20896715
36.01692608
36.0174408
36.01903105
36.02346072
36.07474606
36.09599093
36.14329499
36.2489305
36.47797835
36.83981526
37.30592065
37.79386399
38.10760945
38.04189917
37.75681782
37.47653346
37.20629278
36.91799782
36.60523062
36.36398351
36.15241131
36.08344401
36.05278354
36.04064192
35.84437384
35.8452222
35.84796996
35.85502913
35.91038202
35.94369135
36.0198302
36.18157563
36.5305323
37.07348179
37.85460022
39.01715174
39.79063033
39.60167584
38.5548513
37.96179911
37.52239838
37.11268234
36.6772634
36.36005053
36.04833972
35.93905588
35.89084015
35.87178571
35.6747354
35.67610074
35.68046772
35.69135584
35.75255909
35.80133463
35.91397774
36.14300827
36.60855266
37.36125551
38.59137045
41.10484289
42.23365917
39.88558121
38.65894222
37.96146309
37.38289464
36.79239864
36.37889343
35.96210292
35.80199715
35.73058606
35.70264669
35.50941081
35.5117129
35.51853365
35.53410959
35.60299916
35.67034726
35.82506892
36.12400627
36.70225106
37.65319701
39.24457458
42.91137843
46.55918446
41.55910381
39.51658436
38.48483125
37.70887456
36.93768591
36.41438705
35.89304447
35.67452493
35.57499996
35.53638809
35.34905208
35.35241183
35.36197055
35.38359504
35.4629147
35.55044419
35.75011414
36.11453553
36.79656677
37.90833447
39.70873152
43.69507118
49.67217259
43.10425062
40.40485536
39.05861436
38.06339135
37.09789009
36.46050049
35.83972592
35.5601069
35.42936087
35.37852664
35.19509366
35.19999565
35.21322064
35.24320724
35.33026075
35.44089121
35.68586349
36.11226681
36.89378195
38.13939641
40.09181541
43.68501127
51.23548653
44.28814436
41.24629532
39.62529366
38.41314775
37.25468537
36.5123753
35.79898733
35.46170139
35.29899474
35.23502813
35.04732337
35.05359693
35.07031298
35.10883918
35.20476938
35.33997697
35.62839389
36.11531018
36.99156629
38.36052448
40.4627013
43.27396263
51.90358866
45.13221362
41.96675471
40.13254938
38.72019231
37.39380582
36.56301682
35.77145676
35.37973853
35.18693581
35.10974058
34.9064941
34.91463362
34.93643047
34.98464297
35.0854839
35.24526268
35.57416082
36.12173982
37.09001456
38.58125667
40.86802906
42.70743182
47.79810682
51.69968807
45.72551867
42.52941593
40.56778959
38.96624056
37.50513257
36.60529851
35.74890333
35.31271955
35.09238088
35.00304821
34.77129853
34.78124974
34.80780451
34.86396126
34.97706591
35.16817748
35.54375042
36.14298411
37.21311345
38.85114218
41.33337117
41.37005321
55.98629718
51.65929812
46.0956475
43.01176921
40.88323677
39.12750604
37.58653835
36.63498516
35.72411692
35.25532563
35.01143709
34.91153788
34.64139648
34.65308332
34.68407643
34.74773684
34.86969482
35.08369531
35.4871808
36.10953203
37.21699628
38.93839724
41.61201871
37.40632128
55.47130056
51.24220095
46.33904788
43.31122751
41.08589187
39.21060344
37.63079962
36.64921113
35.69449688
35.20128562
34.93825589
34.82997093
34.51451497
34.52787039
34.56288698
34.63381379
34.76487643
34.99815244
35.42643889
36.04528971
37.13904612
38.84995082
41.47076789
33.92034824
53.38220544
50.83845544
46.5791164
43.53868212
41.15542824
39.22356627
37.63776221
36.64132344
35.65129656
35.14230036
34.86660115
34.75173562
34.39057662
34.40544486
34.44377031
34.52096478
34.66028264
34.90931258
35.35905795
35.97692725
37.00432383
38.60931156
40.94902558
36.58356038
49.85816293
50.60476915
46.69244547
43.5619231
41.07855881
39.18623687
37.60958455
36.60074405
35.59464727
35.07761342
34.79181761
34.67193736
34.2666613
34.28288699
34.32403731
34.40700847
34.55425086
34.81573162
35.28196449
35.91612095
36.88973374
38.33661718
40.37054706
38.4922543
42.2878203
50.06244959
46.52150292
43.30756442
40.87446261
39.07315182
37.52709555
36.52561223
35.51737117
34.99835281
34.70926859
34.58592393
34.1439481
34.16131488
34.20455869
34.29194621
34.44554589
34.71667236
35.19500799
35.84069584
36.82313169
38.19133278
39.94341406
38.38539836
34.48428048
48.86873545
45.95935111
42.90187279
40.62731329
38.91045761
37.40940671
36.42430054
35.42374989
34.90751768
34.61750381
34.49262709
34.01898959
34.03732845
34.08237024
34.17389511
34.33358686
34.6120759
35.09891949
35.75148714
36.73865101
38.09766016
39.65816009
36.98211674
33.44638741
47.66214345
45.30826793
42.50736458
40.36471961
38.72126412
37.26743821
36.3027049
35.31492922
34.80421235
34.51505477
34.38951588
33.89494327
33.91403373
33.96023972
34.05440331
34.2181852
34.50233315
34.99488901
35.6509663
36.63817799
37.97533109
39.31512066
35.36664669
33.21705347
46.56123658
44.70474608
42.13288358
40.10025508
38.51956805
37.10947064
36.16599294
35.19470541
34.69176504
34.40472804
34.27914998
33.76710746
33.78682941
33.83420394
33.93130932
34.09962874
34.38811774
34.88428246
35.54152727
36.52575776
37.83002593
38.92687881
33.80972883
32.99375016
45.55345017
44.13991019
41.7791851
39.84067034
38.31326137
36.94168777
36.01851553
35.06402377
34.56918749
34.28468505
34.15941252
33.64137828
33.66154408
33.70954163
33.80794667
33.97831257
34.27028839
34.76852533
35.42529238
36.40437596
37.66579126
38.50664499
32.33288566
32.71246205
44.63230914
43.60778376
41.44335377
39.58907146
38.10691316
36.76850357
35.86378176
34.92752594
34.44175641
34.16016779
34.035403
33.5103951
33.5309629
33.57988805
33.68073973
33.854909
34.14973654
34.64897232
35.30415393
36.27625332
37.48501506
38.06056705
30.94354715
32.35691196
43.77903383
43.10351401
41.12211762
39.34618683
37.90312744
36.59299429
35.70459152
34.78421268
34.30632357
34.02733748
33.90310447
33.38406021
33.4048784
33.45416428
33.55541135
33.72988022
34.02728537
34.5268429
35.17977274
36.14298697
37.28835262
37.59740577
29.64313273
31.94173026
42.97986262
42.62309341
40.81316554
39.11151263
37.70326224
36.41724037
35.54298579
34.63980005
34.17057814
33.89431541
33.77062785
33.25019552
33.27129896
33.32151052
33.42534166
33.60394309
33.90362905
34.40313995
35.0534394
36.00543037
37.07666785
37.12408755
28.40990093
31.47846294
42.22519006
42.16319655
40.51484165
38.88416014
37.50782737
36.24255057
35.38050626
34.48996998
34.02716955
33.75300111
33.6297474
33.1251025
33.14636161
33.19681949
33.3003304
33.47735444
33.77934337
34.27865633
34.92606841
35.8638346
36.85184398
36.64464152
27.25535051
30.98508606
41.50794804
41.72115854
40.22587287
38.66330628
37.3168919
36.06973057
35.21812185
34.34334501
33.88843765
33.61656052
33.49370647
32.98837568
33.00988563
33.06138112
33.1680739
33.3508252
33.65487814
34.15396623
34.79821458
35.71816224
36.6166383
36.16200849
26.1878421
30.48031877
40.82559601
41.29483644
39.94514524
38.44821112
37.13027615
35.89920691
35.05663522
34.19005885
33.73968879
33.46932203
33.34672008
32.86687233
32.88851169
32.94022596
33.04587705
33.22427168
33.53060048
34.02950554
34.67019269
35.56842838
36.37265308
35.67849068
25.20771585
29.97975134
40.17448629
40.88260268
39.67172403
38.23825269
36.94772304
35.73119979
34.89635006
34.04535997
33.60233831
33.33385468
33.21147997
32.72645377
32.74836154
32.80125171
32.91097905
33.09854374
33.40682934
33.90560167
34.54214306
35.41478953
36.12173522
35.19579836
24.31315842
29.49439873
39.55213
40.48302255
39.40477918
38.03286551
36.7689245
35.56578954
34.73778971
33.88907575
33.44858515
33.18113992
33.05885376
32.61158436
32.6336358
32.68680608
32.79478564
32.97311767
33.28382496
33.78251241
34.41411036
35.25755273
35.8660061
34.71531231
23.49881263
29.03103347
38.95715836
40.09506531
39.14360596
37.83155517
36.59357948
35.40299597
34.58083811
33.75043869
33.31707046
33.05113007
32.92892899
32.46530846
32.4876804
32.54211959
32.6550239
32.84926914
33.16186261
33.66046429
34.28609929
35.0971151
35.60738165
34.23819922
22.75784061
28.59340557
38.38894713
39.71795602
38.88764646
37.63391111
36.42142669
35.24281368
34.42609818
33.58876534
33.15612876
32.89095978
32.76872684
32.36135588
32.38390097
32.43879859
32.54975278
32.72583696
33.04120971
33.53964832
34.15809981
34.93389297
35.34609306
33.76536115
22.0836863
28.18275469
37.84604716
39.35085449
38.63643234
37.43955543
36.25215397
35.08527113
34.27308397
33.46236448
33.03635808
32.77224186
32.65000229
32.20512967
32.22807146
32.28425472
32.39985826
32.60523165
32.92239724
33.4204191
34.03011669
34.76831428
35.08262529
33.29768705
21.47288791
27.79935681
37.32735532
38.99352711
38.38963612
37.24820867
36.08558325
34.93069616
34.12315643
33.28824195
32.86271993
32.59937902
32.47702015
32.11798513
32.14115274
32.19803029
32.3138076
32.4858293
32.80642787
33.30381728
33.90215779
34.60075806
34.81760322
32.83648831
20.92726629
27.44345115
36.83271577
38.64578281
38.14702831
37.05965018
35.92153273
34.78035601
33.97628144
33.18562874
32.7633749
32.50051249
32.37809059
31.91935573
31.94313615
32.00181776
32.12238599
32.37397591
32.69591136
33.19344966
33.77460055
34.43226407
34.55366299
32.38631465
20.43944214
27.11616199
36.36602545
38.31032698
37.90946108
36.8741522
35.75999987
34.63839475
33.83821229
32.96145651
32.54043656
32.27836562
32.15574035
42.76777937
47.03142955
42.58691802
43.64375003
50.49738582
47.47060371
43.71966756
52.16693669
50.79234457
43.33870654
52.84023275
52.27998261
42.7468307
43.4321274
46.84709147
53.12547786
52.87870696
41.82294054
53.29072501
43.83928339
55.66418278
53.5955806
53.14834945
40.78530387
39.72518991
42.1530322
39.54036611
50.12426767
44.00434951
46.06807315
41.93092992
40.3836957
39.60451434
42.78961493
42.07220197
55.01937513
55.87877791
49.38243674
43.85440452
42.45319455
40.00014765
43.1601068
42.8681527
43.77489234
45.33697709
46.235038
54.31178608
53.80679533
51.10862742
45.25987514
44.26789656
40.38103098
43.08387728
43.16464702
43.55599603
42.02519524
43.83715301
55.4576509
54.81690443
40.77418929
42.83659385
43.06384587
43.04674388
37.60500202
39.86668326
39.5174768
56.1066959
55.897419
41.246546
42.3293427
42.79234687
42.39088643
32.2097949
34.55045041
40.3269601
54.464124
53.61796994
46.69521181
48.3061978
43.11645553
46.33607795
55.74101264
50.43488754
45.07519398
49.57229649
54.41744801
46.34659488
47.03102222
43.3761276
47.61308505
46.41989415
48.3669935
47.75214391
53.86653593
54.86848183
49.16536962
55.59695036
55.02722829
54.64074218
55.65125191
48.92956214
44.01141314
45.18593514
43.7739768
44.88522774
43.21463443
46.34260342
44.98851573
54.69790496
54.38392771
51.70529178
55.48950638
55.68195036
54.99917624
55.44280477
51.51966044
39.99210687
41.91131609
43.50654657
41.03524531
38.69394726
43.10190609
41.16459761
55.86377865
55.52230613
34.69431877
37.44115403
43.01273269
40.03862172
35.66489975
32.84801418
38.55909946
35.85975661
40.60160841
56.37552189
56.13430103
39.51890373
39.85644421
32.14885044
42.34443575
50.26822954
31.8897165
72.86609934
32.76746442
31.8934236
49.61014813
39.10245997
41.94089013
40.49535188
41.97454068
45.44312448
42.74341892
59.50434599
46.24490341
43.27884303
47.11191469
47.23717472
45.13530179
51.86537258
46.16761245
45.54231458
50.55834451
50.11737013
48.79017016
52.70495704
56.65271377
56.45392869
47.09157603
45.72242442
42.21156906
53.22500795
44.91773177
51.36217447
43.63527534
48.69274672
44.48272105
48.41047004
44.8974053
52.64061414
55.8158712
55.92692121
55.69585365
55.80208635
52.57211561
40.00902849
45.26573451
46.16617903
41.257506
40.85938192
42.71511599
43.5567854
41.33783754
41.31622486
63.47981047
47.35323772
59.1375828
45.50539723
56.09218526
46.57099219
56.03458857
56.10389361
54.0003556
53.96860335
41.18299896
43.5134137
55.22671476
41.54786192
43.52313905
44.83039547
41.58938422
55.15034358
38.83328335
42.61846684
42.28553201
52.61168023
50.84330981
46.44693733
33.62737639
40.52238725
40.04037754
41.13246793
40.69409475
33.7855407
56.97421324
53.62900993
47.50830952
53.90433709
54.83325575
50.04081736
53.60984307
47.72927162
44.59068548
49.27668852
44.36385656
54.17292959
49.95828585
45.09521532
51.97332397
56.80960294
53.67422193
53.29305952
47.05050968
43.48104248
46.97411718
48.2186754
46.59351607
49.54924301
43.84363299
46.20170422
48.11931603
54.44301455
54.53386156
55.309838
52.89771557
52.29076614
53.51375337
53.06881497
55.26620762
55.65643077
50.9607173
49.95891951
52.0601134
51.25905078
55.72026779
44.12643312
44.01845905
45.75495434
45.6693441
54.82770856
45.34451476
54.77481945
40.10859024
39.9485962
42.19658185
42.06503929
44.03169348
47.73875445
55.69035659
44.22686917
41.2424078
36.37786972
41.68181856
41.27581857
42.1700263
41.80876239
36.51599187
39.63731327
34.82526246
34.70641001
37.61367769
37.4780144
51.69018798
41.3485805
54.286402
53.10062746
39.85506527
39.40527619
31.8351693
33.20248019
41.39502828
41.01486021
32.36432501
64.02483874
41.21543062
56.61004974
32.28887097
47.12711724
43.26403687
40.40373927
57.8673448
39.85393004
40.1130962
41.56888854
41.88173313
42.24121909
40.87459187
33.24589217
41.02860733
55.97589574
53.02262991
53.52438084
51.63360367
40.34435031
42.52031967
55.3462961
54.59801047
42.16609468
56.75046639
56.69699719
53.17729053
42.84558341
42.31446192
44.54903911
45.51981283
42.6029422
42.84749682
55.53211305
58.00759811
57.13274049
56.13274127
54.1173111
45.97005868
46.41708094
48.60336859
47.86187154
53.72954903
42.83886117
44.07862106
43.83690898
44.38054133
44.15629681
42.97046101
43.02924553
42.72333874
38.96505659
32.54701934
37.27100198
36.86104602
65.33707165
49.14576945
53.97461956
55.0242735
58.89001114
58.22707495
51.9150548
47.9481436
46.57624886
49.58861007
48.38139463
52.26382622
54.08214851
49.76120486
48.92559468
54.62696292
44.53819174
44.64674142
44.4510232
39.85507409
40.33592439
43.56587471
46.66516109
46.98966529
54.55066779
55.59737494
54.37296555
54.26122513
55.04581903
53.93951238
53.6338329
54.21548203
54.01782491
55.06070784
40.96484223
43.4057677
43.12632927
43.75356365
43.49524082
41.09364449
40.64758873
35.64131087
35.94061978
33.4628057
33.66275569
39.15280496
42.72512433
39.090416
39.71958624
36.05883227
36.39059077
41.55107895
55.73329096
48.25071883
51.5754742
55.22678778
39.4446799
35.2662482
33.58224951
38.15718859
33.17458858
33.39554171
32.68955954
36.76054071
47.07651566
39.03955933
38.16060411
37.39461456
36.72815313
36.33747488
32.02945354
40.48118135
42.03435295
52.03790214
31.90411755
82.15648914
42.99543401
41.57461267
46.76795788
32.59456119
31.95815479
53.63937594
52.52328401
52.65501031
45.41484256
45.48285953
40.63549335
39.91181305
50.7711482
51.43154422
51.33887957
47.31813789
55.62161719
47.3558488
56.02396602
48.10731727
42.27799548
40.46945684
46.57745627
44.54693952
47.77340313
45.21587387
40.41458364
41.16922583
46.57072307
55.5150181
40.42129041
44.48543882
61.19902902
39.49663071
39.94046118
39.7548519
39.50716531
54.48063333
64.10543287
53.59544354
50.2733483
57.19867305
54.33322468
49.63595664
46.86413623
51.46827547
55.49968288
55.00899345
55.72364503
56.16192199
56.84633069
55.86535672
46.73506833
46.10967351
54.06173961
46.75614844
47.23307835
45.43775571
46.48958724
47.40203222
53.77294754
47.73484715
46.95570039
41.25456014
41.49755866
41.86120693
51.36512219
50.61289707
42.84364379
49.06097493
47.80705135
50.31561807
49.45310969
42.39652675
40.98360412
42.74730749
41.20365391
37.84834824
37.39452828
32.82994759
34.10430177
38.35437149
37.97678082
55.76142943
55.26776685
54.87660206
50.20528203
50.73204479
49.24882898
49.99118147
55.15485241
52.22207214
50.88045377
50.69530552
50.83818092
50.901135
52.47266647
52.65936814
48.1159245
48.9980977
55.32786569
55.7320022
58.48431615
58.17589152
54.69427639
59.58101458
60.23519132
60.48890711
59.13057954
58.05321551
60.41939661
59.03241124
52.07525714
57.24833562
58.51372627
42.20082193
47.14597526
46.34300307
47.90264978
47.36342081
42.72641698
45.22311808
44.66501556
46.0628868
45.41489023
47.78172639
49.96771381
49.47111856
50.57162337
50.12719805
48.20554051
44.78975141
48.61342256
48.084028
49.30190042
48.7874964
45.1334149
50.85958105
49.9555435
54.16845414
54.63645393
52.17526153
51.19047148
39.43752149
38.96747968
40.25265951
39.60248552
38.21833823
37.76005979
38.81900854
38.35476549
43.76701952
43.2350166
44.48427217
43.94929313
42.17203669
40.66945214
43.0402426
42.50561954
45.613536
44.84010384
47.43790911
46.0967578
45.92262286
44.43523837
45.15656937
44.59252698
44.25891703
35.21965492
35.5262058
40.51728138
33.88889341
33.67036746
34.18654304
33.97423666
33.57345143
39.34835075
33.74253483
34.98312374
37.13141433
38.82808261
42.59749515
36.78968526
35.12606733
37.66642674
37.00028429
34.56026593
34.28421594
34.9930601
34.66915994
41.67921426
36.50805384
36.90262442
47.78421143
42.63995351
47.09681079
44.12739237
46.90319146
42.1613708
57.18183115
39.40103405
55.29416699
49.55781891
35.15373776
34.09789436
32.90941809
33.10760518
38.02282335
36.99131605
32.72314467
32.85408111
51.45735627
31.97880323
36.15537065
35.45123961
64.54404017
71.36134383
31.8379147
75.43185075
56.03176023
40.91289794
32.52766591
63.86054066
43.24774882
73.5237738
44.75225694
32.06626459
41.84223699
39.90584721
38.75287368
49.78853342
49.45778632
52.31250965
46.73927907
46.35760151
49.70322839
41.7126995
39.9521377
39.40762474
55.93343934
55.82044962
53.0093046
44.50431866
44.00747765
46.35432904
50.87691043
44.4478984
44.57041059
40.8321726
41.16096405
43.31136395
48.84349538
51.98379241
54.54380511
45.75185975
45.0275049
44.91150684
45.13406711
45.05904597
45.8791761
45.13005255
43.37921951
40.20120439
52.13900263
53.46036312
56.01719438
38.83490071
38.47373158
34.22065253
55.27543692
56.97275913
51.70017179
44.86508942
44.70582711
44.70579965
44.56160885
41.78814594
42.38652077
42.67528055
43.5604689
45.2974472
35.48164435
39.32962815
38.95359663
44.56173872
42.83088768
39.71374899
32.24439342
32.26995062
32.96765486
41.77109242
52.52509639
47.90384702
39.81561859
47.66936765
45.6576594
31.88535175
32.70776972
32.21364859
32.23144021
31.90209346
59.92501752
45.10697132
40.83732322
41.78375274
50.02728497
40.39488889
41.32631409
50.31502146
52.5549027
46.10197262
44.63884667
46.38336333
47.08102698
40.30692412
40.23560964
58.49850363
60.52701608
62.02389349
52.93743275
59.33275497
42.34952393
42.59895546
44.98630628
61.01221755
56.92945883
54.68934425
64.0033495
61.63559713
41.1366806
42.23353131
41.64482965
46.1771094
45.53171492
42.36243616
52.29348309
51.62725222
42.1366368
44.90744724
42.35926564
42.52610742
43.51151264
39.86234932
40.16004193
56.70582506
57.40885901
54.21682494
54.24820075
53.28267025
53.12687615
50.55724118
51.46797588
51.12251414
52.9639672
52.76422509
53.22075464
46.77887055
47.83087081
52.17545296
53.33385669
58.07351049
54.83745422
58.36974827
58.6965626
56.26978471
40.71705985
42.69453758
42.20175914
46.06531437
45.84816453
43.26064936
40.2554482
40.03411292
41.7985913
41.47790861
46.9850871
48.97483515
48.67408433
50.80141624
50.49330222
49.0847781
44.11705958
46.63038974
46.37450441
48.37070902
48.07526215
45.83897454
41.13322405
41.62038633
44.45661006
43.6767942
40.49040319
40.97403651
44.43897886
44.90949325
46.01517752
38.71620548
38.57912564
39.83639563
39.65949767
36.64309286
38.36843583
38.25366525
45.39045613
43.77976863
44.27534877
45.65836281
45.629337
42.81719971
43.11994623
45.30051218
45.77247002
46.10983003
54.60326139
47.15700237
48.42223525
39.79976057
39.45029174
35.79124181
36.90417624
40.21955935
39.90452884
33.10645983
33.17410356
34.9378564
34.56421274
32.94769713
33.04162909
51.83226196
31.94912201
32.6312409
32.07785038
107.1941944
32.3733096
40.99270926
51.8066478
47.13347789
32.0216605
32.05047864
32.40413388
62.93378812
67.89226056
65.82850353
50.66347897
32.26357723
31.98985647
32.00958925
40.75338598
41.10643729
39.99301227
49.69256962
49.22204955
42.77718038
41.82443825
39.96111823
53.00755246
52.17062842
56.69362049
40.76334216
48.29825742
45.09666612
48.54718271
47.83535434
41.46317604
43.68192663
44.24013008
47.72080621
53.79221185
54.09735522
53.31965012
53.56301283
57.75781681
56.9932485
57.19607052
56.55982842
56.7688655
57.42044293
48.33422707
48.73586256
48.94571345
48.40884142
48.53398778
48.19494503
58.63533379
57.62137372
57.58747073
57.39529444
57.54926939
58.43584273
49.37002162
49.64526776
49.88098366
49.17520567
49.40217832
49.13683881
52.70371424
52.87213659
52.09769597
52.27207834
35.72440444
37.83067095
37.70880632
33.54190269
34.77706881
34.6835863
35.06838935
34.88831773
33.60281673
52.9709259
54.06028567
48.60726678
53.66926672
32.62884717
32.59497014
32.71163186
32.67404608
32.48831976
33.18373302
32.3091513
32.42307227
33.25253257
34.44494557
34.35911771
34.60448608
34.52369608
33.32116522
32.8239485
32.76255473
33.34195374
32.97175244
32.85492264
53.46424454
51.90587662
43.55174092
53.94513646
33.85725907
33.15689331
39.59028251
32.05778987
33.38027487
33.2406759
31.86300609
79.97789235
81.25528364
61.71893613
71.07684141
60.96796795
32.15581939
32.1881703
32.65320873
31.92622428
57.10867962
62.29576531
57.49284468
58.74279706
55.44146249
48.60198357
61.04934621
56.06940199
45.61632247
45.89287714
50.84106738
43.11564997
45.8287799
52.23391718
49.73665252
52.76396595
48.68130085
51.41949971
57.41812191
58.91564195
52.25418703
56.31793933
59.76240114
47.50137392
48.51806144
47.09135967
50.65832263
58.07581815
58.19907384
56.34298488
41.28328744
51.70860912
46.72244461
57.00012493
57.85289437
42.76491297
44.88933429
47.79217076
60.15164527
49.80521064
41.67243862
42.84297743
60.49178991
57.37017632
60.73298034
56.09576532
58.53183113
60.85605082
62.00450833
61.31967964
55.061637
55.14692847
55.33656726
54.63684293
54.72379321
54.80416164
56.50476034
56.10556581
56.31852048
55.63113513
55.83736094
56.18243791
46.51776756
49.15971735
49.15591812
46.89130662
47.14709507
45.79186354
46.75786686
46.54363714
46.34730499
47.77234905
48.10890369
47.32230279
48.57754474
48.39015448
49.09719609
48.8958402
47.1300384
45.44409782
43.5454826
41.12331553
46.5714857
46.35731669
46.20533977
41.9038237
45.64245961
45.28329136
42.45022635
42.34662822
43.64280086
56.28185102
54.69248441
52.17492949
51.82879703
51.05264656
52.94405187
52.59274961
52.34845172
59.24684005
58.89762089
54.50914225
59.33387542
61.37498665
56.11495223
59.10279597
59.23913862
58.39449101
57.17001607
57.04243447
57.39448346
57.35985068
58.30958525
59.90651522
60.02631604
58.85890196
61.52895437
61.4933476
61.30746248
61.47895843
58.65752234
60.51712585
61.09194854
62.62620724
60.49141632
44.79000121
44.64304309
42.13062036
42.87511624
45.49614385
45.34159936
40.71228534
40.47622642
41.20672424
40.9522974
49.57885467
49.27473162
47.36840977
48.64161146
50.18897936
49.8839735
47.20262329
46.9299822
44.4850419
45.46170289
47.77691149
47.49322948
50.61728421
50.62735386
50.87920348
50.12714316
50.37665651
50.25184605
51.80717816
51.55361571
51.72983708
51.13005063
51.36006041
51.55273785
39.27540382
36.71571023
36.85639417
36.46064852
36.59313452
39.12284018
39.98436229
37.31758763
37.52736065
36.9934269
37.14985145
39.78198534
38.0533661
35.71842052
35.8525933
35.50141944
35.63379906
37.93395391
38.6624436
36.2060438
36.34143698
35.95287109
36.09166512
38.51697115
39.07956784
38.92208579
43.59147889
41.67484283
41.85226255
41.30606705
41.46774677
43.40542257
39.4550792
39.28217455
37.65801951
37.50355057
41.91888026
40.045264
40.10973331
37.83592972
38.28223565
41.26846417
42.88029953
40.94926523
41.08326932
40.58599277
40.68383883
42.65818029
38.0313409
37.93639688
45.08103141
45.28282486
45.50697927
43.53129786
44.10101091
44.64929556
46.09597396
46.07065902
46.3397362
46.34764348
44.91014689
44.35232518
44.8005958
44.32566463
45.78247053
45.56002907
44.22540396
35.30810671
37.29430206
37.16551356
37.57033396
37.45466804
35.45078676
33.82929305
33.73450818
34.11726882
34.02932819
33.53805047
33.56709791
33.91407238
36.03255833
35.4098921
36.91020079
36.65866944
34.68416439
35.53421701
34.84555775
35.00940855
35.28471199
37.45533248
35.28900159
35.42875367
35.07851446
35.22289405
37.37545478
34.46964346
34.36535426
34.88240308
34.76796992
46.48753473
41.03344065
41.56053277
40.51812563
40.71552662
46.77513142
46.10017433
45.90826581
42.23180647
43.84231149
47.25602154
54.3109223
43.18219899
45.04673309
40.58203666
41.76505832
55.04500294
32.48815262
32.44411727
32.56066937
32.52929941
32.61614199
32.85997263
34.38146491
32.28516288
32.21715692
32.39350085
32.33051314
32.97336473
34.10647556
34.01818652
34.27702573
34.18848755
33.0350142
32.76159362
33.74523212
33.62355944
33.93475194
33.84620143
32.80900356
50.96228736
33.16784836
32.89162262
31.92969998
62.49136773
89.0072272
94.56107624
87.87403052
89.21932269
67.46477636
32.06152233
66.3129212
48.8939926
52.10269276
32.46879497
32.0713839
32.11852814
64.04670519
70.77966654
69.16340775
55.87626172
62.25720332
75.54716476
71.05789321
47.42502169
67.07043753
59.11476706
32.33103651
31.89734348
32.06978756
36.67865534
36.6937754
36.81145065
36.70047222
36.72945158
36.82914659
36.74139105
36.79052897
36.85983252
36.80938437
36.88068698
36.90407959
36.90220033
36.96149298
36.95191554
36.97462601
37.00430314
36.98485138
37.00926317
37.00703007
36.98890581
37.00099735
36.96490845
36.9584736
36.94915072
36.88794649
36.91378112
36.86661436
36.80647327
36.87065816
36.52300177
36.55521186
36.65680485
36.57012007
36.63463949
36.70031896
36.66430643
36.77666042
36.7759959
36.81698769
36.93533597
36.88446393
36.96889092
37.04676658
36.97229715
37.06617844
37.10025307
37.0193817
37.10118057
37.08725441
37.01995148
37.07625745
37.02446931
36.97412191
37.00171705
36.9170597
36.88969894
36.88456673
36.78405696
36.79300891
36.38478294
36.45177824
36.52514963
36.48535253
36.62906574
36.62332572
36.68586255
36.8713262
36.78991458
36.93511354
37.11220357
36.96576862
37.16176553
37.29081995
37.08866922
37.31363403
37.3346447
37.14238114
37.32203504
37.27974608
37.12229862
37.2564293
37.16884558
37.05084704
37.13385284
37.01484131
36.93476505
36.97107094
36.8306732
36.7889685
36.27144117
36.40522303
36.43339588
36.47087122
36.70591136
36.64182139
36.79637011
37.10114042
36.91434505
37.20692341
37.52354961
37.18586868
37.61349027
37.8350545
37.38389897
37.87628741
37.88286563
37.42230461
37.80814918
37.67627558
37.35613958
37.62115185
37.44707226
37.22344005
37.38727545
37.20755262
37.05319052
37.14529855
36.95245728
36.85309222
36.19490431
36.41880015
36.40524017
36.51496097
36.8673764
36.73855008
37.00692356
37.5032587
37.18222124
37.69394586
38.35829281
37.6700925
38.59707283
39.45763522
38.0547851
39.47891527
39.25840627
38.04988127
38.93909313
38.46223171
37.82858393
38.30947499
37.92953028
37.54395518
37.81900411
37.52564578
37.27365727
37.43138459
37.15348148
36.99368683
36.15168219
36.46210767
36.42783305
36.59120277
37.08579205
36.91602936
37.29135665
38.06978677
37.63234889
38.40288162
40.22683306
38.65074869
39.61080906
40.2398635
39.29485167
40.84973845
40.91822832
39.80676717
40.36010738
39.7074015
39.27360662
39.50290752
38.67442359
38.08666063
38.47227563
37.97599231
37.6260518
37.83364313
37.43938874
37.21522454
36.1276704
36.51488842
36.47127988
36.67876274
37.31445171
37.13868024
37.58351847
38.6355147
38.21938093
38.77495742
39.26744353
39.03866995
41.4145362
42.06280437
41.67199474
43.8598882
42.60308857
41.40074772
41.13410114
39.6464974
38.89005398
39.32046023
38.56130685
38.11624682
38.35422619
37.79738522
37.52098985
36.1161397
36.57598039
36.52987021
36.77259927
37.52935135
37.370439
37.84729131
39.07186996
38.75687924
39.37426627
39.9962258
39.8442486
43.04310719
44.06585649
43.92167391
47.9348588
45.45649042
44.41691584
42.74277464
40.67758793
39.88287608
40.23278233
39.19965074
38.70439
38.92284904
38.19503649
37.89207633
36.11225535
36.64224265
36.5921814
36.86884594
37.72772106
37.58032858
38.08277797
39.42171328
39.1643325
39.80877768
40.49353336
40.37918536
43.73443816
44.69079214
44.72578849
50.41074391
47.50624399
46.85549685
44.01320763
41.61025222
40.89324341
41.07609479
39.83748346
39.34320694
39.4946733
38.59922254
38.29614718
36.11368897
36.71155304
36.65991336
36.96600376
37.91703
37.77622925
38.30470966
39.75045959
39.50293087
40.1887757
40.93291058
40.82091277
43.64578706
44.08152395
44.24269344
51.57388323
48.65985063
48.34090304