/*--------------------------------*- C++ -*----------------------------------*\
| =========                 |                                                 |
| \\      /  F ield         | OpenFOAM: The Open Source CFD Toolbox           |
|  \\    /   O peration     | Version:  v1912                                 |
|   \\  /    A nd           | Website:  www.openfoam.com                      |
|    \\/     M anipulation  |                                                 |
\*---------------------------------------------------------------------------*/
FoamFile
{
    version     2.0;
    format      ascii;
    class       volScalarField;
    location    "2.65";
    object      k;
}
// * * * * * * * * * * * * * * * * * * * * * * * * * * * * * * * * * * * * * //

dimensions      [0 2 -2 0 0 0 0];


internalField   nonuniform List<scalar> 
12556
(
36.90868941
36.90873195
36.90878872
36.90885193
36.95439806
36.95472583
36.95532397
36.95679166
36.95981182
36.96540096
36.97430179
36.98548256
36.99467039
36.99944972
36.99406894
36.98500678
36.97460596
36.96595113
36.96052604
36.95708856
36.91076374
36.90941561
36.90877757
36.90842356
36.72744584
36.72764402
36.72783529
36.72815943
36.77364525
36.7753378
36.77898864
36.80709742
36.82102532
36.84676109
36.88791638
36.94092807
36.99101628
37.00753243
36.9932123
36.95193439
36.90159154
36.85903049
36.80913772
36.78967725
36.73520237
36.7307491
36.72859517
36.72757657
36.54734045
36.54779778
36.54829497
36.54901576
36.59517108
36.59953896
36.60835101
36.64540492
36.67940341
36.74084547
36.84105328
36.95117244
37.02412916
37.05239217
37.03109129
36.96508928
36.8665784
36.77013166
36.67866431
36.63507971
36.56727721
36.55712635
36.55228731
36.550355
36.36863993
36.36909234
36.36983823
36.37154013
36.4186657
36.42791955
36.44656294
36.50163848
36.57260207
36.71054014
36.88811316
37.05513921
37.1562648
37.18032452
37.1363585
37.0394582
36.90023012
36.74838899
36.58893851
36.50380667
36.40959593
36.39031774
36.38084378
36.37713885
36.19188362
36.19242906
36.19374163
36.19715176
36.24653927
36.26290625
36.29823108
36.38080779
36.52907596
36.7691923
37.05266347
37.31197586
37.47747792
37.47728279
37.36956287
37.20445741
37.00749413
36.79062638
36.56404281
36.40532487
36.26770763
36.2305355
36.21337653
36.20670915
36.01681103
36.01753329
36.01970811
36.02554197
36.07943275
36.1072597
36.16921305
36.29673614
36.55119528
36.91907304
37.38966882
37.88662317
38.207086
38.13427658
37.82612635
37.51215367
37.20911853
36.90335341
36.58616699
36.34757569
36.14205093
36.07708148
36.04853431
36.03727585
35.84421946
35.84543008
35.84922094
35.85885329
35.91797418
35.96131292
36.05981877
36.25506465
36.62089675
37.17319692
37.97096709
39.17910589
39.96129192
39.77809244
38.66963572
38.01777708
37.52577638
37.08922314
36.65056186
36.3343788
36.03290383
35.93026997
35.88527307
35.8675754
35.67470054
35.67661381
35.68249329
35.69659519
35.76415636
35.82714136
35.97195836
36.24120927
36.72130767
37.48994838
38.76190384
41.41054167
42.47858974
40.06360497
38.7425342
37.96341498
37.34690449
36.75578707
36.3471718
35.94179351
35.7910073
35.72418357
35.69815499
35.50988614
35.51300842
35.5220458
35.54285096
35.62026485
35.70611187
35.90324534
36.24372204
36.8390639
37.81324802
39.47534953
43.34557943
46.93850975
41.80510371
39.62704704
38.48469614
37.6569578
36.88957701
36.37645212
35.86751483
35.66153111
35.56829814
35.53225754
35.35059708
35.35506679
35.36757573
35.39632719
35.48530379
35.59763337
35.84877233
36.25407123
36.9564696
38.09652602
39.98538049
44.20909952
50.11702397
43.40575055
40.53528689
39.04809109
37.99237134
37.03832999
36.4161473
35.81047356
35.54573262
35.42282146
35.37523616
35.19845911
35.20485363
35.22195646
35.26125843
35.35879016
35.50041075
35.80414437
36.27034524
37.07329232
38.34905222
40.397905
44.31919489
51.7091519
44.62364942
41.37413951
39.59438316
38.32216659
37.18509829
36.4622877
35.76695659
35.44614136
35.29282599
35.23274134
35.05323281
35.06133457
35.0827296
35.13212368
35.24036459
35.41201134
35.76500719
36.29112134
37.18687125
38.58521796
40.78967279
43.91904947
52.4001222
45.47628787
42.0736798
40.07410884
38.61157806
37.31661301
36.50861492
35.7375692
35.36347819
35.18106828
35.10831647
34.91563312
34.92600468
34.95352699
35.01421898
35.12914644
35.32918142
35.72730066
36.31214961
37.29670085
38.81446764
41.21593748
43.35669094
47.47694099
52.21810024
46.05433338
42.60530752
40.47253101
38.84294237
37.42322832
36.5482941
35.71360245
35.29596498
35.08669073
35.00222766
34.78406095
34.79657414
34.82968154
34.89953391
35.02976637
35.26569555
35.71126789
36.34762711
37.42912585
39.08836831
41.70429681
41.99079911
56.19251004
52.20386974
46.39787663
43.02673151
40.75577408
38.99834812
37.50250123
36.57685622
35.68854548
35.23834742
35.00584544
34.91109174
34.65793698
34.6724756
34.71069617
34.78906914
34.92989434
35.19105922
35.66646558
36.33411637
37.45381678
39.20066599
41.99777552
38.17226473
55.84254062
51.77472205
46.56633666
43.26790613
40.92848307
39.08250141
37.5469594
36.59155996
35.65933587
35.18435677
34.93282151
34.82979006
34.53463761
34.5510786
34.593818
34.68025008
34.83159764
35.11325292
35.61394932
36.28993971
37.41633539
39.16734078
41.91325959
34.70151384
53.7672987
51.20795447
46.66458575
43.41782396
40.98063357
39.09992474
37.55642463
36.58453948
35.61724467
35.1257918
34.86140434
34.75179413
34.4138637
34.43199157
34.47835093
34.57156648
34.73220302
35.02988077
35.55131664
36.23398299
37.32730086
39.01284179
41.45893622
35.89383875
50.91066217
50.7235486
46.59047761
43.37263133
40.91555396
39.07037116
37.53244905
36.54629257
35.56211064
35.06170459
34.78696615
34.6722564
34.29244434
34.31204054
34.36137387
34.46063573
34.62986785
34.93947446
35.47575539
36.17490556
37.23564595
38.80799428
40.93595593
37.44770691
46.61403805
50.11237214
46.30519536
43.11221441
40.73080648
38.96765044
37.4549835
36.47437928
35.48667825
34.9832854
34.70480978
34.58649985
34.17152535
34.19231972
34.24375745
34.34744917
34.52332306
34.84142211
35.38735197
36.09695608
37.16634115
38.67505867
40.50074898
37.27308604
42.48089717
49.11423671
45.75356595
42.73351257
40.49729231
38.81322265
37.34192796
36.37626168
35.39487002
34.89326923
34.61340559
34.49336947
34.04754081
34.06930922
34.12244662
34.23010041
34.4120593
34.73591257
35.28733881
36.002015
37.0740439
38.56208113
40.13086615
35.46774744
40.97119159
47.99196922
45.14983348
42.35766359
40.24382336
38.6298632
37.20386246
36.25741413
35.28764608
34.79064406
34.51117184
34.39026815
33.92378684
33.94627118
34.00039374
34.11031106
34.29602402
34.62360239
35.1773661
35.8933161
36.96263375
38.41491935
39.71000342
33.70506332
39.73487084
46.94629204
44.58268372
41.99570618
39.98516241
38.43198679
37.04884709
36.12289276
35.1686818
34.67862626
34.40081958
34.27967694
33.7954966
33.81853425
33.87358464
33.98595411
34.1756859
34.50544025
35.05923858
35.77382067
36.83690556
38.24160743
39.25951027
32.21812169
38.48313247
45.96096628
44.04327869
41.65004372
39.72901284
38.22810929
36.88314849
35.97704964
35.03890465
34.55620956
34.28049451
34.15946485
33.66881859
33.69220308
33.74759797
33.86063788
34.05162567
34.38253644
34.9347172
35.64611326
36.70038432
38.04797414
38.78497554
30.95801813
37.24409056
45.0285041
43.52598711
41.31861996
39.47922407
38.02329606
36.71139531
35.82346329
34.90293763
34.42863224
34.15540945
34.03470962
33.53628496
33.55994159
33.6159438
33.73075388
33.92469571
34.25599865
34.80542095
35.51241926
36.55570711
37.83773714
38.29840029
29.89632626
36.03850135
44.1397563
43.02659535
40.99852897
39.23709199
37.82052814
36.5368705
35.66502574
34.75984795
34.29280359
34.02177246
33.90143124
33.40813441
33.43190911
33.48793717
33.60235943
33.79550217
34.12683447
34.67280159
35.37464052
36.4048742
37.6131963
37.81145466
29.00322869
34.87733734
43.29360168
42.54181601
40.68780793
39.00251902
37.62142771
36.36181654
35.50387064
34.6153675
34.15641041
33.88771375
33.76775711
33.27196221
33.29585844
33.35243336
33.46864517
33.66488748
33.99588026
34.53803458
35.23428867
36.24918507
37.37603732
37.33065988
28.25579919
33.74714003
42.47874172
42.06931191
40.38540129
38.77493401
37.42669076
36.18766836
35.34162753
34.46528518
34.01219597
33.74520168
33.6255129
33.14451393
33.16841356
33.22485993
33.33985936
33.53319265
33.86382027
34.40205001
35.09243884
36.08930635
37.12894416
36.85989022
27.63022383
32.65018507
41.68931879
41.60897916
40.09118933
38.55385361
37.23652603
36.01533309
35.17934594
34.31822801
33.87249827
33.60742485
33.48797998
33.00496844
33.02892783
33.08597419
33.20326597
33.40121574
33.73119527
34.26552257
34.94974815
35.92545534
36.87421716
36.40077696
27.08159928
31.61728138
40.92752476
41.16290263
39.80555203
38.33888453
37.05086164
35.8453193
35.0178985
34.16445137
33.72272198
33.45876519
33.33939983
32.88080805
32.90473274
32.96159121
33.07686469
33.26891243
33.59843998
34.12895048
34.80660346
35.75768458
36.61312482
35.95204985
26.55018547
30.68420314
40.20281318
40.73347285
39.52872615
38.12965839
36.86951768
35.67791037
34.85764757
34.01916901
33.58426882
33.32183181
33.20253477
32.7371972
32.76117112
32.81869831
32.93706092
33.13719873
33.4659264
33.99270364
34.6631993
35.58605989
36.34702945
35.50986028
25.99374972
29.863104
39.51863758
40.32144307
39.26041074
37.92574169
36.69223725
35.51323188
34.69916143
33.86234152
33.42941703
33.16760424
33.04820588
32.61953411
32.64348097
32.70085913
32.81644482
33.0055529
33.33395643
33.85707941
34.51963379
35.41082304
36.07727852
35.06986416
25.40220657
29.14839491
38.87459173
39.92602942
38.99996271
37.72668861
36.51875594
35.35133506
34.54235831
33.72311939
33.29680203
33.03613704
32.9166598
32.46973375
32.4937488
32.55180231
32.67119737
32.87531902
33.20284012
33.72233322
34.37596444
35.23237003
35.8050398
34.62918533
24.79171102
28.52575852
38.26867858
39.54593021
38.74665987
37.53208423
36.34881993
35.1922315
34.38786289
33.56096377
33.13477637
32.87443168
32.75470737
32.3629854
32.38700147
32.44507795
32.56151221
32.74530223
33.07287521
33.5887107
34.23221272
35.05112361
35.5306963
34.18660966
24.17753389
27.97967194
37.69740513
39.17942353
38.49977187
37.34151131
36.18212372
35.03595812
34.23520454
33.43407519
33.01401613
32.75438472
32.63449012
32.20282902
32.22695041
32.28561298
32.40537107
32.61801544
32.94463582
33.45660886
34.08842211
34.8675331
35.25427682
33.742205
23.57204087
27.4966756
37.15729023
38.82534784
38.25867431
37.15462846
36.01850019
34.88284721
34.08574832
33.25957084
32.83930896
32.57994409
32.45968034
32.11314747
32.13732435
32.19626367
32.31533622
32.49179777
32.81921314
33.32719493
33.94462161
34.68199383
34.97608954
33.29717251
22.98380526
27.06650079
36.64618065
38.48266112
38.02284356
36.97113468
35.85773372
34.73414506
33.93945608
33.15669392
32.73925873
32.48007058
32.35959326
31.9089183
31.93330068
31.99306396
32.11508106
32.37331447
32.69947484
33.20453988
33.80121552
34.4955006
34.69833065
32.85669361
22.42112109
26.68346916
36.16647614
38.15365136
37.79285538
36.79120089
35.69977429
34.59395786
33.80211795
32.93214294
32.51499389
32.25590257
32.13487306
43.19282777
47.43678121
42.83860858
44.14071854
50.96560938
47.88185979
44.3474081
52.65119775
51.26386958
43.98330728
53.34027761
52.76550555
43.3957817
43.08404579
46.49346391
53.64960314
53.38087556
42.45250056
53.18884021
43.48428265
55.83679219
54.14519575
53.67385763
41.06947321
39.9086861
42.38142552
39.70439873
50.7835409
44.3482669
46.43481527
42.19875584
40.58869476
39.87144682
43.23153219
42.468304
55.36540322
56.59934026
49.82250178
44.19009449
42.73943758
40.30068186
43.71333915
43.31882035
44.34893538
46.01385304
46.93829271
54.53394375
53.98203189
51.57935115
45.64187235
44.61598394
40.70384052
43.7037186
43.73153926
44.19759261
42.59451464
44.46204511
55.8263599
55.10353354
41.11816511
43.47877239
43.68770292
43.69207743
38.08192367
40.38916674
39.76380522
56.55529138
56.32628104
41.61436171
42.96625214
43.43598533
43.03965688
32.44530012
34.96257024
40.99910016
54.60431497
53.53703155
47.28051747
48.99263799
43.44922131
46.89532919
56.47859724
51.10566198
45.42076847
50.18805183
55.13970295
47.0537236
47.75109117
43.83480676
48.36192018
47.12408694
49.09022382
48.50510328
54.0492991
55.19105389
49.61056161
56.04192013
55.35546561
55.35511558
56.11387973
49.37078766
44.64202353
45.85758176
44.36930254
45.53584999
43.80982355
47.04382754
45.64272821
54.96844196
54.61493423
52.18486901
55.869029
56.09334736
55.32327374
55.82116958
51.99767837
40.51714095
42.47789737
44.1492396
41.57595241
39.18165322
43.6936821
41.70803824
56.28847263
55.90282365
35.11069363
37.91491889
43.65847421
40.46781565
36.08120498
33.10380188
39.04374834
36.27906732
41.19043049
56.83135172
56.5841355
39.68246149
40.00329814
32.38513695
42.99245581
50.02221986
32.00107075
74.95182386
33.02084719
32.00894654
49.33577347
39.31910853
42.32559479
40.76587235
42.34281939
45.94847146
43.05717009
61.04167839
46.86294645
43.73516497
47.83083568
47.85139307
46.2960826
52.35977603
46.57666038
45.93060429
52.7765419
49.96500174
48.53650998
52.64556168
57.13629592
56.9203009
47.69865859
46.24673812
42.59654273
54.32032482
45.36695308
52.34004374
43.97457063
49.27338345
44.81249244
48.12725433
44.40869059
53.13311515
56.25370412
56.38179171
56.11235512
56.24048365
53.06299704
39.96408604
46.83281927
45.79486898
41.47574371
41.06203833
43.02069368
43.84270564
41.55273633
41.5368414
65.31387624
47.90469122
60.65007623
46.03117619
57.38024436
47.08500392
56.56997811
56.66481969
54.19162416
54.15593436
41.10754489
44.20445394
55.56041919
41.46998
43.04635026
45.61995037
41.57274269
55.47202095
39.33550692
43.23933224
42.90124537
52.64943348
50.74469503
48.04233043
34.02535906
41.12483425
40.64097472
41.73802819
41.29759059
34.17226605
58.3498828
54.75679432
48.14736351
55.04163098
55.99473996
50.93061143
54.72496485
48.38040927
45.02923227
50.09383352
44.79193407
55.26937573
50.82201222
45.57219166
53.00350109
58.17131854
54.45187739
54.06572816
47.77907851
44.02653436
47.69973135
48.97641682
47.28932234
50.40821828
44.40541269
46.87889681
48.87757994
54.70188542
54.80487521
55.69771526
53.48388953
52.87761565
54.09297071
53.65343291
55.64484452
56.29002476
51.53545223
50.51488093
52.64630253
51.83803769
56.33346637
44.75095529
44.63936798
46.43564901
46.34711432
55.10666918
46.17364934
55.04671908
40.63014561
40.46682768
42.76295118
42.62812835
43.53540414
47.37572245
56.0940244
43.73026599
41.13910389
36.83443718
42.29126475
41.88220327
42.78445294
42.41922959
36.97700554
39.70165058
35.22820871
35.10181855
38.07789403
37.94050278
54.00500966
41.08461856
54.46728131
53.17629837
40.4556929
39.99934083
32.04311418
33.16255357
41.74941176
41.65249802
32.61128529
67.28975646
41.96863521
59.17781253
32.53371516
46.76733284
44.50003461
40.79758837
59.77244364
39.9692506
40.36557545
41.94574181
42.51576402
42.87371782
41.49616115
33.78012012
41.44033499
56.33464062
53.59355823
54.08005379
53.16811856
40.62767886
43.38189813
55.62399749
54.81112503
41.83621185
57.26252102
57.19038446
53.14366725
43.10637572
42.62303084
44.9642691
46.04195842
42.86975877
43.17079022
55.95855504
58.74687119
57.73918513
56.79703546
54.31934837
45.52369446
45.91889343
48.41163687
47.68594938
53.89338071
43.42925134
44.73776625
44.48806382
45.04894047
44.81795496
43.56488317
43.65826348
43.34613676
39.4695733
32.81514368
37.79897722
37.38494105
67.33389578
50.24002327
53.96398903
55.79919751
59.78775566
59.00134841
52.60543772
48.44884222
47.02919871
50.13582385
48.89572313
52.96309106
54.29322434
49.59012281
48.74443996
54.90845151
45.18710217
45.323019
45.12154118
40.33152568
40.82346621
44.17207511
46.16346103
46.50262486
54.79956699
55.98453076
54.92026619
54.81696487
55.37624572
54.50893721
54.21047647
54.77404836
54.58436646
55.39265073
41.51092042
44.0439717
43.75754922
44.4019577
44.13592585
41.64241718
41.18025111
36.00333995
36.31894339
33.62363673
33.83994135
39.65176808
43.30584006
39.54823561
40.19230751
36.44583563
36.80277259
42.1027105
56.14218976
47.93666335
51.55111471
57.83509356
39.70253247
35.67537381
33.92590176
38.6331456
33.31727275
33.55162896
32.81346186
37.20524864
48.72464489
38.93872513
38.72782169
37.94405514
37.25056408
36.85532284
32.25971981
40.84206828
42.05680844
51.87732453
31.99302024
85.63184124
43.43173873
41.88311155
46.51948275
32.84938656
32.0904082
54.846278
53.88544809
53.79385697
46.49366141
46.48301754
40.4739525
39.98841695
53.0475198
52.41093303
52.31107322
48.00846606
57.23323553
48.16586865
57.69748288
48.86707788
43.06957191
40.70975832
46.14891319
45.85076262
49.61368446
46.58021731
41.02836385
40.93669431
48.14104069
58.08578722
41.06402067
45.8004167
64.24375327
39.80766979
40.44605904
39.94275739
39.80125215
56.8901109
65.87196351
54.58294983
51.09233204
58.30932789
55.35230629
50.42121888
47.50490236
52.44136632
55.85940391
55.24708104
56.18342934
56.79428824
57.40985808
56.28084554
46.37776664
45.69693192
54.25845482
46.80226251
47.16431155
45.29054315
46.54685921
47.30280681
53.94126895
47.56434774
46.63923555
41.37063568
41.6717496
41.63589849
51.30806931
50.48537832
43.03321031
48.75381144
47.38894361
50.15572341
49.19109196
42.48568246
41.66161656
42.33455287
40.94372422
38.38121241
37.92279235
33.14592253
34.50606176
38.89193185
38.51097343
57.04213202
56.50965229
56.08065872
50.99999691
51.55587396
50.00420685
50.77656686
56.37284512
53.24140303
51.76741161
51.586105
51.67895711
51.78550197
53.50996325
53.68030433
48.8183432
49.74410772
56.59333846
57.0235994
59.38682089
58.98281814
55.47626696
60.5877102
61.32975423
61.60859927
60.18255965
59.19689271
61.53733195
60.05732702
52.80994675
58.22632493
59.43354748
42.68114289
47.86699159
47.02614106
48.65974748
48.09460203
43.23784742
45.85805409
45.27792423
46.73335436
46.05766583
48.54016294
50.82882372
50.30775175
51.45838619
50.9958082
48.98735896
45.39867366
49.40602451
48.85001914
50.12968924
49.58883745
45.75903637
50.72794988
49.77834731
54.39063702
54.91897379
52.1684248
51.08763271
39.87521914
39.39379288
40.71162484
40.04426511
38.62837349
38.15955248
39.24180905
38.7681912
44.34877561
43.79931615
45.09049796
44.53691833
42.70324415
41.14287859
43.59881805
43.04725203
45.11310026
44.38294763
46.98875678
45.59358719
46.69072051
44.13928069
44.94606475
44.16991307
43.92133143
35.56976746
35.87853717
41.04720889
34.02263118
33.80810411
34.32010367
34.1107907
33.70048117
39.85243185
33.92515527
35.29216262
37.60110456
39.26480055
43.17452641
37.25592277
35.25080717
38.06335178
37.34233052
34.6859041
34.41799173
35.10848771
34.79184778
42.23360389
36.93014245
37.3581188
49.60212804
42.23829871
48.82032353
45.31076679
48.58195925
41.80720959
59.97081793
39.60324256
57.8907418
51.48369118
35.55952688
34.49428378
33.03747013
33.24787756
38.49609575
37.44087666
32.83847929
32.98193693
53.74538301
32.20030913
36.66964935
36.00215783
68.02565537
75.20113862
31.9264242
79.26129104
59.01588747
41.34057533
32.78391841
67.04566797
44.49822169
77.11936013
46.28474362
32.20278347
42.06784191
40.08986721
38.88058926
51.9519705
51.579184
52.8348202
47.15420478
46.7663537
51.89695666
41.44175077
40.44568189
39.71777055
56.39074968
56.31782081
53.52090744
44.93401214
44.43764957
47.18945045
52.1391117
44.88612522
44.98639266
41.02619267
41.36295647
43.64408439
49.45386295
52.85041592
55.50429328
46.44217523
45.7044614
45.59133669
45.79938068
45.73373322
46.57326039
44.72495252
42.95902017
40.67166432
52.1602375
53.59702001
56.45973354
39.37657598
39.01214525
34.62197138
56.26634167
57.956418
52.42199739
45.544795
45.38356297
45.36062113
45.2009499
42.3134249
42.92978586
43.2283947
44.14446091
45.96255312
35.91662804
39.87677086
39.49629945
45.83994629
43.90441251
40.0601114
32.37621369
32.40791011
33.23201883
42.57985268
54.89046673
49.65941028
39.83250635
47.37876395
45.26781817
31.98828761
32.96149737
32.33795513
32.35960483
32.02329818
61.53712133
46.19691547
41.43771321
42.60201728
52.15288822
40.35916162
41.0620285
50.1944081
53.60945073
46.5371896
45.01691445
46.8936327
46.68930168
40.50505514
40.28118045
61.2893019
63.51258342
65.09999423
55.182261
62.22984117
42.61725088
42.86386998
45.45514313
62.61499274
58.20873087
55.83258831
65.60770569
63.0044467
41.10475536
42.73551043
42.04903077
47.41197
46.80541643
42.7472333
52.32020025
51.59417131
41.82630283
45.773114
42.21957041
42.42278461
44.64951841
40.14885656
40.58915469
58.06357578
58.81199942
55.38163583
55.40812813
54.33396642
54.17858609
51.47790746
52.4325133
52.06706157
54.00615743
53.79518877
54.30890084
47.40391608
48.51749597
53.17042632
54.4535812
59.65030303
56.1506488
59.86532326
60.21264472
57.57939399
41.10990696
43.20433391
42.69391056
46.73648486
46.50829792
43.79517194
40.66226117
40.43053716
42.27225587
41.93606509
47.70067636
49.79369882
49.47606966
51.72685319
51.40049329
49.916576
44.69361152
47.3283796
47.05931933
49.15630246
48.84468283
46.49793784
41.64084716
42.14092045
45.09230389
44.28652298
40.98194886
41.47746827
45.05179991
45.53850448
46.70279066
39.06904413
38.92634695
40.22631238
40.04249628
36.87580872
38.70990237
38.59102717
46.05871583
44.37103765
44.88279148
46.27422993
46.16188094
42.75450392
43.08646933
46.08817894
46.22628485
46.67053835
54.85857552
46.67955251
48.01487259
40.35221121
39.99876298
36.24212484
37.36955638
40.77682065
40.45807439
33.38099864
33.44715193
35.33881433
34.96535695
33.21596182
33.30743381
54.16948805
32.15075354
32.95270732
32.33873606
108.4077393
32.39131269
41.40337151
54.29566293
48.96560249
32.12065936
32.15149243
32.6567746
66.02981632
71.3362067
69.06887203
52.9215521
32.49276973
32.07897561
32.10188116
41.47314082
41.03683783
40.11469095
51.84785067
51.27578267
43.73729014
42.61721004
40.17185747
54.53464032
54.34371516
58.34720277
41.25076594
50.31731662
46.51457165
50.56278034
49.73426406
42.11185589
44.03002023
44.71133519
48.59639864
53.94212686
54.28593905
53.41122535
53.68155805
58.45906048
57.61897392
57.85546702
57.11448333
57.36044953
58.07160162
48.14426459
48.37972228
48.60434565
48.02474796
48.16005395
48.0323067
59.4826763
58.37329752
58.356331
58.08663612
58.27137383
59.24701491
49.17890904
49.36560973
49.62167834
48.85490435
49.09973879
48.94079262
52.7325801
52.91277758
52.06433706
52.25492658
36.08854504
38.28697859
38.16196459
33.70921543
35.0967273
35.00201083
35.39728874
35.21000826
33.77784128
55.32100943
56.53064178
50.44074451
56.12270051
32.7593462
32.72110535
32.85505085
32.81292551
32.53697574
33.47260932
32.45216626
32.57589642
33.39990526
34.76130677
34.67358811
34.92250747
34.84069096
33.47209518
32.97363903
32.90775142
33.60515287
33.12719392
32.93851531
55.89690611
54.18474114
44.71172119
56.42239509
34.25939299
33.4782362
39.57140463
32.29284076
33.77976858
33.63683661
31.96460683
83.76073262
85.32859181
62.23287809
74.79487173
64.5054478
32.27181592
32.30859692
32.90931424
32.05279325
58.6721759
64.10515881
59.00693059
60.64215659
56.95471436
49.54049319
62.79481031
57.65957699
46.76645184
46.89723127
53.11264512
44.13661095
47.36049256
53.26166083
50.60692438
54.27335329
49.717811
52.72703134
59.10407117
60.6388898
53.61185149
57.97074794
61.56670209
49.38855655
50.52563816
48.85437854
52.69492465
60.8888873
60.99232967
59.0149218
42.10577643
53.83359516
48.31816868
59.65534617
60.61813403
43.86367426
46.30885218
49.55625287
63.07414811
51.81577148
42.59157948
43.9569226
61.96826124
58.66080168
62.31048321
57.17600972
59.74756012
62.20053103
63.46525389
62.79967002
55.36274378
55.48890614
55.72678518
54.89598134
55.03026872
55.08841423
57.01350518
56.59111807
56.84257035
56.04622998
56.29458561
56.64677362
46.14698681
48.80554618
48.7929294
46.8995708
47.13435115
45.72626086
46.90214047
46.65514123
46.37493054
47.67926747
48.04418232
47.09992102
48.17055551
47.99055508
48.72103816
48.50197335
46.8406846
46.79259374
44.43659418
41.19435384
48.05464621
47.92219494
47.71032806
42.11640965
46.98525764
46.56960096
42.21787419
42.15731049
44.11660226
57.60220413
55.89497313
53.17864815
52.81483217
52.00334489
54.01078807
53.61555001
53.36050961
60.85777373
60.52270702
55.7196985
61.08064776
63.20956692
57.42872909
60.67508824
60.83829483
59.26792222
58.03420637
57.92289022
58.19161948
58.17916239
59.13741502
60.95771529
61.09233548
59.96371123
62.82565228
62.78188136
62.61925666
62.7746847
59.78489213
61.65469918
62.30883741
64.08313464
61.65547776
45.40398423
45.24972
42.62392005
43.39132941
46.14125718
45.9797441
41.13768375
40.89101457
41.65313211
41.38711392
50.43200436
50.11039088
48.10463751
49.44740183
51.07804267
50.75502499
47.92834526
47.64185941
45.07819003
46.10540252
48.53119027
48.23288951
50.48113483
50.44227835
50.71919131
49.89255532
50.16520457
50.08988662
51.75479266
51.46648349
51.66069179
50.99772771
51.25118339
51.48022475
39.70900678
37.00305076
37.15017566
36.73653414
36.87430447
39.55262048
40.43553686
37.6344083
37.85355738
37.29430861
37.45804937
40.22807778
38.46013616
35.95688033
36.09789712
35.72876614
35.86711432
38.33742829
39.08194093
36.47066678
36.61111606
36.204138
36.34987939
38.93330652
39.44422662
39.28051797
44.1672253
42.17423852
42.35782346
41.7940621
41.96146154
43.97547362
39.83183334
39.65240793
37.96097757
37.82853439
42.4412159
40.49251991
40.55894106
38.17633416
38.63584603
41.76454759
43.43341987
41.42667743
41.56531432
41.05313806
41.15345817
43.2049963
38.36006485
38.26492059
45.66907092
45.7898663
46.24012996
43.54817284
44.37535239
44.36737588
46.38742035
46.46850695
46.54049114
46.57655638
44.67303661
43.97695763
44.88066889
44.27407597
46.05853606
45.94333084
43.8733817
35.64506639
37.73288125
37.60228058
38.01800686
37.90040102
35.80658719
33.96655013
33.86713176
34.25353236
34.16307905
33.67860756
33.67007293
34.09867817
36.42868399
35.76048117
37.33601537
37.07319802
35.00764622
35.7679702
34.80783893
35.17002656
35.44945843
37.84708717
35.50485181
35.65329396
35.26477405
35.43615909
37.76808433
34.59857473
34.4961484
34.99874739
34.8870813
48.15884012
41.44691838
42.07872087
40.72591626
40.98741049
48.55803411
47.68793983
47.42996305
42.91809719
44.891967
48.9138079
56.77133653
44.32658613
46.38890054
41.23825339
42.66296086
57.61348982
32.60244917
32.55315507
32.68069395
32.64730175
32.84309612
33.10455307
34.76842626
32.38447903
32.33398991
32.50208887
32.43958244
33.10722354
34.41609577
34.32373212
34.59054677
34.49907997
33.17016035
32.88376033
34.04142633
33.90792602
34.23925721
34.14511012
32.92964141
53.15630147
33.55910476
33.27450164
32.13300733
66.19298523
91.95577777
97.50774107
91.17499439
92.32318779
71.35788424
32.13106082
69.61316315
51.0802192
54.6588043
32.72118535
32.17493263
32.22761219
67.20278602
74.40424008
72.5498913
58.76544642
65.27375905
79.36810826
74.69110482
49.29998762
70.51314857
61.89953601
32.35991947
32.00876326
32.28398872
36.68447022
36.70373597
36.81642819
36.71214076
36.74795626
36.83858439
36.76244649
36.82043928
36.87561393
36.8422731
36.91899278
36.92663582
36.94076581
36.99821382
36.97820023
37.00979462
37.032911
37.00570225
37.0355058
37.02549271
37.00155428
37.01705155
36.97485343
36.96538415
36.95688469
36.89006599
36.914428
36.86702587
36.80391414
36.86898779
36.53560468
36.57622911
36.66894977
36.59481009
36.67295137
36.72275437
36.70879287
36.82654855
36.81254187
36.8670652
36.98428101
36.92599136
37.01869491
37.09343173
37.01197831
37.1106878
37.13783368
37.05023808
37.13613882
37.11482415
37.04049982
37.10083268
37.03973006
36.98515658
37.01373279
36.92048499
36.89210836
36.88578362
36.78016117
36.79017594
36.40891876
36.49227751
36.55010816
36.53269545
36.68800362
36.6695129
36.7461824
36.93391761
36.84283745
36.99781152
37.17680955
37.01753003
37.22577654
37.35138968
37.13755336
37.37278909
37.38946628
37.18232301
37.37387068
37.32128326
37.15280917
37.29414243
37.1929581
37.06793823
37.15298201
37.02012574
36.93852325
36.97254102
36.8245272
36.78467493
36.31358764
36.47198413
36.48036249
36.540439
36.77964156
36.70395769
36.87148928
37.17898846
36.98039079
37.28572017
37.60786287
37.25360046
37.69998588
37.92901445
37.44302555
37.96211008
37.9697384
37.47909946
37.89276415
37.74324582
37.40315184
37.6817246
37.48639871
37.25050939
37.41879343
37.21651272
37.05923074
37.14778278
36.94161213
36.84614527
36.26182297
36.50229964
36.47615827
36.6003993
36.95933896
36.8164738
37.10105562
37.60516854
37.26505068
37.79983799
38.49003478
37.76157422
38.74182442
39.60306538
38.14781198
39.62876067
39.41873669
38.14547577
39.08096165
38.57528905
37.9049098
38.41061841
37.99237428
37.58901924
37.86939023
37.5395307
37.28399011
37.43487461
37.1355873
36.98151335
36.2439769
36.56438721
36.51530033
36.69758974
37.20196151
37.01366448
37.41147727
38.21113335
37.74271807
38.55810475
40.47910029
38.80184384
39.8147659
40.43435279
39.46705863
41.04228657
41.11838676
39.96705772
40.54971742
39.88422726
39.43175108
39.66335483
38.77033305
38.15799631
38.54753329
37.99565609
37.64133525
37.83780394
37.41159223
37.19565082
36.24218894
36.64014522
36.5794068
36.80951249
37.45996588
37.26270596
37.73580292
38.8269257
38.37336186
38.96112722
39.48110115
39.23434015
41.74237035
42.38300111
41.96069579
44.16303063
42.88534286
41.64065586
41.3638873
39.7764697
38.99692622
39.41911544
38.58107406
38.13555468
38.35335556
37.75607929
37.49060496
36.25090047
36.72432314
36.66095869
36.92701876
37.70205857
37.52303533
38.02907141
39.30639259
38.95998566
39.61821437
40.27930977
40.11163117
43.48672426
44.54405804
44.38641097
48.3468252
45.81998153
44.75022492
43.03316798
40.83532105
40.02545997
40.34903327
39.21536364
38.72733639
38.91320562
38.13642662
37.84737828
36.26575926
36.811328
36.74598687
37.04381337
37.92220191
37.75902202
38.28771516
39.6872922
39.40768947
40.09444759
40.82266297
40.69907807
44.26688808
45.34849005
45.36340026
50.86808694
47.9252178
47.2559631
44.34530529
41.78335304
41.06315771
41.1990128
39.83809332
39.36129357
39.46730755
38.51978971
38.23255974
36.28481139
36.89820784
36.83371531
37.15784906
38.12774033
37.97519045
38.5265044
40.03646659
39.77430508
40.50117975
41.29007565
41.17002195
44.28397568
44.74278603
44.90735753
52.05697141
49.11608411