/*--------------------------------*- C++ -*----------------------------------*\
| =========                 |                                                 |
| \\      /  F ield         | OpenFOAM: The Open Source CFD Toolbox           |
|  \\    /   O peration     | Version:  v1912                                 |
|   \\  /    A nd           | Website:  www.openfoam.com                      |
|    \\/     M anipulation  |                                                 |
\*---------------------------------------------------------------------------*/
FoamFile
{
    version     2.0;
    format      ascii;
    class       volScalarField;
    location    "2.65";
    object      nut;
}
// * * * * * * * * * * * * * * * * * * * * * * * * * * * * * * * * * * * * * //

dimensions      [0 2 -1 0 0 0 0];


internalField   nonuniform List<scalar> 
12556
(
1.155901978
1.155874087
1.155843512
1.155815039
1.156030405
1.156022047
1.156026957
1.156046199
1.156087397
1.156164875
1.156288468
1.156440154
1.156567521
1.156642784
1.156555601
1.156435666
1.156293258
1.15618829
1.156095354
1.156060269
1.155817113
1.155823166
1.155843185
1.155869622
1.155185932
1.155101852
1.155010912
1.154932322
1.155124338
1.155112252
1.155153236
1.155346453
1.155541772
1.155903302
1.156479077
1.157216124
1.157964824
1.105400352
1.133568687
1.157377862
1.15667801
1.156076646
1.155568646
1.155318736
1.154972879
1.15496452
1.155015771
1.155093464
1.154440157
1.154295213
1.154143128
1.154025112
1.154218837
1.154234253
1.154346534
1.154678178
1.155168844
1.156052543
1.157497238
1.000850774
0.911688567
0.8671292821
0.907314553
1.019119445
1.157810847
1.156435119
1.155333833
1.154747659
1.154199173
1.154132139
1.154187898
1.154308046
1.153679437
1.153479237
1.153275595
1.153135073
1.153326598
1.15341032
1.15365954
1.154262536
1.155298552
1.157301792
0.8708057423
0.6949629541
0.5982317313
0.5967882179
0.6467736381
0.7435020494
0.9074944258
1.157769721
1.155676083
1.154491696
1.15355823
1.153373293
1.153394513
1.153538764
1.152896262
1.152636465
1.15238774
1.152245873
1.152477491
1.152673572
1.153202736
1.154202241
1.156360029
0.8537559731
0.5752916708
0.41961766
0.3573433811
0.3689313668
0.4315634159
0.5250238774
0.6635770138
0.8940431577
1.156970065
1.154691136
1.153141253
1.152679972
1.152612661
1.152755783
1.152112694
1.151808047
1.151529172
1.151399961
1.151686887
1.152058942
1.153007017
1.1546807
1.023612709
0.625226012
0.3764328964
0.2319505604
0.1775570264
0.2050729773
0.2785267469
0.3735145687
0.4984431266
0.6908400217
1.010997717
1.155465403
1.15292816
1.152071499
1.151854481
1.15196471
1.151327081
1.150974059
1.150675172
1.150586733
1.150972341
1.151588491
1.153095962
1.155784386
0.851398442
0.492976515
0.2644173435
0.1168541903
0.06437187071
0.1009369844
0.1831564502
0.2781872438
0.392282504
0.5553984549
0.8524297254
1.156859764
1.152941641
1.151530052
1.151082182
1.15112422
1.150565438
1.150182287
1.149880911
1.149843974
1.150362208
1.151291893
1.153522917
1.157277423
0.7693829815
0.4531969954
0.2482706025
0.09965764797
0.05608347183
0.1370747175
0.2274498705
0.3322229448
0.4765685749
0.7439686097
1.113347471
1.153213527
1.151103506
1.150337805
1.150275882
1.149846267
1.149426598
1.149132173
1.149187491
1.149896435
1.151186654
1.154243764
1.158932154
0.7535561316
0.4849885032
0.3308972365
0.2450029887
0.06601550244
0.132122037
0.2117237307
0.3073202352
0.438329141
0.6854563096
1.026607258
1.153717852
1.150795438
1.149642906
1.149447766
1.149196643
1.14876344
1.148489296
1.148666826
1.149532679
1.151271097
1.155186517
1.156543297
0.7724748102
0.5465221257
0.4475222019
0.4842574437
0.09107268456
0.1478806202
0.2198425541
0.3085286002
0.429431928
0.6611210243
0.9734508578
1.154475631
1.150707636
1.149115643
1.148760294
1.148616166
1.148157896
1.147920841
1.14827434
1.149261004
1.151526322
1.156286889
1.155652393
0.8029673136
0.6030391833
0.5328716803
0.5846112616
0.12355964
0.1766505525
0.2443466701
0.3289193059
0.4445943939
0.666073849
0.9494080634
1.155398766
1.150829239
1.148791301
1.148263646
1.148140191
1.147673303
1.147476204
1.147979884
1.149105131
1.151912958
1.157479436
1.164082251
0.8359625899
0.6402402131
0.5554085131
0.5093725132
0.1605483873
0.2169746039
0.2854570247
0.3679637204
0.4832855906
0.6970474292
0.9573282861
1.156532973
1.15123125
1.14876378
1.148062541
1.147720515
1.147242508
1.147114778
1.147804762
1.149071711
1.152375899
1.158695278
1.165848342
0.8756902333
0.6682157195
0.5353721672
0.4510777807
0.07485573615
0.2063522432
0.2763942327
0.3488754524
0.4323132072
0.5533823832
0.7504353775
0.9884026192
1.157710469
1.151823139
1.148971649
1.148119323
1.14741113
1.146927902
1.14686135
1.147691705
1.149220841
1.15313736
1.160152832
1.167666885
0.9369406967
0.717546129
0.5497331032
0.2912812511
0.1366345751
0.3036647341
0.3823705436
0.4526338777
0.5302494719
0.6474539442
0.8299496407
1.042365498
1.158908024
1.152603111
1.149420463
1.148437418
1.14713076
1.146637622
1.146626161
1.147607097
1.149366996
1.153736149
1.161257735
1.169107132
1.04519197
0.831906501
0.6501849346
0.08101261177
0.1963833614
0.4777058095
0.5849572085
0.624310622
0.6840808717
0.7855092171
0.9506776125
1.134844862
1.160012175
1.153400453
1.149977803
1.148907069
1.146935536
1.146434534
1.146465048
1.147569789
1.149530316
1.154285146
1.162245281
1.170203935
1.169266406
1.035282951
0.9163000446
0.0572163825
0.207206823
0.4775411454
0.7213040372
0.9016768857
0.9035923392
0.9702827368
1.115459336
1.168081657
1.160982149
1.154199
1.150613457
1.149478796
1.146722938
1.146206796
1.146263473
1.147492804
1.149669624
1.154743139
1.163062905
1.171065122
1.171322138
1.139510015
0.9380081378
0.09441806472
0.1785423236
0.4537701512
0.7034950388
0.9055692903
1.045973909
1.12391727
1.162140796
1.168860343
1.161734857
1.154886013
1.151199032
1.150029567
1.146569215
1.146041224
1.146107643
1.147418025
1.149752673
1.155080873
1.163658674
1.171729423
1.172290032
1.143679386
0.9637750035
0.163374458
0.1359912997
0.4225097797
0.6874535399
0.9049955846
1.048307711
1.125179594
1.162730688
1.169251013
1.1622618
1.155447039
1.151748753
1.150562735
1.146358421
1.145814038
1.145875295
1.147259785
1.14976102
1.155281336
1.164018795
1.172060452
1.172265627
1.142595767
0.9613096663
0.2060009255
0.1153078893
0.4068059969
0.6863285681
0.9079380144
1.049230119
1.125485917
1.162786155
1.1692963
1.162538893
1.155816281
1.152145281
1.15095976
1.146194381
1.145641601
1.145688321
1.14709746
1.149685707
1.155340026
1.164147145
1.172061149
1.171700641
1.138015194
0.9253288271
0.1839136024
0.1214260658
0.4095578153
0.6874861674
0.9091219492
1.049217306
1.125226172
1.162487093
1.16908678
1.162678684
1.156111406
1.152487925
1.151302957
1.145945068
1.145383564
1.145410648
1.146844477
1.149532685
1.155263097
1.164057544
1.171756285
1.170648573
1.132037451
0.882710309
0.1666772472
0.1282586413
0.4109511602
0.6855501203
0.908454038
1.048584252
1.12468632
1.161987152
1.168709591
1.16263718
1.156234302
1.152666494
1.151484286
1.145743125
1.14518396
1.145193082
1.146611838
1.149312504
1.15506743
1.163774192
1.171179674
1.169157699
1.124776301
0.8360087749
0.1570009844
0.1334028027
0.4109253462
0.6819230842
0.905844223
1.047491916
1.124038501
1.161390121
1.16823407
1.162550494
1.156339622
1.152823323
1.151634019
1.145435744
1.144879763
1.144873716
1.14629346
1.14904259
1.154776828
1.163331005
1.170374431
1.167278557
1.116115853
0.7921944838
0.1518213633
0.1371838747
0.4097973756
0.6773166462
0.9017378507
1.045985931
1.123334082
1.160743752
1.167705871
1.162339373
1.156296588
1.152824014
1.151624819
1.145184271
1.144641892
1.144627219
1.146018446
1.148731738
1.15441327
1.162762418
1.169384666
1.165042024
1.105481341
0.7559958267
0.1496355107
0.1400299916
0.4077972128
0.67211483
0.8968805746
1.044116448
1.122546065
1.160055523
1.167147937
1.16214729
1.156288418
1.152849198
1.151629195
1.14481251
1.144282858
1.144262699
1.145649386
1.148389593
1.153990753
1.162090403
1.168234007
1.162406725
1.092373837
0.727161726
0.1495790631
0.14204549
0.405061658
0.6665626377
0.8918713348
1.041995088
1.121633907
1.159317069
1.166569024
1.16184711
1.156136379
1.152722105
1.151480265
1.144508112
1.143999558
1.143980879
1.145337589
1.148014751
1.15351572
1.161320382
1.166909249
1.159221463
1.077103145
0.7042199187
0.1513563151
0.1430825095
0.401741606
0.6613141031
0.8873435358
1.039800995
1.120581825
1.158521448
1.165970967
1.161604828
1.156061651
1.152664775
1.151393096
1.144075797
1.143585088
1.143567718
1.144917116
1.147612636
1.152990885
1.160449322
1.165367425
1.155226734
1.060194156
0.6847383171
0.1539196418
0.1441733883
0.3992222385
0.6576807155
0.883948672
1.037709652
1.119399581
1.15766882
1.165354426
1.161245223
1.155831698
1.152448232
1.15114894
1.143719355
1.143253356
1.143244713
1.144566914
1.14717928
1.152418897
1.159475743
1.163559693
1.150117748
1.041492105
0.6652878295
0.1551467316
0.1469381208
0.3993590974
0.6565774779
0.8818560085
1.035769071
1.118105019
1.156765244
1.164720759
1.160976216
1.155716097
1.152341233
1.151008272
1.143241524
1.142794885
1.142790583
1.14409955
1.146722106
1.151802982
1.158404066
1.161459595
1.143672606
1.020637789
0.6433641727
0.1535555848
0.1519708988
0.4024753642
0.6575954474
0.8806609094
1.033920001
1.116718717
1.155820445
1.164072689
1.160572086
1.15542995
1.152063907
1.15070196
1.142832822
1.142411941
1.142420861
1.143709508
1.146237252
1.151147154
1.157240953
1.159060456
1.135879544
0.9981647999
0.6196099532
0.1499325635
0.1583624481
0.4072610447
0.65963245
0.879864624
1.032105989
1.115265607
1.154845556
1.163414622
1.160289429
1.155286175
1.151924284
1.150527575
1.142338275
1.141935926
1.141949897
1.143214725
1.145733879
1.150454673
1.155990182
1.156357683
1.126953122
0.9752845363
0.5964028721
0.145936284
0.1650429583
0.4124678886
0.6619299958
0.8792096989
1.030318175
1.113772697
1.153851571
1.162749791
1.159860884
1.154970617
1.151616419
1.150192008
1.14186609
1.141489462
1.141518756
1.142773836
1.145208096
1.149728869
1.154650598
1.153336523
1.117145899
0.952887709
0.575036829
0.1423853768
0.1715749384
0.4176265566
0.6642515601
0.8786395325
1.02857503
1.112264577
1.152848213
1.162084582
1.159563074
1.154793475
1.151441705
1.14998257
1.141402541
1.141042158
1.141077028
1.142296425
1.144668503
1.148971672
1.153216959
1.149977593
1.10665414
0.9312735975
0.5555488434
0.1392598106
0.1779072292
0.4226783703
0.6665830869
0.878167609
1.026899469
1.110760965
1.151843405
1.16141822
1.159153252
1.154494967
1.151150183
1.149667016
1.140833308
1.14049879
1.14054873
1.141762238
1.144115121
1.148187962
1.151683427
1.146264392
1.095623964
0.9104468401
0.5376008513
0.1365262752
0.1840737799
0.4276429954
0.6689533971
0.8778149283
1.025311749
1.109279874
1.150846247
1.160762579
1.158795639
1.154246083
1.150905133
1.149387029
1.140470745
1.140149381
1.140206223
1.141393782
1.143558957
1.147388234
1.150055802
1.142193227
1.084171799
0.8903641006
0.5209529983
0.1341306831
0.1901111063
0.4325414557
0.6713807837
0.8775962855
1.023827717
1.107835696
1.149875912
1.16011869
1.158511115
1.154045871
1.150709244
1.14917321
1.139707819
1.139417197
1.139491695
1.140658316
1.143043266
1.146611439
1.148397513
1.13777217
1.072448345
0.8711245824
0.5055606336
0.1322325324
0.1960092378
0.4373563721
0.6738605927
0.8775068276
1.022453667
1.10643545
1.148997476
1.159555249
1.15802606
1.153696958
1.150367635
1.148791497
0.2151748057
0.05861103429
0.04879837116
0.4656171633
0.08293342251
0.06143787695
0.5936033567
0.1163740713
0.08687292239
0.5177694154
0.147166522
0.1213338708
0.45652355
0.05556152706
0.07012100043
0.1814177973
0.1510200202
0.342776841
0.09760385153
0.05720622852
0.1235915782
0.2453615742
0.1845134212
0.09623279314
0.06518414235
0.05056843977
0.09549944679
0.0298652866
0.02079839733
0.06363435673
0.1123004275
0.1171885884
0.4193575294
0.4458667161
0.2527703683
0.04110211442
0.04990259336
0.08774066834
0.1266997982
0.1142688093
0.517101691
0.5993843882
0.4665849207
0.5381079664
0.2249303673
0.2598518275
0.0692762935
0.05064707136
0.1194064698
0.1541112426
0.1325608588
0.5543040571
0.6048932606
0.6128861908
0.5570459464
0.1377771807
0.184567496
0.1220602739
0.09221556341
0.5395324925
0.518922512
0.5961148766
0.4948900489
0.07691129112
0.1042794128
0.0230812774
0.1383396444
0.1330114505
0.5404663798
0.3869054891
0.5062416415
0.4115161175
0.02859908861
0.04793862403
0.274672642
0.1456057887
0.1109762058
0.07843185994
0.2051795748
0.03675229562
0.07044975961
0.04839244615
0.03112089821
0.0510575288
0.03296362048
0.04646785039
0.2648086003
0.3016528861
0.3802148069
0.2308732952
0.2085387345
0.2484816018
0.2352364173
0.05017807744
0.04091203447
0.07271584565
0.05877422692
0.06590555293
0.04768118273
0.05905523105
0.07125662872
0.1880132517
0.2199188405
0.5601953533
0.1679554589
0.1380597718
0.2061559921
0.1704649147
0.08820159691
0.07085038802
0.1037784284
0.09378938476
0.1138587422
0.06651965197
0.09063384568
0.09934365932
0.1058677159
0.135844172
0.5477084838
0.1072100315
0.07911772724
0.1363796069
0.1087583099
0.1321184919
0.1256640673
0.04892646027
0.07501590327
0.4923549333
0.01580305516
0.05155870635
0.03036209058
0.07795968243
0.05317056917
0.01385493955
0.1440571837
0.1399038085
0.02611235909
0.004669304096
0.02826821911
0.4055756524
0.08244094368
0.01774818245
0.009797672316
0.03001627761
0.01808281797
0.08064679085
0.303356735
0.22531894
0.1166743306
0.1281821912
0.07837001153
0.04357511016
0.01736104212
0.008859145722
0.3473259808
0.3066860737
0.2264384993
0.009402066226
0.1534660573
0.190167146
0.1623967688
0.009986041864
0.0764667919
0.06686449425
0.0944657872
0.1596103175
0.1475599196
0.1989402377
0.08750700421
0.1451325539
0.04264221617
0.01426331458
0.02483544495
0.0238682282
0.03127763604
0.0496843421
0.06486064679
0.04707737823
0.1359750814
0.1259121232
0.1340977838
0.1151147946
0.1247161306
0.1327350371
0.03748802039
0.0115394188
0.06821391855
0.02568904276
0.04442205687
0.03573654918
0.02111319389
0.03320322403
0.02448578067
0.01652500879
0.02401114416
0.02160506905
0.01065076075
0.01736986096
0.02273391
0.05156035477
0.05234881852
0.06017897211
0.05887424792
0.02317820192
0.01082425573
0.1088781782
0.01953227455
0.03661433241
0.009912531175
0.0165147997
0.104517993
0.0922404823
0.2767451865
0.2614021713
0.09588954654
0.08145003889
0.01027811625
0.04288014943
0.1956578488
0.1810493147
0.2159422162
0.2015883716
0.04325886135
0.05331874159
0.0429883147
0.1180422238
0.0703826332
0.0657987808
0.04046338128
0.06975303706
0.134211903
0.0448377734
0.02601853098
0.01634467386
0.05826574216
0.02896585442
0.04977224198
0.02754835453
0.06972749948
0.03884914303
0.03840960675
0.225453867
0.03043826796
0.2244531383
0.2580826738
0.03461130584
0.03932131759
0.03090818834
0.03404562055
0.2522768452
0.04813829004
0.04777731836
0.0628374245
0.06946223958
0.06484940249
0.07593518785
0.07105711572
0.06319857964
0.05784351103
0.05733261781
0.05231677856
0.06319649363
0.0587118633
0.05937653097
0.1531792206
0.1512517804
0.1895368243
0.1873125775
0.08348305575
0.00965920731
0.08191256633
0.09664756246
0.09463879715
0.1218706195
0.1200004205
0.03916314507
0.05779274214
0.1300609231
0.04382157739
0.02500149214
0.06545761344
0.2361618283
0.2211776779
0.256238685
0.2411465646
0.06683809144
0.03403519344
0.04694140066
0.0459176061
0.07031752536
0.06941064943
0.006656107137
0.0454090641
0.1151758328
0.1008435955
0.1753706017
0.164384577
0.02243082347
0.01144890403
0.02759481921
0.01785415463
0.02854120959
0.0107974331
0.01652470088
0.01114656447
0.02857077371
0.07302813873
0.01217652609
0.02383726472
0.003540221717
0.02398839615
0.01781086478
0.6099248996
0.3862657032
0.3677537439
0.2554576315
0.008031492122
0.0053071561
0.1897742655
0.4028222619
0.2762367492
0.006245937889
0.01537858158
0.01134198966
0.1214552454
0.1202054795
0.04917406756
0.1982596141
0.1657480302
0.09794678616
0.01046979236
0.01804963535
0.0142014378
0.00918254205
0.01381923953
0.009740755734
0.04418174899
0.01941233124
0.01819455832
0.05442180954
0.06490251893
0.01975825639
0.02702904722
0.01248628067
0.01242787374
0.05283117559
0.1542288504
0.3573164731
0.3420436621
0.3777966249
0.3624282964
0.1579994902
0.2968199358
0.2816191101
0.0936570496
0.03150856987
0.09501122813
0.0893216953
0.01050546535
0.01618959312
0.1201803281
0.04469544419
0.0219471348
0.01958580203
0.03820221262
0.04455317157
0.04041759882
0.05075688454
0.0459950835
0.0393963557
0.04914409064
0.01301264421
0.01255680675
0.04267802233
0.2015109684
0.3982783961
0.3828752331
0.05945194932
0.06157867664
0.1436643306
0.02869843511
0.03136191353
0.07519954446
0.1036115284
0.1038151014
0.09596873691
0.07394336179
0.08362742763
0.07783475561
0.0931086588
0.08591885414
0.0752612177
0.1208771742
0.3168992453
0.3017933258
0.3369974586
0.3219378607
0.1229194818
0.1027559787
0.0354447485
0.03617574464
0.0203864887
0.02118131451
0.08389498027
0.1303818022
0.05500879757
0.05901865915
0.03648894492
0.03717552872
0.1134226639
0.1313300809
0.06063497293
0.0806360313
0.006928759847
0.02304057807
0.04917100372
0.03713615555
0.07462752733
0.01975652397
0.02024276965
0.01932694139
0.06271257486
0.01070016496
0.004397049237
0.1236092956
0.1037853348
0.08736290608
0.082746779
0.02786923611
0.02589665579
0.03910280424
0.08772859187
0.01752877374
0.01087543101
0.02452063079
0.03233267464
0.002884339722
0.02951681027
0.01908162816
0.01256779103
0.006419424893
0.01242221964
0.009536374075
0.00938956577
0.03549052214
0.02694749414
0.006601711453
0.03902877303
0.04095943076
0.01651668525
0.01138335792
0.007835880707
0.01179741745
0.01804910396
0.01147178887
0.01621538664
0.05524181718
0.01019536659
0.009396681193
0.01095504118
0.01434338558
0.04520932267
0.0108835133
0.01038062625
0.01454467887
0.01094752946
0.01081509269
0.02468126656
0.01654088431
0.03518943544
0.02772014904
0.01066268471
0.02070860973
0.02203732668
0.01900474493
0.03063339932
0.02344518318
0.01860262979
0.01671891932
0.01300967966
0.01672482365
0.01306653986
0.04660561445
0.05504119445
0.01787562877
0.01681826022
0.01839392322
0.01910310281
0.06337719332
0.01110869678
0.01142162191
0.01509263248
0.01135500351
0.01156144524
0.0542588397
0.01194903723
0.01798197389
0.01560830872
0.01388273234
0.02600800124
0.06777372366
0.06182082425
0.01269309107
0.05130338258
0.0441403113
0.05963723726
0.05377662291
0.01341440298
0.01269001439
0.04744102353
0.03892495352
0.1041512202
0.09706374954
0.03513435509
0.04546109632
0.1120617941
0.1061067824
0.04715604459
0.04608898263
0.0734529863
0.09182322021
0.1164642844
0.06864417974
0.08577691935
0.07467288073
0.06326499827
0.1583302404
0.1432324068
0.129178793
0.1626869746
0.06317563957
0.04223232755
0.05012728134
0.06285379133
0.03676768996
0.04145690188
0.03029734633
0.02881238696
0.04336944574
0.0209849333
0.02108512822
0.01674620465
0.0300453732
0.03220970231
0.02189532139
0.03031004578
0.03495191208
0.0372432181
0.03171817238
0.02849436757
0.1007900725
0.08699285519
0.108573768
0.1037395453
0.02968868234
0.07718477103
0.07457288827
0.08308150633
0.0781317932
0.0363355912
0.1297655422
0.123862072
0.139552725
0.1318937159
0.03701178361
0.03215956214
0.1150402237
0.1102728632
0.1220000044
0.1167238397
0.03254419259
0.01375326028
0.01322578582
0.04885885064
0.04441238328
0.01354561972
0.01393983642
0.04234777363
0.04152377804
0.04465042424
0.04263098742
0.04003071118
0.03892635097
0.04125419316
0.04031268847
0.07064961911
0.06840511639
0.07376669267
0.07143981793
0.06230367894
0.0475107286
0.06746258877
0.06511971609
0.03227583011
0.02722359122
0.04205489102
0.03503087782
0.008849214534
0.01719036562
0.01604848067
0.02538952906
0.01784656083
0.03446552986
0.03508165806
0.1012392761
0.02031170977
0.02011091742
0.02096311101
0.02050082375
0.01946729815
0.086447868
0.02176598765
0.03238046309
0.03936428771
0.05298742743
0.128315123
0.03601085734
0.02308026209
0.03878208624
0.0357325805
0.02173781574
0.02120220247
0.02266325643
0.02196455059
0.1150135424
0.0374114389
0.03831099917
0.006636288432
0.03570591834
0.00938822036
0.01020552612
0.009379938915
0.03303391962
0.007118471303
0.02588194983
0.01020740474
0.01069272978
0.0484978077
0.04193811964
0.01915611956
0.01964776145
0.07361294141
0.06499350742
0.01827780959
0.01908680684
0.009835467255
0.02676711146
0.0799292481
0.07103512444
0.01181659698
0.01145053085
0.0167301912
0.01109340087
0.01167650471
0.02240717116
0.02940204709
0.007501605057
0.013055243
0.01079550635
0.01192982726
0.01988896868
0.05792039466
0.1237005254
0.1605621576
0.009677803759
0.009652698609
0.1887642041
0.2413259944
0.2012504831
0.006590873666
0.04773038193
0.01610223775
0.02372784012
0.1384815469
0.1441949359
0.1611686502
0.005111577547
0.008146243221
0.006052754818
0.004992619108
0.006160275503
0.004844463079
0.062237179
0.03920645309
0.02437569084
0.02682085728
0.02366042222
0.02736713363
0.2399933399
0.4391470566
0.423850375
0.4593969697
0.4442371166
0.2449362382
0.05832431253
0.0504161892
0.01456120144
0.08543396646
0.09968154297
0.1355685129
0.1200324878
0.1139606185
0.04596046922
0.02896359329
0.03458829329
0.03360093589
0.4187483558
0.4033810375
0.2059095593
0.1612741806
0.06783932994
0.07204408533
0.07543567637
0.08739270206
0.1780820571
0.0567275784
0.1291492687
0.122142933
0.01088156361
0.01118404391
0.01788489644
0.0188952496
0.01917746705
0.03118373559
0.01219469392
0.01004519965
0.01025955583
0.03454536679
0.06996118637
0.06056642011
0.0177111107
0.0297964592
0.01847667179
0.01863812196
0.01809041749
0.01465649038
0.009724908027
0.01285616301
0.01165298938
0.01000608886
0.02950460144
0.03714915352
0.07583784175
0.04116620012
0.03912271614
0.03572086085
0.02632139593
0.05781988867
0.01901728211
0.02666430679
0.01059285666
0.007367643277
0.007453975143
0.01082933103
0.01052066647
0.02532867318
0.01595295044
0.01079558159
0.02191787395
0.02007365941
0.01847691137
0.0200271785
0.0241951996
0.02116673463
0.01179706679
0.01275484221
0.007355150224
0.009429540237
0.01216644819
0.07607524112
0.06976338918
0.02836457743
0.009616929443
0.01730116553
0.01550512074
0.01108160415
0.01744011242
0.01490667625
0.0508379911
0.03844493527
0.04408123415
0.07152946582
0.104211422
0.1022815191
0.04220958321
0.07089237328
0.06662424774
0.1009690968
0.09844602698
0.06787750945
0.03749278643
0.04537709212
0.03852236424
0.02950968762
0.03084932416
0.02512707968
0.05016094338
0.04846311999
0.05668159797
0.02267450674
0.03320237667
0.03149353352
0.05303668088
0.05261132367
0.03016629946
0.0276480246
0.02721142015
0.03042360895
0.02968097503
0.03522429307
0.06025359964
0.05951389516
0.06469546785
0.06375736733
0.03846470223
0.03127346867
0.05447329607
0.05387620369
0.0587556923
0.05801308713
0.03352537047
0.06492842022
0.06704939338
0.1591959366
0.1454651872
0.06221640877
0.06425875281
0.09528871826
0.09901214406
0.1965705385
0.02555412564
0.02541447293
0.02696063921
0.02673627227
0.01936219735
0.02512923808
0.02503121137
0.1803978476
0.08991237866
0.09390392647
0.009930961662
0.01002492886
0.01491892732
0.01416279771
0.00970649026
0.009937323238
0.009622704265
0.07673682549
0.03263087477
0.04011692897
0.1382758657
0.1314880097
0.06003441334
0.06995764799
0.1464881378
0.1403098812
0.0305254924
0.03059365724
0.04731086974
0.04557462704
0.03013219834
0.03009484385
0.00990674892
0.02131187504
0.03370196334
0.03353541826
0.008141066521
0.01361579193
0.02475364913
0.01200276207
0.01178034418
0.01760603307
0.01784864108
0.02898687302
0.01094840995
0.007801316555
0.01082003873
0.01088963287
0.02706425129
0.01712952829
0.01770694888
0.01629361271
0.04473043859
0.03771964487
0.009841457573
0.009899021712
0.01107102528
0.01168544834
0.01977009191
0.006767511592
0.004510906362
0.008274498681
0.01337554802
0.009538068298
0.01043537541
0.009483883703
0.009766102438
0.01188773248
0.01086900647
0.007185419823
0.005429943148
0.01665329958
0.01717568501
0.01605780194
0.01624854792
0.01886190604
0.02856753036
0.02896240264
0.02803723261
0.02839377025
0.0186865133
0.01229192693
0.02191572024
0.02185938596
0.02264306051
0.02206444673
0.01205291475
0.020896529
0.03190661759
0.03530508353
0.02929425705
0.03020579319
0.02026441092
0.01295211106
0.02185989854
0.02183115347
0.02181439205
0.02184602773
0.01274715779
0.01543323467
0.0157950688
0.01486721843
0.01561753376
0.03560303316
0.05510891022
0.05461805886
0.020635152
0.03416629624
0.03392434957
0.03545058599
0.03451172503
0.0208328314
0.01025624633
0.0100461827
0.01037206332
0.01025086599
0.01917511703
0.01899110479
0.01958066617
0.01937399873
0.01493934025
0.03317818655
0.01975855132
0.02065866086
0.0199366039
0.03346182163
0.03324592733
0.03377863577
0.033601362
0.0200653013
0.0204560098
0.01987629533
0.02994797678
0.02140409518
0.01533464804
0.006834463518
0.01002261455
0.01119069493
0.00673737976
0.04017777004
0.02764588358
0.003049742383
0.0278630485
0.04282202549
0.04243384057
0.01748409798
0.01079895016
0.00792393346
0.004080711843
0.0115222038
0.01155390702
0.01826481084
0.01841316501
0.02971740457
0.01850824135
0.00933198946
0.008340070946
0.01513415148
0.004042891744
0.009342956753
0.00728846476
0.005186681525
0.006509315778
0.009489697193
0.007965473895
0.00975850323
0.01107258322
0.01023522422
0.04091725883
0.03094213324
0.008783081757
0.01091626681
0.01226453218
0.01869868106
0.02106360439
0.01313132547
0.01625863302
0.01454223132
0.009640347218
0.006573879018
0.009699252506
0.01040831168
0.00707256448
0.01038197972
0.01043733303
0.01278477184
0.01085082814
0.01080533519
0.01060951878
0.01040450532
0.01176368881
0.01133530421
0.01090407443
0.01069822608
0.01098204312
0.01314192155
0.0122295091
0.0258330627
0.02181107098
0.02530373232
0.02729231887
0.0303369725
0.02512723965
0.02328901688
0.02493860186
0.01591871768
0.02533695304
0.0268863089
0.0184028709
0.02545062091
0.0168960218
0.01750583892
0.02749960252
0.02785430401
0.02689240099
0.02736581761
0.01727928452
0.01861035473
0.03266219529
0.03213289063
0.01126639849
0.0113447824
0.0129893359
0.01021669576
0.01056297286
0.01093684866
0.01145648326
0.01101504611
0.01440625105
0.02708610136
0.02421710561
0.0312878124
0.02970085097
0.01683073868
0.009361652196
0.01060701592
0.01855959541
0.006986943138
0.009379977653
0.009373262081
0.01323186188
0.009428366259
0.009661354402
0.02278564362
0.02022222079
0.0110123245
0.04869817161
0.04478130391
0.08941089688
0.07904970123
0.04435436196
0.06754949202
0.09727910259
0.09281011155
0.03672538251
0.03342534916
0.03318576292
0.02338457147
0.0289255968
0.04811421048
0.04828286846
0.04087628425
0.03021975854
0.04282249548
0.04233757889
0.03908020848
0.04036810391
0.02855319404
0.01995897315
0.02133395159
0.03196311421
0.02286646301
0.0218473596
0.02418400896
0.02307004385
0.03244363891
0.02241683585
0.02307124617
0.01854111926
0.02392877056
0.04804651437
0.04826845278
0.03003797283
0.02964489722
0.05145971171
0.05145247701
0.02838152171
0.02796150859
0.02920250564
0.02875138181
0.06162823258
0.0609099864
0.03567404217
0.03772507711
0.06303506079
0.06233555972
0.05589068968
0.05524527332
0.03177103876
0.03298153882
0.05725664592
0.05657010551
0.01352057589
0.02186134285
0.02186262578
0.02187707174
0.02188576003
0.01344713527
0.01407478499
0.02022345104
0.0175769848
0.02173333162
0.02132567638
0.0140072911
0.04205920399
0.02424374633
0.02451678915
0.02382651798
0.02402934494
0.04179793667
0.04348003116
0.02545401237
0.02592485431
0.02477993632
0.02509227657
0.04297189067
0.03962689186
0.0226098554
0.02285239734
0.02224488978
0.02247701228
0.03938710773
0.04095717174
0.02343734953
0.02362541951
0.0230135124
0.02325102841
0.04067266661
0.02600455069
0.02582230528
0.06991015236
0.04564829706
0.04599707785
0.04488299119
0.04518323233
0.0690841027
0.02646475927
0.02625729831
0.02390423095
0.0251736764
0.06005354315
0.04090579343
0.04057798433
0.02681005445
0.02821153203
0.05316496675
0.06693569854
0.0441192989
0.04433019418
0.04334098669
0.04328213344
0.06553705478
0.02469066206
0.02474557231
0.009887048905
0.01022302995
0.009566541148
0.01336084599
0.01150256144
0.01678897484
0.01051775564
0.01039519452
0.01057391001
0.01056085331
0.01651992521
0.02270805
0.01207670419
0.01413415528
0.0106407921
0.01027526616
0.01964401595
0.03439744108
0.05242065552
0.05209900261
0.05388513036
0.05351127871
0.03498443483
0.02027206883
0.02003581545
0.02084437014
0.02056855295
0.0206186241
0.01618101892
0.02285179406
0.04251056667
0.03775481134
0.04986652726
0.04802984026
0.03245191455
0.02500658736
0.01748890648
0.02243956955
0.02379087813
0.03807711457
0.02190126729
0.02218634792
0.02125791461
0.02196448446
0.03814488871
0.02157501446
0.02134554744
0.02240353405
0.02215580388
0.009645841688
0.01314274886
0.01242365752
0.01754899867
0.01457130395
0.009550262725
0.009356781121
0.00962042462
0.01158340159
0.01045018293
0.006732197189
0.01038675011
0.01114739684
0.01095897844
0.01344448716
0.01203650539
0.01018801544
0.018564989
0.01852543667
0.01879845468
0.01874198091
0.02856047578
0.02848657474
0.04359290546
0.01778742238
0.01879151312
0.01830274325
0.01836727376
0.01937046635
0.03268314558
0.03233979118
0.0330967015
0.0328244103
0.01945282904
0.01881540826
0.03164716931
0.02989017407
0.03220604392
0.03165844857
0.01880594117
0.01012595444
0.04081672649
0.04018691665
0.02662554166
0.01185919395
0.010130811
0.01024383176
0.007532013431
0.01047453779
0.01148049848
0.01730807128
0.01130000041
0.01186318796
0.01161617897
0.02911066348
0.01795353414
0.01815432121
0.01065259861
0.01095307566
0.0108471597
0.01110947981
0.01128233643
0.007867466364
0.007824875733
0.01149887966
0.01090205346
0.01118342738
0.01456181693
0.01794601802
0.02714998079
1.154825591
1.155101443
1.155481794
1.155224668
1.155733907
1.155797188
1.15594559
1.156761028
1.156321233
1.157079011
1.129443468
1.157036978
1.08797943
0.9850443696
1.157763903
0.9881004917
0.9306455476
1.107019201
0.9316550974
0.9568466819
1.125021242
0.971062617
1.056264623
1.157557346
1.08738431
1.157740122
1.156841766
1.157385442
1.156508409
1.156209213
1.15433655
1.154927544
1.155015374
1.155199986
1.156323428
1.155787856
1.156865227
1.028445564
1.157072682
0.959503858
0.8018366553
1.047515779
0.7626725566
0.6825205466
0.9256577272
0.6687582892