/*--------------------------------*- C++ -*----------------------------------*\
| =========                 |                                                 |
| \\      /  F ield         | OpenFOAM: The Open Source CFD Toolbox           |
|  \\    /   O peration     | Version:  v1912                                 |
|   \\  /    A nd           | Website:  www.openfoam.com                      |
|    \\/     M anipulation  |                                                 |
\*---------------------------------------------------------------------------*/
FoamFile
{
    version     2.0;
    format      ascii;
    class       volScalarField;
    location    "0.2";
    object      k;
}
// * * * * * * * * * * * * * * * * * * * * * * * * * * * * * * * * * * * * * //

dimensions      [0 2 -2 0 0 0 0];


internalField   nonuniform List<scalar> 
12556
(
36.90870023
36.90876063
36.90887174
36.9090761
36.95443235
36.95512583
36.95646467
36.95958718
36.96590535
36.97702818
36.99276781
37.00733008
37.01289548
37.01336996
37.00858575
36.997094
36.98097233
36.9690861
36.96174644
36.95749207
36.91072555
36.90943091
36.90877567
36.90841736
36.72744295
36.72763759
36.72786704
36.72838429
36.77439042
36.77815481
36.78630263
36.82084226
36.85044465
36.90262913
36.98186431
37.03789463
37.06598431
37.0704061
37.0513728
37.01001151
36.93840776
36.87638236
36.81661464
36.7923193
36.73649294
36.73101698
36.7286759
36.7275996
36.54739212
36.54794158
36.5488014
36.55060162
36.59790281
36.60779443
36.62780002
36.68245967
36.7552942
36.87759239
37.01846276
37.12305292
37.17413234
37.18304719
37.14454095
37.06585056
36.94586784
36.81587885
36.69792265
36.64255413
36.56908607
36.55785913
36.55247998
36.55040699
36.36865694
36.36927976
36.37071768
36.37463538
36.42567474
36.44684829
36.49220889
36.58456778
36.73393759
36.93731151
37.15707035
37.32472602
37.4091649
37.40962881
37.33216476
37.19869289
37.01962964
36.82714932
36.62900598
36.52091692
36.41517304
36.39198924
36.38114888
36.37707166
36.19196092
36.1930724
36.1962151
36.20462327
36.26157115
36.30081054
36.38751949
36.5422065
36.78583337
37.10226232
37.44414221
37.71835593
37.88644285
37.87029585
37.70133855
37.45591143
37.18151139
36.90307068
36.63352154
36.4374179
36.27750519
36.23309848
36.21352682
36.20608604
36.01706765
36.01880038
36.02421456
36.03848282
36.10806194
36.1755326
36.32688041
36.55829603
36.91127814
37.38918525
37.96585872
38.54342386
38.94366099
38.83714231
38.38337558
37.91052902
37.46269183
37.05530155
36.67647231
36.39932924
36.15866632
36.0811385
36.04830246
36.03561903
35.84563057
35.84886708
35.85871694
35.88343281
35.96852938
36.07444476
36.31046117
36.61701197
37.10859968
37.8216374
38.8462621
40.41379744
41.17171944
41.05011022
39.59193366
38.63062689
37.88708301
37.28834713
36.76382807
36.40536784
36.05739997
35.9364338
35.88476962
35.86482164
35.67911138
35.68420893
35.69951583
35.73872055
35.8431747
36.0015277
36.32544181
36.71120398
37.35974842
38.36598816
40.08909144
43.64299602
44.50927882
41.52688559
39.63367195
38.45256408
37.59599904
36.89224785
36.43120905
35.97770423
35.801537
35.72468568
35.69531557
35.52108463
35.52942534
35.55339126
35.61167244
35.73627128
35.95741683
36.36335985
36.83688212
37.64647197
38.94176159
41.30182002
47.00472273
50.43302555
43.87145132
40.82087635
39.10999862
37.95482266
37.04727654
36.47327412
35.91639955
35.67908723
35.57248122
35.53177102
35.37347657
35.3853213
35.41835045
35.49792188
35.65096312
35.93917083
36.41861893
36.98077167
37.93704702
39.46755404
42.22516212
48.58149877
54.13503
45.98051819
42.00480548
39.78062987
38.32042364
37.21423515
36.5275309
35.87635433
35.57488951
35.43479202
35.38100083
35.23977529
35.2566826
35.30223591
35.40847355
35.58662189
35.94250726
36.48853086
37.13628984
38.21966507
39.93065356
42.95501216
49.44921865
55.78301371
47.54309351
43.01987447
40.38422985
38.66709795
37.3762938
36.5882492
35.85163806
35.49108813
35.31749775
35.24961235
35.11951122
35.14102366
35.19804808
35.32928996
35.54033786
35.9584126
36.56672461
37.29441932
38.48378763
40.33871639
43.59724198
49.43268563
56.41203497
48.57230659
43.78748239
40.86794277
38.9579576
37.52059449
36.64867324
35.84882216
35.42952024
35.22349148
35.1413783
35.01380802
35.0413373
35.11426428
35.27424904
35.50632012
35.98046904
36.64536056
37.44653529
38.71961422
40.69134289
44.22541042
48.99329573
41.20928821
56.13890727
49.16707608
44.29398134
41.2040103
39.1774812
37.63858243
36.70267354
35.85047774
35.38717344
35.15134655
35.05608715
34.91928126
34.95237553
35.03944758
35.22378373
35.49702886
36.03180758
36.76334782
37.61560457
38.96311532
41.05290815
44.8592706
47.59501858
45.94053091
56.00302985
49.41270337
44.5444376
41.40414688
39.32741312
37.72940804
36.74625547
35.85173796
35.35768056
35.09629727
34.98951793
34.83397331
34.87245042
34.97259341
35.17994394
35.48103673
36.06070254
36.84630953
37.7624053
39.17790017
41.33426045
45.18080923
44.4262874
49.8849719
55.0946918
49.24148618
44.5584889
41.4686377
39.41458152
37.78606025
36.77626034
35.8481534
35.33297315
35.05130659
34.93519187
34.75323628
34.79680727
34.90868477
35.1375154
35.46451698
36.08024174
36.92052567
37.91661219
39.44088928
41.71022325
45.37215261
42.41570617
48.57066112
53.65939951
48.56928636
44.3520572
41.42541386
39.43702069
37.81099682
36.79045825
35.83592254
35.30395795
35.00885
34.8854939
34.67514222
34.723328
34.84518018
35.09276271
35.4423271
36.0851105
36.96996319
38.04900789
39.752231
42.2084997
45.43491268
35.47994373
48.70241091
52.00406126
47.58398589
43.95286375
41.33945971
39.41824705
37.80468081
36.78485999
35.8099831
35.26903334
34.96313806
34.8342089
34.5949532
34.64727184
34.77770074
35.04181498
35.41117776
36.07499262
36.99030987
38.11144568
39.97010469
42.62692899
44.77370264
29.97217181
49.35677094
50.35918405
46.59227163
43.52324267
41.18065765
39.34991948
37.76242111
36.7453672
35.75992683
35.21783843
34.90844723
34.77579062
34.5130077
34.5688907
34.7063003
34.98381295
35.36905956
36.04667392
36.98327436
38.13088224
40.01671005
42.70630327
43.16885698
29.09306762
49.09790876
49.03007494
45.8638217
43.14566454
40.95940917
39.21871276
37.67477483
36.67470608
35.6905268
35.1524331
34.84238108
34.70807627
34.42493554
34.48391441
34.62736806
34.91649238
35.31508063
36.00171909
36.95288456
38.11718842
40.00574099
42.52173561
41.66785311
28.80405585
48.00920642
48.09338293
45.28536899
42.76750259
40.70888593
39.04826229
37.55529853
36.57760175
35.60221874
35.07138182
34.7629278
34.62804486
34.33402162
34.39558223
34.54386187
34.84161126
35.24950121
35.94175044
36.90164233
38.07673177
39.95311161
42.23256782
40.11694717
29.18981888
46.95957284
47.25802598
44.75654851
42.40259291
40.4475664
38.85554293
37.41304619
36.45954507
35.49850161
34.9775684
34.67234162
34.53767853
34.23522604
34.29904634
34.45180471
34.75739739
35.17339161
35.86888086
36.8341508
38.01559291
39.86547622
41.83758136
38.45366107
30.06942494
46.01323045
46.50581523
44.27038572
42.05606536
40.18561249
38.65152074
37.25498955
36.32555521
35.38055965
34.87017275
34.56887537
34.43492783
34.13516359
34.20085706
34.35717335
34.66790867
35.08808824
35.78536398
36.75398214
37.93868609
39.74779086
41.36859097
36.76341748
30.96142227
45.14352869
45.82096225
43.81966441
41.72824883
39.92850148
38.44302455
37.08671986
36.17985694
35.25321057
34.75443216
34.45762925
34.32472641
34.02631293
34.09374836
34.25376815
34.57015672
34.99525967
35.69342546
36.66433265
37.84985834
39.60207209
40.86833876
35.15191217
31.60683726
44.33058525
45.18915487
43.39831387
41.41761988
39.67884402
38.23420515
36.91243131
36.02594708
35.11598123
34.62772558
34.33524525
34.20350935
33.9195495
33.98843977
34.15131649
34.4705821
34.89628237
35.595032
36.56781113
37.75166645
39.42961235
40.34857108
33.68720801
31.92795177
43.56169767
44.59990086
43.00177228
41.12241437
39.43760108
38.02755813
36.73510115
35.86650859
34.97485711
34.49783296
34.20984854
34.0793636
33.8024512
33.87282567
34.03907505
34.36306789
34.79267178
35.49183475
36.46637592
37.64528382
39.23343708
39.81897073
32.39627363
31.96526219
42.82951886
44.04596419
42.62642407
40.84095464
39.20482583
37.82445609
36.55675536
35.70367045
34.82611665
34.35805065
34.07396341
33.94466785
33.69237042
33.76397534
33.93264476
34.25791787
34.6853551
35.38518486
36.36138965
37.53113896
39.01823742
39.29128262
31.27005883
31.79490529
42.13059197
43.52222013
42.2693299
40.57174048
38.98018732
37.62560521
36.37877744
35.5389139
34.67860549
34.22080193
33.94076839
33.81264792
33.56850322
33.6414946
33.81340358
34.14330395
34.57559737
35.27614254
36.25371699
37.40951327
38.78844855
38.77425043
30.27616916
31.46585026
41.46270219
43.0245235
41.92796128
40.31335538
38.76313957
37.43126871
36.20205089
35.37348552
34.5229407
34.07193676
33.79514841
33.66807818
33.45872781
33.53282443
33.70682967
34.03668999
34.46377479
35.16553365
36.14388446
37.28087239
38.5484417
38.27389454
29.3871641
31.0336852
40.82248558
42.54903658
41.60019457
40.06452143
38.55308154
37.24148219
36.02715048
35.2080382
34.3745797
33.93301972
33.65975357
33.53368703
33.32843447
33.40391
33.58108929
33.91600562
34.35109866
35.05401478
36.03219789
37.14587386
38.30151125
37.79422049
28.59890288
30.54059143
40.20732828
42.09338136
41.28419972
39.82405554
38.34937403
37.05612146
35.85442585
35.04339933
34.21351444
33.7764004
33.50577848
33.38059893
33.22289305
33.29938001
33.47841109
33.81216746
34.23736151
34.94208498
35.91891054
37.00528325
38.04982126
37.33734496
27.90067603
30.01716546
39.61532502
41.65544222
40.97844067
39.59090163
38.15139406
36.87500619
35.68409873
34.87966083
34.06954172
33.64138669
33.37372063
33.2493543
33.08492466
33.16284389
33.3449861
33.68436746
34.12404937
34.83016602
35.80430187
36.85991231
37.79567455
36.90415653
27.28161932
29.48437505
39.04509624
41.23329908
40.68167506
39.36415678
37.95855948
36.69786892
35.51630106
34.71764412
33.90124775
33.47537066
33.20995952
33.08634536
32.9883618
33.06718251
33.25102195
33.58873077
34.01023624
34.7186178
35.68853412
36.71061908
37.54159497
36.49453325
26.73186563
28.9562374
38.49547186
40.82630288
40.39287595
39.14303952
37.77032874
36.52442146
35.3511934
34.55694854
33.76889117
33.35123713
33.08807234
32.96508744
32.8395863
32.91993946
33.10682805
33.44974792
33.89841812
34.60802818
35.57201398
36.55820982
37.28942372
36.10784872
26.24405253
28.44302167
37.96584965
40.43257929
40.11128491
38.92695384
37.58629343
36.35455065
35.18924355
34.39917983
33.58624378
33.17037514
32.90942847
32.78711789
32.75739342
32.83854666
33.0269953
33.37019397
33.78710843
34.49937848
35.45590978
36.4034204
37.04079708
35.74345871
25.8110653
27.95014244
37.45651367
40.05106597
39.83637689
38.71543648
37.40610531
36.1879957
35.03185169
34.24438597
33.47828343
33.06669058
32.80703827
32.68513032
32.56795989
32.65106451
32.84327018
33.19185504
33.68215571
34.39503354
35.34397042
36.24752123
36.79760999
35.40304335
25.42642694
27.48267598
36.9716578
39.68444077
39.56920674
38.50872178
37.22979085
36.02474981
34.88374656
34.09895808
33.24243288
32.83345835
32.57625517
32.45509471
46.73114189
51.24621383
45.04304896
48.42768087
55.28741306
51.72946418
49.39097911
56.89689016
55.59632685
49.46475265
57.42429226
56.98947306
49.0180534
42.53040627
41.42117651
57.55428599
57.44840671
48.13746645
40.86410661
42.2367836
45.28425316
57.77781747
57.54960238
43.07028152
41.13095413
44.45362741
40.86411513
58.1246755
47.73593446
49.80949555
44.40932797
42.25675522
42.01903512
47.08399527
45.74087665
59.15993403
64.87450383
53.81185625
46.98715288
45.10909112
42.78941291
48.14820384
47.23761603
48.99591202
52.51158203
53.7031782
55.45621679
55.59729948
55.6575619
48.83860868
47.52226317
43.45855277
48.7198831
48.25052633
49.51871677
47.8774162
50.41695885
56.51000167
55.35304052
44.09620492
48.90090256
48.75990465
49.22285619
42.017021
44.95970306
63.4890779
58.12267982
57.61470683
44.7603762
48.5754406
48.89688249
48.77164816
34.33541762
38.06661651
46.3030094
41.90231883
40.96451601
52.87200909
55.64810338
46.47152979
52.26268833
64.91897309
58.5384924
48.66143185
56.75126478
62.7386136
53.84157785
54.52418966
47.87635932
55.71661164
54.05618924
55.90611494
55.87986309
55.7956467
58.74187438
53.73488387
61.17229627
58.48215434
62.92828045
61.40832623
53.46327615
50.66074743
52.30486662
49.11501193
51.88212826
49.50834611
53.94897731
52.02872415
55.13575108
55.47770938
56.48970788
57.94966524
57.90516508
58.33010217
57.985253
56.31534299
45.12444077
47.71999745
49.51609006
46.49174087
43.35770196
49.35011775
46.66837097
57.51031375
56.65846687
38.25304593
41.80648781
49.19955642
77.86621429
39.39827061
35.20847549
43.18381498
39.65141754
82.32704008
58.10562428
58.18584587
59.38900555
42.12429753
34.27478066
48.73547074
40.86593304
32.79522545
118.0288144
35.08846973
32.85401297
40.94176281
41.02690745
45.48720905
42.92630649
45.22737928
50.61196613
45.85093505
83.51653198
53.97032199
47.70832646
54.54712314
53.71846295
107.6413523
56.38211412
50.01510757
49.19077309
108.6435098
43.77038123
43.45081384
41.66698017
58.23691608
58.17832021
53.47731636
51.08984613
45.66491674
65.03705051
50.25906819
62.50691607
46.99877647
55.43493512
47.90126089
43.39361877
44.2148467
57.27331882
58.23892391
58.46997727
57.93498602
58.19914926
57.22304549
50.19036313
96.73584991
41.41499325
43.21742111
42.72310336
45.66894607
46.68640974
43.27383304
43.25728428
92.59440925
53.79425399
82.42285779
52.10164309
73.91957801
52.53694732
62.95324159
63.29765324
55.50377259
55.51920302
54.42870452
94.20340305
56.01618164
59.00554351
46.30127653
103.2932982
64.99452311
55.84511889
43.61708164
48.84654151
48.43611827
45.86861109
44.18675784
100.2391622
36.93416827
46.39497273
45.88629338
47.07518114
46.58789848
37.06321433
71.59144577
65.76046318
54.30328781
66.42861035
67.66014778
59.87551938
65.91465152
54.68143029
49.1934299
59.12713847
49.53559356
66.41965144
60.22986177
50.10261078
63.54315931
71.34602697
62.91439951
62.49240751
54.9381456
49.77855895
54.83255458
56.23725462
54.45490215
59.07084988
50.31059393
53.86186146
56.21243304
57.41949707
57.63774968
59.90261806
58.77065693
58.28339335
59.15551491
58.88660124
59.71142398
63.09530553
56.95793331
55.79474319
58.0790415
57.28204584
62.95888834
50.8011255
50.64798961
53.11467641
52.99458252
55.75950282
105.1621465
55.69524534
45.23882649
45.02245082
48.08310438
47.90127024
45.74359425
43.91593123
57.0794916
44.57900781
52.51415461
40.4619675
47.71150501
47.2398032
48.29438961
47.86103076
40.64558709
52.94379936
38.32838163
38.13970945
41.96294459
41.79010118
109.5968438
44.46850293
48.58805415
46.56680582
45.69070944
45.25146661
33.39422105
33.25351274
84.64256937
93.92245178
34.53421129
106.141154
94.99306433
102.1075164
34.47776979
41.27548761
95.20723189
86.81177154
78.80786402
56.17995321
66.58031848
45.11720685
47.58562673
48.42158399
46.89823025
46.41329554
45.02022827
50.10602352
56.69995733
57.60521109
64.13238152
72.3686485
90.17613572
50.93350629
49.30375823
43.64291914
58.00766077
58.22469825
41.93046955
45.66864049
45.23061952
48.97020254
52.29480118
45.53481662
45.81872319
60.6875967
67.58720078
67.52790875
64.3645064
55.3895536
56.77767913
50.8333908
88.62440501
88.7738508
55.25170704
49.01015456
50.67145929
50.37405292
51.02655593
50.76627206
49.1960164
49.35977735
48.97703728
43.78762963
34.98481974
42.06174044
41.59815676
114.3242835
86.49250783
41.59426671
64.41914386
69.58103529
67.79153667
59.94468511
53.20446199
51.31605952
55.33789126
53.78493836
60.37475102
56.443831
83.71614577
88.1074328
57.80675987
51.40273561
51.30232039
51.10406564
44.75001664
45.41105576
50.00552897
50.04121822
48.76002148
55.51744264
57.88055613
59.35789037
59.38559851
57.76858084
59.33575275
59.21264152
59.38789868
59.35601045
57.71531789
46.42824566
49.83347027
49.48181236
50.27002242
49.94644393
46.60293975
45.96470167
38.97142235
39.40727343
34.7195878
35.09457997
43.95580168
48.82093787
43.68452288
44.56680727
39.57590191
40.06079564
47.19636683
57.19425296
43.83791188
45.98718977
108.3614686
66.66466596
38.88700032
36.59725896
42.66643948
34.38059487
34.63938347
33.65161175
40.83508548
99.43925839
38.10213115
43.70078307
42.85730265
41.44935468
41.04120023
34.12145171
84.67495316
64.94918623
40.7644345
32.6777105
106.0398522
91.14628896
82.46508523
44.3906897
34.87935398
33.03220806
68.72720424
68.72368595
66.83121695
106.4189014
106.1691156
46.79778459
52.96518477
110.1472363
62.11758818
61.93147798
55.60915369
74.29592861
56.50723548
74.25922964
57.25352786
88.35781862
69.00818453
43.46370995
99.01887598
109.8591103
95.36873273
85.49577132
45.47180157
96.80585601
106.0256076
87.00038417
94.31812316
105.8337179
76.58888984
84.1835829
65.87406313
73.18418908
101.1176879
90.85927488
66.3200662
60.12673973
73.32482543
68.16626397
58.95954096
53.92994331
63.41409308
68.78003679
82.97288247
61.3389061
64.10539247
67.85153768
68.74424414
60.43868877
58.13594753
55.37804387
97.91764003
92.84936061
71.70379686
95.0700016
91.5710446
55.29829776
90.15857875
61.91966067
68.08559731
74.11023021
51.36283535
46.84961669
46.14651232
80.82238468
46.00928593
46.47514713
46.01309018
45.95709546
75.99862326
84.39769233
43.20472683
45.61733759
42.73583685
42.19951687
35.68499392
37.50648148
43.33484207
42.88656677
69.43030052
68.539818
68.0316681
59.30005082
60.11846254
57.89836625
58.98789254
68.4444985
63.55970168
60.83405693
60.74710502
60.3277982
60.75173028
63.98860513
64.25155212
56.10939857
57.52425997
68.98913857
69.621286
70.21097106
67.610818
64.06788492
69.62971398
72.28624894
75.11271567
73.95910045
74.56136303
73.02756461
73.38296045
60.84117598
70.7633717
70.82220308
47.84086653
55.30906742
54.08045253
56.48213066
55.64436307
48.65822207
52.3838814
51.54573404
53.65478349
52.6732329
56.281589
59.70422319
58.94221724
60.58469222
59.944275
56.93994969
51.73023678
57.59512673
56.76606613
58.67694677
57.86861436
52.23813875
77.2106511
81.84568079
56.68482047
57.80401565
74.83025586
76.00966069
44.06195026
43.41821645
45.17523187
44.28796847
42.38942753
41.76199221
43.21254642
42.5810119
50.22680585
49.45801536
51.27696157
50.49057785
47.9448407
45.76620622
49.18168525
48.41787327
48.4473336
50.70840804
46.68502488
47.78862715
106.1671625
63.08604526
67.37408356
51.90140273
61.07097776
38.4085351
38.80097202
45.78783193
35.55310015
35.26763934
35.99011476
35.67124567
35.03822417
44.2154084
35.38699572
37.89976141
41.12857982
43.35253429
48.64267172
40.616599
37.33814418
41.6326634
40.65650105
36.50838015
36.12436505
37.10638145
36.64862561
47.37177886
40.23144653
40.81053818
110.8341319
46.41802369
109.6007906
98.82062323
109.1846459
47.39699209
107.8963846
62.922676
107.5200652
100.2486907
38.73498345
37.39084859
34.03877203
34.30125107
42.49415155
41.14872193
33.72628846
33.97966543
108.0985856
34.05542442
40.83675164
40.1127132
104.5921561
104.2803936
32.64405005
106.7566279
103.6185198
91.0072543
34.80564274
107.3138973
96.73532346
107.5667052
97.51259115
33.17284025
43.9829521
41.57644042
39.89139964
109.3656741
109.1516774
56.7620208
50.68848993
50.22709119
111.0229992
44.3904532
82.86732334
74.57725463
58.49525693
58.82591341
57.52316592
49.94483961
48.25361598
54.95886108
65.27642824
49.11762164
49.87222403
42.53642831
43.04476435
46.41554308
56.18969734
62.87275904
67.32423077
53.07369541
51.52221154
51.50822989
51.40637287
51.50911948
53.24392449
42.26124147
42.86496774
78.90600876
46.58838209
48.56757592
57.82835203
43.91019454
43.47581874
37.63741968
68.7384941
70.67393192
60.36236366
51.48299985
51.35805723
51.6375356
51.42102927
47.41886563
48.2592978
48.67213641
49.94368921
52.46780438
39.30654655
44.51805447
44.05402634
94.54087502
91.42561361
74.22944699
33.26675943
33.3282573
35.42236311
87.58931663
107.7663907
100.3946486
50.45855759
41.78932482
42.11370297
32.75730092
35.01159539
33.15567171
33.21308623
32.8980292
83.82507593
105.6877026
83.12052875
88.04381723
107.4193964
50.05763122
45.92220311
44.20866969
63.97843794
50.64829531
48.54520063
51.85466921
43.42745712
62.76205782
52.26566181
105.7179775
106.8070493
107.0761044
100.9825305
105.7063925
44.78645646
45.36119869
50.8176039
86.18035618
75.57128008
70.07344966
85.28224756
83.28958455
56.99670224
85.3577065
80.01912015
109.5676724
106.8256729
83.29220615
48.18598647
47.15390012
49.78448817
105.5130419
62.89996633
67.46631258
93.00332543
71.0896423
76.81847392
71.14772452
72.20179824
66.70976973
67.00363418
65.05438722
64.89413792
60.73171213
62.30250906
61.73784785
64.67383788
64.36583657
65.26239883
53.86094252
55.62115905
63.55239376
65.6936267
74.34632466
68.58136652
74.1476919
74.65614681
70.30117631
45.49808425
48.59983357
47.89896097
53.69511819
53.35587104
49.44203204
44.96290519
44.625838
47.28908558
46.79921841
55.05424635
58.2384767
57.75759266
61.21050353
60.70706646
58.32384469
50.7310326
54.56019852
54.16034038
57.27590813
56.80517133
53.30409449
46.50964454
47.18500931
51.27178839
50.16244528
45.62471951
46.28959401
51.20916342
51.8955456
53.48709918
42.7097093
42.49780001
44.33603559
44.0676013
39.33449062
42.20569892
42.03282443
52.59935569
50.25899483
50.97259327
103.2481231
101.8777495
70.57999674
73.24952312
104.1858605
101.2884113
103.0431567
55.55552248
48.38216503
47.49633974
45.09955406
44.666784
39.72030173
41.12612218
45.62224771
45.22888573
35.63731619
35.70507363
38.45010533
38.00492211
35.4177534
35.48003713
108.8207469
33.36597576
35.82832148
34.52273499
82.47611356
32.84834391
89.79415041
103.8219382
105.2790661
32.79605888
32.84554359
34.64414796
106.4403147
107.6970855
106.9010707
99.4679961
34.26565833
32.70609914
32.76095612
92.39219938
54.04804643
61.8846993
109.1728386
107.8199591
91.82360861
87.57777172
62.80973942
66.38692526
68.69277758
76.35102968
79.13291786
109.3314077
99.00998915
109.5380926
107.390553
85.33494896
47.57802554
48.81973996
58.38454736
67.1160934
66.40360031
68.93439271
68.17049982
67.51728308
63.8489024
64.66394187
62.26065385
63.05045645
67.32049738
90.3431327
52.92574962
53.42971671
52.048562
52.70854866
92.65744966
68.32165614
66.97090798
67.47962818
65.4804374
66.26606666
68.0279232
84.71920192
54.24348095
54.78335626
53.63012648
54.0153231
86.03286769
71.29587547
69.65943079
71.63840928
70.41310393
39.09354312
42.09638214
41.93289389
34.81947611
38.03216268
37.88034808
38.48693481
38.21293294
34.92648437
106.4813512
108.1745931
100.3144067
107.051884
33.57705769
33.51809334
33.73525294
33.65275958
33.03640426
35.85375236
33.43858653
33.66821609
34.47282263
37.49496627
37.36375725
37.74844077
37.61965237
34.55420237
34.05519905
33.85390449
36.020485
34.39470536
33.24556178
110.3941515
107.1428083
92.87467649
109.1541677
37.86275843
36.46682649
38.81218325
34.19391483
36.77813433
36.66080473
32.70500006
107.0077116
107.7761924
72.68374402
107.1428891
105.0107399
33.03462386
33.1081487
34.95460397
32.95410888
75.68631775
89.5706669
77.59066312
79.33491362
73.76888306
59.72455981
84.13564719
73.7041502
107.5243475
108.3516777
109.3846173
92.33854621
100.1670953
63.38792775
59.26548241
70.78492629
60.33692697
64.13420251
74.42413032
76.33601777
65.30602905
72.89280367
79.9152058
109.0628804
110.3592252
107.4586243
100.4330611
107.2279176
106.6101205
106.1995657
89.36568346
100.5107854
96.82558236
105.624012
105.8368462
92.34301274
95.35714803
97.14277105
106.0447402
99.04611403
92.35864345
93.41257802
83.83144832
76.57038708
86.19283029
71.6567751
77.13914109
80.32515745
84.09196059
84.49698191
70.44750967
58.29110896
58.78653357
65.82787909
57.88828634
65.92984843
67.91122089
60.77325157
61.52505193
59.3880797
60.08218252
68.15298827
59.69360508
49.39110651
49.68593086
95.79746816
94.35311596
82.43071325
98.31641346
97.51761168
96.37777186
91.42269542
93.7189694
75.65722741
50.53707117
51.48585895
49.93556219
50.18457906
65.35766245
108.2099165
95.72026383
61.24550658
110.8353047
108.8791265
108.3930344
77.56528901
107.3745462
105.793544
54.4244982
57.68090836
91.73146569
70.35664894
67.55226711
63.44989512
62.89922466
61.55890013
64.774528
64.09349764
63.72359558
75.94158706
75.63169276
67.65635727
77.14230918
80.08127759
70.19668183
75.52230179
75.86797787
69.37932645
68.54178996
68.70800673
67.62917042
68.25312049
68.69565791
71.50779395
71.57306193
74.44080766
78.1565751
77.30391411
79.81060856
78.9948921
74.67265501
73.74623304
75.84376454
78.84113277
74.82670181
51.77548231
51.54665014
47.82400036
48.86938894
52.8310558
52.59612433
45.64571171
45.28841304
46.3895404
46.00287457
59.21367712
58.7208635
55.64110235
57.62304858
60.2088276
59.71003463
55.44153905
55.01599023
51.26624356
52.74232063
56.33709076
55.89002677
79.35134075
56.12925929
56.76277578
55.06364705
55.62455167
80.22827148
74.55057496
60.3170231
65.11428463
57.51095948
58.55408582
75.51317625
43.84065171
39.81896954
40.03153953
39.436928
39.62673782
43.62932518
44.80569542
40.74690545
41.06475735
40.24747162
40.48562706
44.53050827
42.16704388
38.34385077
38.53214696
38.01647273
38.20405469
41.99832804
43.00143233
39.0658112
39.25216441
38.6942667
38.88776227
42.79911184
43.23384746
42.99344412
49.97152014
47.19129736
47.4501739
46.6653409
46.90193729
49.70494971
43.77633678
43.51658614
41.07222853
41.05341583
47.58325838
44.86823522
44.96258223
41.53007096
42.13783401
46.6284143
48.95061008
46.16028678
46.35616328
45.65150883
45.78819602
48.63694613
41.70545275
41.58912546
103.1033962
101.1465471
103.9350916
78.1119134
89.02678536
64.24809009
100.5238184
102.4514004
98.30616648
99.31803854
65.61567754
54.10931337
86.92772696
75.62676649
99.6951819
101.1635916
57.78732619
38.47736423
41.35924987
41.21239808
41.73971591
41.5927316
38.7062093
35.48046635
35.33080511
35.88582552
35.75154177
34.90195302
34.01335974
35.87055968
39.69301429
38.96214217
40.8192791
40.50521622
37.88792953
38.24840059
35.937763
37.18997886
37.70775451
41.34086209
37.69366419
37.91199178
37.26851653
37.6135861
41.24742331
36.38005582
36.24311675
36.93852916
36.78674186
107.4679023
78.16306849
82.3254886
64.85352652
72.89817498
108.9473271
109.0836887
107.0593916
87.22746428
97.51392004
111.7837197
106.1949152
92.39343874
95.06928665
85.35673182
89.03123763
106.6601599
33.35675514
33.31104076
33.46017216
33.42094749
34.7997183
35.10633481
37.68635816
33.1038881
33.08246805
33.2315211
33.19071962
34.13587933
36.9923958
36.83991685
37.24136701
37.10370388
34.20624562
33.83665945
36.49049962
36.06308606
36.75107287
36.55596604
33.88157552
107.0206
36.5151598
36.28835523
33.82294104
104.0572653
102.7421361
102.1249132
105.3643181
103.9341569
103.860618
32.60978285
104.51879
101.6650221
101.7019776
34.71121926
32.89300564
32.9674794
106.7375478
106.6531519
107.3043287
101.955519
103.8570031
108.3057116
108.0786674
98.32950502
106.4232766
103.1275065
32.7482164
32.70387734
33.98131825
36.71403042
36.75553468
36.84082146
36.77325
36.84649517
36.88636057
36.87584266
36.97152186
36.95805003
37.00086117
37.07594521
37.02634284
37.09341277
37.12997334
37.05996973
37.13818576
37.14945964
37.07152116
37.1473309
37.12578521
37.05923337
37.11484192
37.06608313
37.02465956
37.04621149
36.9670646
36.95869223
36.9388332
36.8478514
36.89035437
36.60439039
36.69259463
36.73322626
36.73200867
36.86486346
36.84425781
36.91339413
37.06376362
36.98506315
37.1114538
37.22974213
37.10375263
37.25889488
37.32694638
37.16393249
37.34059327
37.34242323
37.18551804
37.33415158
37.29267739
37.15767278
37.27177788
37.18898171
37.08879492
37.15588758
37.03802055
36.97789497
36.99420034
36.86091311
36.84574777
36.54761122
36.70578271
36.6900219
36.76648339
36.97416409
36.88286526
37.04992848
37.28136672
37.10452972
37.3537887
37.54433338
37.29136934
37.60655827
37.73743734
37.39363889
37.75651378
37.7463459
37.41441949
37.71581961
37.62323828
37.35817153
37.58314377
37.43354071
37.23617706
37.3770014
37.19428026
37.06843249
37.13085964
36.94042147
36.87313042
36.5502101
36.78118023
36.71761523
36.87218513
37.18647123
37.01765638
37.3036145
37.68128866
37.36140306
37.80750774
38.18165046
37.66316039
38.31946588
38.59612869
37.86690086
38.63393167
38.58491945
37.87381593
38.48607462
38.25845847
37.75603367
38.17008421
37.87585552
37.52234915
37.77375179
37.47534457
37.25163078
37.37824308
37.10135431
36.97224088
36.59852862
36.9232754
36.81140948
37.05426035
37.52024215
37.25846713
37.70051928
38.33884784
37.81546489
38.58523047
39.46922597
38.42440299
39.84873616
40.73342703
38.86626341
40.84354259
40.52400277
38.86932602
40.18798986
39.46318954
38.5042345
39.22814561
38.60629418
38.02762114
38.41971043
37.91900837
37.57013751
37.76601306
37.34969244
37.1537133
36.68574665
37.1198515
36.96773327
37.29658526
37.95390238
37.61827692
38.22623036
39.28539933
38.55042679
39.76067808
42.46644527
39.95804137
41.32111502
41.90721108
40.70950234
42.65573908
42.60380348
41.23615129
41.96633049
41.26484993
40.68765784
40.98208817
39.69187556
38.84409497
39.35904168
38.52897104
38.0574657
38.29442221
37.68880006
37.42544409
36.80339272
37.34856216
37.17121393
37.57348724
38.43315227
38.06838173
38.80235627
40.31182105
39.54883584
40.41696828
41.15051487
40.75571323
44.203307
45.06234004
44.35018605
46.89895013
45.11959388
43.50292956
43.28767911
41.05190174
40.01139302
40.52570449
39.28052349
38.71056539
38.94369938
38.09709977
37.78464859
36.94346205
37.59550781
37.40999771
37.86464715
38.8970448
38.55183385
39.34219301
41.16778427
40.54437512
41.55872453
42.52512182
42.22323863
47.26669747
48.76418618
48.46044869
52.12866054
48.79174941
47.44971395
45.50231401
42.44770482
41.39940601
41.73298236
40.0609549
39.47191718
39.61919145
38.52908049
38.20426267
37.09711308
37.84377737
37.65789234
38.15029831
39.31945129
39.00683148
39.82041294
41.85392827
41.35162991
42.42372037
43.51705087
43.29142722
48.72791005
50.7073415
50.52717569
54.93649893
51.36258677
50.54551071
47.20633539
43.64513536
42.7643721
42.78925651
40.7784471
40.24702251
40.24388654
38.93693556
38.63074053
37.25570949
38.08289165
37.90488862
38.41994678
39.69737425
39.41808568
40.24201272
42.44217093
42.00565218
43.13027147
44.32520754
44.11845329
49.48820028
50.54095211
50.68938536
56.11527538
52.8028948
52.40255406
48.3596229
44.5678656