/*--------------------------------*- C++ -*----------------------------------*\
| =========                 |                                                 |
| \\      /  F ield         | OpenFOAM: The Open Source CFD Toolbox           |
|  \\    /   O peration     | Version:  v1912                                 |
|   \\  /    A nd           | Website:  www.openfoam.com                      |
|    \\/     M anipulation  |                                                 |
\*---------------------------------------------------------------------------*/
FoamFile
{
    version     2.0;
    format      ascii;
    class       surfaceScalarField;
    location    "0.2";
    object      phi;
}
// * * * * * * * * * * * * * * * * * * * * * * * * * * * * * * * * * * * * * //

dimensions      [0 3 -1 0 0 0 0];
oriented        oriented;


internalField   nonuniform List<scalar> 
25162
(
0.0004417447285
0.9162082553
0.0005596328472
0.9165821119
0.0006825907893
0.9165270421
0.0003426254902
0.9165230456
0.0004669197087
0.4583345731
0.0003580523585
0.4582903045
0.0004604904724
-0.0004507949555
-0.0005857009491
0.4582564266
0.0006792743537
-0.0007729040459
0.4581964483
0.0009114557836
-0.001064343379
0.4581628204
0.001231522935
-0.00142057708
0.4581332387
0.001622338369
-0.00182477001
0.4581366139
0.002023156065
-0.002211895786
0.4581831085
0.00236028728
-0.002467365031
0.4582754161
0.002525448908
-0.002531269364
0.4583832851
0.00248298425
-0.002387285155
0.4584721826
0.002245102517
-0.002077311616
0.4585189682
0.001893343414
-0.001696650794
0.4585193477
0.001512303082
-0.001331525098
0.4585157557
0.001130769415
-0.001030728137
0.4584801379
0.0009005902963
-0.0007412907615
0.4584782528
0.0006130379423
-0.001554160616
0.9187541167
1.341868109e-05
-0.0005633747985
-0.0009797693708
0.9187756088
4.312963576e-05
0.915827101
0.9138431296
0.001212132133
0.9149961231
0.001948470274
0.9158457737
0.002291562456
0.9161839499
0.0007568351732
0.9168865655
0.001171207388
0.4579854138
0.0009250014428
-0.4581535801
-0.4581087683
-0.001160646038
0.457812012
0.00145740236
-0.4579228252
-0.001825804732
0.4574778401
0.001066630527
0.001204159301
-0.2288794226
-0.00130125099
0.2287630891
0.001417584541
-0.00191301148
-0.2287945765
0.2286392335
0.002068354448
-0.00269164846
-0.2287248921
0.2285281573
0.002888383237
-0.003592563514
-0.2287161071
0.2285092225
0.003799448098
-0.004438129866
-0.2288113135
0.2286964874
0.004552954127
-0.00427412788
-0.2290243228
0.2287997214
0.004498733828
-0.005174705704
-0.2292565819
0.229237753
0.005193534613
-0.004864831109
-0.229409067
0.2295286689
0.004745229178
-0.004190939356
-0.2294975748
0.2296948955
0.003993618612
-0.003367225086
-0.2294998595
0.2297208636
0.003146220996
-0.002564642321
-0.2294499666
0.229646173
0.002368435847
-0.4589752651
-0.003651327067
0.4605300848
0.002096507453
-0.0006869528771
0.461093076
-0.001080503086
-0.45932562
-0.001243701024
0.9185424351
9.215023349e-05
0.001363232453
-0.0007838304051
0.9183157382
0.0004450550924
0.9145982155
0.9142881847
0.001523935198
0.913472188
0.004109962728
0.9132597462
0.007033756831
0.9132601558
0.003016067701
0.9144296064
0.006474648213
-0.4578549996
0.4575969632
0.003274104031
-0.4575092135
-0.003371736766
0.4580103112
0.002870639042
-0.4568725312
-0.003136798948
0.4564148337
0.001739862502
0.001854633973
-0.2281950814
-0.002172574534
0.2279479629
0.002419693067
-0.2278691854
-0.003304469581
0.2275272547
0.003646400323
-0.2276697882
-0.003826603366
0.2323371814
-0.0008428011216
-0.236815708
0.01671947205
0.2410853113
-0.02099881453
-0.2352351585
0.03021250332
0.2370902785
-0.03207475226
-0.2273201866
0.03402831476
0.2267968143
-0.03350381309
-0.2205874815
0.02847428361
0.2177980525
-0.02567640057
-0.2222642409
0.01392950351
0.2173329449
-0.00898952732
-0.2306302457
-0.006859942934
0.2300135154
0.007476998293
-0.2306680291
-0.006191813233
0.2310904569
0.005769385504
-0.004302641271
-0.2305387898
0.2312868256
0.003554605391
-0.4633226704
-0.00107024478
0.4623735392
0.00201937602
-0.4603125341
-0.001972498437
0.4604578429
0.001827189681
0.0007409455947
0.9206886411
-0.001616924718
-0.001270226897
0.001932295998
0.9171243878
0.0008909034917
0.915639608
0.9151790882
0.0004880513716
0.9129841366
0.001116119284
0.9126316783
0.002433260936
0.9119430141
0.003355559062
0.9112181792
0.002289129093
-0.4567423666
0.4562086488
0.003889276837
-0.4593859288
-0.005238959816
0.4561572168
0.008467671843
-0.4576275932
-0.009956458628
0.4588939767
0.00266176437
0.006028310777
-0.2270404374
-0.002821372634
0.2267354825
0.003126327527
-0.2288734014
-0.002548422131
0.2345992555
-0.003182799935
-0.2487004366
0.0190086046
0.253055471
-0.02338744522
-0.2509633042
0.03290170328
0.2528588224
-0.03482202237
-0.2403792651
0.03739310165
0.2404523544
-0.0374792042
-0.2252421401
0.03662791473
0.2247632563
-0.03614558719
-0.2116598665
0.0341553004
0.2106585819
-0.03313528723
-0.2052785379
0.02790263215
0.2026189012
-0.02521613032
-0.2131374545
0.01394960234
0.2084330076
-0.009224318616
-0.2350401573
-0.00215078365
0.2373043387
-0.000112359201
-0.004762567616
-0.232411518
0.2325330014
0.004641084218
-0.4626402116
-0.007022568476
0.46415718
0.005505600111
-0.4613736356
-0.004035024927
0.4625756176
0.002833042925
0.003632358302
0.9211687366
-0.002166128541
-0.001946325182
0.002423359463
0.9183333866
0.001107325553
0.9169556419
0.9162864138
2.682324747e-05
0.9129573133
0.0001549906273
0.9125035109
0.0005362899481
0.9115617148
0.001329047292
0.9099657823
0.0004596395879
-0.4558371132
0.4549147029
0.002251457555
-0.4545372413
-0.002826623807
0.4537112306
0.003652634582
-0.4524918682
-0.004773881398
0.451388466
0.003090402396
0.00278688126
-0.2270366083
-0.005139268031
0.2256293021
0.006546089659
-0.2497560091
0.002338870904
0.255513603
-0.008125383099
-0.2612885644
0.01934587031
0.2623311461
-0.02043019246
-0.2531007978
0.01894942538
0.2512285624
-0.01710979372
-0.2367257937
0.009379893782
0.2340624153
-0.006730221816
-0.2235620866
0.001490041221
0.2232625786
-0.001186238459
-0.2117651074
0.004394028911
0.2138348552
-0.006441269689
-0.2000388305
0.01280476803
0.2012414019
-0.01396826119
-0.2100332727
0.02515872508
0.2025634092
-0.01764392581
-0.2164317202
0.005598174331
0.2127599476
-0.001902379291
-0.006637535116
-0.234312209
0.2350136414
0.005936102787
-0.4661343603
-0.007995782327
0.4680554915
0.006074651097
-0.4637366715
-0.00465064422
0.4649383338
0.003448981959
0.004296949046
0.9235476575
-0.003687691304
-0.002988178704
0.002328550033
0.9203017856
0.001041162976
0.918243029
0.9173275768
-0.0003670452982
0.9133243587
-0.0005907596772
0.9127272253
-0.000480060543
0.9114510157
8.101112976e-05
0.9094496961
-4.498547121e-05
-0.4539563609
0.4535493906
0.0004879814101
-0.4530124506
-0.001571624889
0.4520755227
0.002508552863
-0.4502310753
-0.003295084166
0.4488999878
0.002311890041
0.002314281594
-0.2340501165
-0.0003679964656
0.2364826381
-0.002080179029
-0.2577713572
0.007112913029
0.2583801888
-0.007770222495
-0.260208173
0.003708552944
0.2563474774
9.924726644e-05
-0.2396824328
-0.01450369277
0.2383417946
0.01581443161
-0.2214775878
-0.03437968965
0.2168524268
0.03899820177
-0.2225080828
-0.05097245659
0.2221855037
0.05129589796
-0.2271790016
-0.03847346681
0.2322559697
0.03340941177
-0.2169843245
-0.01109068457
0.2197125429
0.008403062927
-0.1997195529
-0.001653346915
0.2016273388
-0.0001990848052
-0.2063935444
0.001827559997
0.2058380144
-0.001227695602
-0.003883796034
-0.2340135446
0.2325784259
0.00532452133
-0.4697911611
-0.007943901689
0.4715363849
0.006198677909
-0.4657332
-0.004923741018
0.4664586316
0.00419830946
0.003351899388
0.9262099751
-0.002856359873
-0.003157857079
0.001769740852
0.9218839441
0.0007113320478
0.9193014378
0.9180389088
-0.0009326597451
0.9142570184
-0.001698222233
0.9134927878
-0.002239090257
0.9119918837
-0.0005991148152
0.9092977736
-0.001488052982
-0.4533879219
0.4530372973
-0.000248490275
-0.4508866474
-4.493467337e-05
0.4504145985
0.0005169835668
-0.44825409
-0.001640504701
0.4477886604
0.001115009531
0.0009905218313
-0.239977054
0.001016204921
0.2405694148
-0.001638871622
-0.2591569491
0.0009379898195
0.2546771169
0.003480876986
-0.2465652597
-0.009571437733
0.2433112106
0.01277315205
-0.2172465052
-0.02666232235
0.2099750354
0.03391623035
-0.2013557294
-0.05760740704
0.1016777531
0.09568237608
0.02864850342
0.03295450382
-0.0403549108
-0.108365978
0.1078021492
0.04091873961
-0.03268534828
-0.2546153377
0.06137623636
-0.03302242196
0.129143448
0.1298034236
-0.04072380873
-0.2344406074
0.2412012031
0.03398999492
-0.2111127576
-0.01926313046
0.2163489411
0.01408477362
-0.2086881094
-0.00404877682
0.2098978569
0.002898676859
-0.00231773629
-0.2272185874
0.2265879551
0.002971224157
-0.4732494915
-0.006295469506
0.4743677862
0.005177174789
-0.4675852909
-0.00383593002
0.4686508338
0.002770387141
0.001518637361
0.9279552508
-0.001434240221
-0.001829672911
0.0005831196984
0.9228194618
0.0001581739182
0.9197263836
0.9181970827
-0.001545006894
0.9158020253
-0.003013656982
0.9149614379
-0.00424483825
0.913223065
-0.002291938207
0.9103839006
-0.003039027062
-0.4530549154
0.4530968967
-0.002333919451
-0.4502024951
0.002426260164
0.4501208859
-0.002344650903
-0.4467821187
0.002181066177
0.4469644626
-0.0009156828072
-0.001452083553
-0.2396353386
-0.0003098609883
0.2386157837
0.001291952363
-0.2492287244
-0.005972097918
0.2473198915
0.007815257857
-0.233823178
-0.01444490327
0.2314176775
0.01679825195
-0.1972351722
-0.02346971972
0.1952761818
0.02542253282
-0.08494732744
-0.01601235673
0.08450116155
0.01645852261
-0.03849269847
-0.1451071724
0.1483162147
0.03528365622
-0.04309160256
-0.2618278314
0.2673761681
0.03755810455
-0.2278077244
-0.02461723852
0.2314521529
0.02103133513
-0.2161538647
-0.01190514278
0.2187110238
0.009413854152
-0.001919060418
-0.2274288317
0.2279012849
0.001482473176
-0.4757712638
-0.003011316809
0.4768455664
0.001937014228
-0.4694525129
-0.00121173402
0.470064942
0.0005993048874
-0.001247937705
0.9284770428
0.0007423332455
-1.618753926e-05
-0.001104691213
0.9226762153
-0.0006189498216
0.9192406422
0.9175781329
-0.002165034801
0.9179670601
-0.004252800248
0.9170492034
-0.006406004139
0.9153762689
-0.00382253369
0.9123764321
-0.004576001924
-0.4534423034
0.4537794082
-0.004159638501
-0.4502887843
0.004548944526
0.4506669769
-0.004927137093
-0.4470776885
0.00530889329
0.4475307862
-0.002733387019
-0.00303738135
-0.2362260408
0.002157297362
0.2352299402
-0.001208866153
-0.2410593422
-0.003323079983
0.2391423308
0.005162754059
-0.2254506345
-0.01039409824
0.2240717153
0.01171544889
-0.194413364
-0.01311456055
0.1951483517
0.01237647765
-0.088569866
-0.003613301495
0.08943309959
0.002750067905
-0.01693158459
-0.1613264845
0.1616503378
0.01660773124
-0.02614722708
-0.2790931644
0.2809323972
0.02431724828
-0.2415409858
-0.01768862272
0.2440519239
0.01524100129
-0.2259813869
-0.007927120052
0.2281664673
0.005819893933
-0.001035815329
-0.230731869
0.2316709222
0.0001393780415
-0.4780358742
0.001406643167
0.4788468614
-0.00221763031
-0.4702753974
0.002500074816
0.470278792
-0.002503469412
-0.004521006755
0.927239618
0.003227134798
0.002531296767
-0.003118959479
0.921274168
-0.001598954281
0.917720637
0.9159791786
-0.002745295543
0.9207123557
-0.005613267072
0.9199171749
-0.008445819386
0.9182088212
-0.005350998024
0.9153923151
-0.006110704334
-0.4544250413
0.4550701109
-0.005996067631
-0.4512069159
0.006740129984
0.4520504989
-0.007583712964
-0.4481646312
0.008447357635
0.4491336848
-0.004478907355
-0.004952159778
-0.2323342901
0.004012366809
0.2314342419
-0.00316930322
-0.2339469944
-0.0007031445831
0.2323788028
0.002182222923
-0.2210561891
-0.00591367458
0.2202997823
0.006605780485
-0.1984929272
-0.005991326242
0.1997677989
0.00471446071
-0.09425963983
0.000209395997
0.09481531539
-0.000358182754
-0.0004068887796
0.002545384744
-0.1574041061
0.156185911
-0.001327189647
-0.006355415203
-0.2803855988
0.278817759
0.007934076022
-0.2486046157
-0.008333607186
0.2495376664
0.00746959471
-0.2340173661
-0.003408050382
0.2356178565
0.001891353285
0.001921739197
-0.234862932
0.235747899
-0.002761498942
-0.4785347585
0.007038107944
0.4776303197
-0.006133669135
-0.4698310083
0.005639813382
0.4698304813
-0.005639286381
-0.008022141042
0.9242332156
0.005927661378
0.005100882044
-0.005244039574
0.9184960666
-0.002631895124
0.9151084925
0.9133472835
-0.003391360845
0.9241037165
-0.006797919651
0.9233237337
-0.01039736073
0.9218082623
-0.006802811415
0.9192728342
-0.007475068474
-0.4559941539
0.4569159846
-0.007724642141
-0.4530361587
0.008839210946
0.4541468058
-0.009949858083
-0.4504363681
0.01122967145
0.4519341735
-0.006241121079
-0.006510048128
-0.2288426075
0.00558502747
0.2279991193
-0.004809018322
-0.2280254075
0.001365906141
0.2266679178
-0.0001096931427
-0.2185691716
-0.002728275476
0.2181345318
0.003092539807
-0.2037847121
-0.001627955847
0.2051612623
0.0002505571051
-0.09814457404
0.002114058545
0.09854760161
-0.001244515425
-0.001272570692
0.01243194874
-0.1461470725
0.1446209369
-0.01090581314
0.007179734634
-0.2715695564
0.2686355844
-0.004225579253
-0.2505509678
9.494642355e-05
0.251093888
-0.0005622181793
-0.2395547703
0.002704558333
0.2405831461
-0.003643720817
0.006100734569
-0.2381659336
0.2386689108
-0.006560606182
-0.4762696306
0.01218820851
0.4745221444
-0.01044072238
-0.4696209211
0.008906646932
0.4682435367
-0.007529262547
-0.01120475204
0.9197553512
0.008141293244
0.007541323212
-0.007255293424
0.914546608
-0.003564816635
0.9114180158
0.9097824669
-0.003963972822
0.9280676894
-0.007983112102
0.927342873
-0.01220288135
0.9260280315
-0.008067416353
0.9236412578
-0.008503888565
-0.4580987301
0.4592375372
-0.009206223458
-0.4555093862
0.01052913891
0.4569531646
-0.01197291731
-0.453316165
0.01356460424
0.4547657405
-0.007398761933
-0.00765033784
-0.225469525
0.006673048487
0.2246143064
-0.005896997685
-0.2227941198
0.002623795087
0.2215527895
-0.001496132033
-0.2171550508
-0.0008329223347
0.2169200961
0.0009923144602
-0.2094193607
0.001107740892
0.2109011741
-0.002589646413
-0.1012239743
0.003593099655
0.1016159234
-0.001974917492
-0.002010131236
0.01535964247
-0.1345106559
0.1330990838
-0.01394807037
0.01363810599
-0.2605589164
0.2582148881
-0.01125729526
-0.2506672123
0.007948830765
0.2503708243
-0.007562635727
-0.2427342851
0.008341732193
0.2431308422
-0.008649908501
0.009796253118
-0.2392458736
0.2391131213
-0.009628233016
-0.472465409
0.01622501445
0.4701372296
-0.01389683503
-0.4667584741
0.01186954828
0.4650036269
-0.01011470106
-0.01394722168
0.9157675351
0.009248954811
0.008686083052
-0.008965824178
0.9095652105
-0.004361208635
0.9068134002
0.9054212583
-0.008161591297
0.9362292807
-0.01653198752
0.9357132693
-0.02506882739
0.9345648714
-0.009320770029
0.9327295835
-0.02483638303
-0.4606183425
0.4619964733
-0.01069890078
-0.4584537374
0.01222109101
0.4601566826
-0.01392403618
-0.455724124
0.01566651557
0.4558001891
-0.007855351699
-0.007952702715
-0.2219887345
0.00668618054
0.220922482
-0.005714882668
-0.2178832788
0.002683635922
0.2167595615
-0.001685602273
-0.2164431253
-8.629554677e-05
0.2161171333
0.0003320055295
-0.2154952993
0.002311816373
0.2170293598
-0.001916921586
-0.001928955279
-0.05246502318
0.002363198132
0.05259488191
-0.002493056862
-0.0580896278
0.005615565523
0.05772761839
-0.01100112461
0.0057475685
0.0131712819
-0.1249982552
0.2463379317
-0.02223831729
0.01269685544
-0.1249694965
-0.2528197738
0.01538142603
0.2515058888
-0.01401042898
-0.2500103758
0.01244736734
0.2499837611
-0.01231588753
-0.2442795567
0.01289800089
0.2444968873
-0.01302289521
0.01233931847
-0.2377300421
0.2370174908
-0.01160562428
-0.4674836174
0.01874009801
0.4648394298
-0.01609591032
-0.4631801294
0.01398631415
0.4612456261
-0.01205181083
-0.0160254752
0.9104970842
0.01089139074
0.01040453546
-0.01030558807
0.9038453234
-0.005062701706
0.9015705139
0.9003585566
-0.004652135197
0.9408814159
-0.009433558815
0.9404946929
-0.01448124274
0.9396125554
-0.00987273453
0.9382034786
-0.01008240329
-0.4654187462
0.4668649742
-0.01131896252
-0.4636493936
0.01292568586
0.4653783499
-0.01465464218
-0.4567095608
0.01653779376
0.4585268544
-0.009002297384
-0.009427012677
-0.2177497812
0.00844340561
0.21695549
-0.007748222679
-0.2130717645
0.00468753716
0.2118518047
-0.003596581785
-0.2164144275
0.00119011384
0.2160442525
-0.0008969578539
-0.2218020804
0.002081392925
0.2231150782
-0.001734929239
-0.001659461422
-0.05519061405
0.003869053917
0.1107258708
-0.05520611067
-0.002115229879
-0.002082970138
-0.1131153544
0.007424192401
0.1128341756
-0.01434637521
0.007203361637
0.02128388623
-0.2392776739
0.237663006
-0.01966647461
-0.2490637951
0.013792727
0.2491245223
-0.01377259039
-0.2505668664
0.01462001777
0.2525914351
-0.01653151007
-0.2446282481
0.0166484035
0.2437174089
-0.01565939991
0.01302429612
-0.2338141554
0.2327747412
-0.01198184638
-0.4624548326
0.01960568592
0.4602886815
-0.01743953477
-0.4593017673
0.01536978763
0.4571205949
-0.01318861515
-0.01565269049
0.9043893778
0.01081847183
0.01094192512
-0.01112201558
0.8993146485
-0.005444661935
0.8958931603
0.8949138947
-0.004837051607
0.9457184675
-0.009798099589
0.9454557409
-0.01500917256
0.9448236284
-0.01024019332
0.9438041155
-0.01036961614
-0.4683990087
0.4699191689
-0.01176035352
-0.4671169941
0.01339898158
0.4688525431
-0.01513453055
-0.4617787264
0.01699066546
0.4659965633
-0.01055184997
-0.01068149679
-0.2160211159
0.01241975402
0.2163843493
-0.012865997
-0.2086683976
0.01242926505
0.2079273496
-0.0118091776
-0.2135887298
0.009137173342
0.2124710193
-0.008107132347
-0.224405286
0.004840493827
0.2232476262
-0.003700925792
-0.1132984437
0.004998540975
0.2270222124
-0.005408858764
-0.113313451
-0.2266642418
0.01310249109
0.2271478235
-0.0135860728
-0.2378385595
0.01624494478
0.2391299806
-0.01750233887
-0.2508142901
0.02003933177
0.2514264189
-0.02054870037
-0.2525918768
0.0210872339
0.2525398553
-0.02091311963
-0.2409547315
0.01912871907
0.2410371236
-0.0191490868
0.01408419475
-0.231441636
0.2289623106
-0.01160486936
-0.4583435737
0.02109143701
0.4547624766
-0.01751033987
-0.454938179
0.01560850669
0.4525187112
-0.01318903884
-0.01603902574
0.898450735
0.01105502694
0.01092264154
-0.01119519166
0.8944708145
-0.005662727962
0.8903606966
0.8892511667
-0.004903480419
0.9506219479
-0.00991710554
0.950469366
-0.01514776313
0.950054286
-0.01034607891
0.9493757554
-0.01037332404
-0.4714356229
0.4729523156
-0.0118627716
-0.4705641219
0.01347061563
0.472244079
-0.01515057269
-0.4696074682
0.0169214444
0.4715268574
-0.009471279953
-0.009369559609
-0.2201871849
0.01466824296
0.222475051
-0.01700598572
-0.2076350835
0.02196751866
0.2084411957
-0.0228720416
-0.209451223
0.02342969427
0.2089219417
-0.02299114949
-0.2192659233
0.02040801558
0.2181575027
-0.01934722988
-0.2252216077
0.0171181904
0.2236435969
-0.0155494599
-0.2320314998
0.02061475137
0.2336281092
-0.02219260817
-0.24387331
0.02694130334
0.2452159935
-0.02822188939
-0.2529453832
0.03014934728
0.25296503
-0.03006667621
-0.2506366377
0.02761730723
0.2492327064
-0.02611585852
-0.2359747149
0.01996410928
0.2335143961
-0.01746932927
0.01326810654
-0.2266840199
0.2259815878
-0.01256567443
-0.4536208235
0.02109761326
0.4505569651
-0.01803375487
-0.4493107176
0.01427174781
0.4473939555
-0.01235498566
-0.01512825535
0.8911601099
0.01145148637
0.0109673941
-0.008747233557
0.8880897927
-0.005693244145
0.8873067072
0.8835579226
-0.004865927451
0.9554878754
-0.009824644707
0.9554280833
-0.01496125329
0.9551908946
-0.01022676916
0.9547923542
-0.01015108296
-0.4744242634
0.4758856906
-0.01168819637
-0.4738756116
0.01321954712
0.4754557273
-0.01479966285
-0.4733225095
0.01644301604
0.47503332
-0.009125000144
-0.009028826429
-0.2324899972
0.01008593073
0.2359904549
-0.01359280317
-0.2143609639
0.02529903479
0.2175704956
-0.02856730807
-0.2100887343
0.03588306345
0.211608464
-0.03747413802
-0.2167294845
0.04011953838
0.2170896618
-0.04052849123
-0.2157803331
0.0395874594
0.2124314557
-0.03625018619
-0.2367182283
0.04261317843
0.2371148539
-0.0429821859
-0.2469924287
0.04318255441
0.2465808631
-0.04270720411
-0.2503223986
0.03908549393
0.2483852124
-0.03706850314
-0.2422099484
0.02881551115
0.2389088336
-0.02545981686
-0.2252247403
0.01470989253
0.2244658451
-0.01395072395
0.01219401962
-0.2240998189
0.2235239906
-0.01161819134
-0.4465236197
0.01977159712
0.4444952061
-0.01774318345
-0.4455325951
0.01580837093
0.4436681631
-0.01394393887
-0.01413990803
0.8831009896
0.01195700978
0.01024201854
-0.008253434231
0.8822033189
-0.005281141455
0.8843344145
0.8782767811
-0.004744900378
0.9602327758
-0.009563382329
0.9602465653
-0.01451637374
0.960143886
-0.009917683102
0.9599572197
-0.009763556101
-0.4772857494
0.4786635069
-0.01129544062
-0.4769722745
0.0127230652
0.4784268382
-0.01417762891
-0.4766532613
0.01566892695
0.4781803818
-0.008660521193
-0.00853552619
-0.2379577038
0.009452983369
0.2383584631
-0.009853742744
-0.2305025642
0.01340691352
0.2356313008
-0.01854609064
-0.2197707754
0.03230944366
0.2235632467
-0.03613665252
-0.2210030175
0.04508131554
0.2231408312
-0.04724912566
-0.2051629226
0.04617898298
0.2047524633
-0.0457748916
-0.2364547541
0.05141594272
0.2357086957
-0.05064772352
-0.2423018245
0.04597449113
0.2399663623
-0.04359739792
-0.2394571884
0.03407385168
0.2356181618
-0.03019751585
-0.226605852
0.01708555551
0.2237042005
-0.01417984804
-0.2229148933
0.01285532761
0.2224636592
-0.01240409346
0.01102984166
-0.2219929484
0.2215289732
-0.01056586646
-0.4426198431
0.01821379049
0.4408897115
-0.0164836589
-0.4419474027
0.01479766394
0.4402886635
-0.0131389248
-0.01673299703
0.8770859045
0.0112262928
0.01152178937
-0.0109952051
0.876465527
-0.002650245804
0.8759894552
0.8756265353
-0.004559707783
0.9647924836
-0.009173346928
0.9648602044
-0.01387877961
0.9648493187
-0.00946837006
0.9648079022
-0.009261092134
-0.4799716474
0.4812511393
-0.010747862
-0.479811368
0.01205892801
0.48113059
-0.01337815002
-0.4796153946
0.01471262299
0.4809620659
-0.008101081519
-0.007958212773
-0.2394684126
0.008787048015
0.2398098652
-0.009128500595
-0.2386202586
0.01014389175
0.2389532173
-0.01047685041
-0.2367792934
0.01144699248
0.2375341623
-0.01220245465
-0.2310271872
0.02211159288
0.233924171
-0.0250147184
-0.208783331
0.02791173497
0.2108373706
-0.02996708446
-0.232462261
0.03152722741
0.2312077515
-0.03026528877
-0.2311990102
0.02338579758
0.2280191412
-0.02019839947
-0.2245278712
0.0136174658
0.2243092256
-0.01339882023
-0.2226535375
0.0126090507
0.2223524891
-0.01230800221
-0.2212721337
0.01132117015
0.2209219937
-0.01097103011
0.00988122518
-0.2202973235
0.2199194285
-0.009503330167
-0.4392962742
0.01655875113
0.4378303398
-0.01509281667
-0.4387695683
0.01363573144
0.4373104292
-0.01217659235
-0.01564252805
0.8716113707
0.0103868245
0.01073023734
-0.01032769851
0.8711506974
-0.005128559498
0.8707903162
0.8704979758
-0.004329135996
0.9691216196
-0.008694011374
0.9692250798
-0.01311228645
0.9692675937
-0.008927767235
0.9693124351
-0.008689052032
-0.4824570959
0.4836322478
-0.01010291917
-0.4823792644
0.01129434306
0.4835639405
-0.01247901915
-0.4822223131
0.0136614945
0.4833990976
-0.007485935434
-0.007352343514
-0.24075321
0.008083971523
0.2410433455
-0.008374107026
-0.239856392
0.009220220445
0.2401285485
-0.009492376936
-0.2383817156
0.01027490734
0.2386337241
-0.01052691582
-0.2359641544
0.01117967407
0.2359794858
-0.01119500545
-0.2148957964
0.0107499253
0.2157531048
-0.01160723366
-0.2297036828
0.01231374092
0.2297324981
-0.01234255622
-0.2265798854
0.01222200339
0.2264906899
-0.0121328079
-0.2237342604
0.01173968711
0.2235652134
-0.01157064006
-0.2215600459
0.01096239134
0.2213272074
-0.01072955289
-0.219988094
0.009957892528
0.2197106224
-0.009680421009
0.008802681455
-0.2189183927
0.2186064376
-0.008490726342
-0.4364806028
0.01492716812
0.4352374573
-0.01368402257
-0.435980385
0.01242834052
0.4347032719
-0.01115122738
-0.01444159984
0.8666795697
0.00950909236
0.009864308442
-0.009576438405
0.866285536
-0.00476739642
0.8659812742
0.8657305794
-0.004070573711
0.9731921933
-0.008161161674
0.9733156678
-0.01227269277
0.9733791248
-0.008335250945
0.9734591873
-0.00808419404
-0.4847329466
0.4858061801
-0.009408484464
-0.4846813758
0.01048424541
0.4857392504
-0.01154211993
-0.4844970681
0.01258556302
0.4855211713
-0.006861657374
-0.006748008826
-0.2418447215
0.007385595946
0.2420914434
-0.007632317885
-0.2408691453
0.008339913694
0.2410932303
-0.008563998659
-0.2393095954
0.009201158396
0.239511328
-0.009402891022
-0.2359208322
0.009867335271
0.2358730181
-0.009819521226
-0.2181135239
0.009612556659
0.2188309128
-0.01032994549
-0.2297741957
0.01071524651
0.229775613
-0.0107166638
-0.2262425923
0.01059236759
0.2261651478
-0.01051492306
-0.2231115559
0.01019105807
0.2229754501
-0.0100549522
-0.2207045408
0.009569169517
0.2205187435
-0.00938337229
-0.2189629327
0.008764244149
0.2187384932
-0.00853980469
0.007822130082
-0.2177838929
0.2175253961
-0.007563633208
-0.4340895847
0.01339131104
0.4330284603
-0.0123301867
-0.43354231
0.01124629
0.4324259828
-0.01012996284
-0.01321241238
0.8622622926
0.008639733625
0.008989955899
-0.008793685295
0.8618668089
-0.004387113161
0.8615747021
0.8613434662
-0.003797854785
0.9769900481
-0.007602723017
0.977120536
-0.0114029749
0.9771793767
-0.007723976261
0.9772543388
-0.007474150134
-0.4868039616
0.4877787712
-0.008698785927
-0.4867351362
0.009665939363
0.4876769004
-0.01060770359
-0.4864761217
0.01152701133
0.4873665909
-0.006255845297
-0.006161635209
-0.2427735882
0.006715392017
0.2429840251
-0.0069258289
-0.2417061673
0.007521297988
0.2418926483
-0.007707779002
-0.2400565197
0.00823429923
0.2402204112
-0.008398190733
-0.2356650944
0.008727265583
0.2355780922
-0.008640263366
-0.2207715567
0.00861482055
0.221348331
-0.009191594869
-0.2297527362
0.009386949591
0.2297377828
-0.009371996218
-0.2259453754
0.009243108977
0.2258757695
-0.009173503056
-0.2226037778
0.008897059873
0.2224904665
-0.008783748591
-0.2200150491
0.008383893692
0.2198628054
-0.008231649985
-0.2181278711
0.007723548153
0.2179428688
-0.007538545811
0.006942735985
-0.2168422192
0.2166256183
-0.006726135105
-0.432046249
0.01197395652
0.4311363956
-0.01106410311
-0.4314120809
0.01012549974
0.4304352636
-0.009148682511
-0.01200740072
0.8583200402
0.007809335437
0.00814031764
-0.008016652195
0.8578760604
-0.004006855947
0.8575649058
0.8573366103
-0.003523244989
0.9805132931
-0.007043162576
0.9806404536
-0.01053926837
0.9806754825
-0.007120523846
0.9807149127
-0.006879318448
-0.488679937
0.4895628316
-0.008003418447
-0.4885630711
0.008871572259
0.4894011863
-0.009709687529
-0.4881968633
0.01052100029
0.4889736865
-0.00569116575
-0.005606657745
-0.2435670935
0.006091520326
0.2437473746
-0.006271801319
-0.2424060374
0.006777177306
0.24256329
-0.006934429923
-0.2406662338
0.007376490636
0.2408009936
-0.007511250503
-0.2352779449
0.007737735403
0.2351679686
-0.007627759131
-0.2228766558
0.007744440032
0.223321839
-0.008189623274
-0.2296763749
0.008272200734
0.2296513558
-0.0082471816
-0.2256761529
0.008115561451
0.2256123938
-0.008051802328
-0.2221766768
0.007809587437
0.2220797836
-0.007712694311
-0.2194451721
0.007375180337
0.2193175335
-0.007247541763
-0.2174350095
0.006822066605
0.2172798238
-0.006666880885
0.006164843385
-0.216050544
0.2158668082
-0.005981107577
-0.4302917229
0.01069246567
0.4295068237
-0.009907566443
-0.4295479567
0.009091072784
0.4286910725
-0.008234188533
-0.01086461316
0.8548067189
0.007036042968
0.007341891423
-0.007272571063
0.8542840183
-0.003640742453
0.8539330772
0.8536958679
-0.003255187577
0.9837684807
-0.006499107894
0.9838843739
-0.009705467549
0.9838818421
-0.006540811311
0.983863935
-0.006313678509
-0.4903753507
0.4911738859
-0.007339346534
-0.4901900464
0.008118576972
0.4909365824
-0.008865112943
-0.4897007888
0.00958226779
0.4903819035
-0.005171778126
-0.005091604321
-0.2442481882
0.005520285129
0.244403663
-0.005675759844
-0.2429991902
0.006109046991
0.2431336861
-0.006243542823
-0.241168986
0.006619702599
0.2412805566
-0.006731273227
-0.2348203146
0.006878024177
0.2347010762
-0.006758785703
-0.2244826195
0.006979184959
0.2248160497
-0.00731261519
-0.2295657598
0.007328861486
0.2295343079
-0.007297409607
-0.2254283516
0.007164652112
0.2253692183
-0.007105518848
-0.2218085659
0.006889170141
0.2217239647
-0.006804568998
-0.2189639953
0.006513819617
0.2188549225
-0.006404746783
-0.2168505479
0.006042266171
0.2167183687
-0.005910087002
0.005481393213
-0.2153768449
0.2152192301
-0.005323778405
-0.428775732
0.00954701126
0.4280940961
-0.00886537534
-0.4279121844
0.008151561586
0.4271580838
-0.007397460989
-0.00980480218
0.8516753029
0.006329429635
0.006606788561
-0.006577142758
0.8510563589
-0.003297054354
0.8506529888
0.8503988135
-0.003000099858
0.9867685805
-0.005983056797
0.9868673309
-0.00891911349
0.9868178988
-0.005995949986
0.9867278734
-0.00578710194
-0.4919063296
0.4926284944
-0.006718114774
-0.4916397699
0.007418187805
0.4923060094
-0.008084427322
-0.4910207225
0.00872000112
0.4916204669
-0.004696214099
-0.004623531385
-0.2448370643
0.005001277095
0.2449721885
-0.00513640127
-0.2435088441
0.005511846619
0.2436253387
-0.005628341262
-0.2415855354
0.005951466681
0.2416780581
-0.006043989464
-0.2343426329
0.006129129787
0.2342247336
-0.006011230471
-0.2256768182
0.006300841998
0.2259222913
-0.006546315156
-0.2294332666
0.006523017582
0.229397749
-0.006487499991
-0.2251977954
0.006354928715
0.2251424888
-0.006299622101
-0.2214852281
0.006103640522
0.2214101699
-0.006028582328
-0.2185504619
0.005774056892
0.2184558001
-0.005679395113
-0.2163504079
0.00536614229
0.2162363655
-0.005252099928
0.00488184816
-0.2147972768
0.2146607682
-0.004745339594
-0.4274570239
0.008532609439
0.4268610444
-0.007936629935
-0.4264718082
0.007309286973
0.4258056108
-0.006643089509
-0.008839723866
0.8488803893
0.005693798997
0.005940838457
-0.005939978665
0.8481566136
-0.002981035422
0.8476940456
0.8474177781
-0.002761755165
0.9895303357
-0.005502187202
0.9896077629
-0.008189797472
0.9895055091
-0.005492810669
0.9893340165
-0.005303129944
-0.4932894643
0.493943344