/*--------------------------------*- C++ -*----------------------------------*\
| =========                 |                                                 |
| \\      /  F ield         | OpenFOAM: The Open Source CFD Toolbox           |
|  \\    /   O peration     | Version:  v1912                                 |
|   \\  /    A nd           | Website:  www.openfoam.com                      |
|    \\/     M anipulation  |                                                 |
\*---------------------------------------------------------------------------*/
FoamFile
{
    version     2.0;
    format      ascii;
    class       volScalarField;
    location    "0.1";
    object      k;
}
// * * * * * * * * * * * * * * * * * * * * * * * * * * * * * * * * * * * * * //

dimensions      [0 2 -2 0 0 0 0];


internalField   nonuniform List<scalar> 
12556
(
36.90869889
36.90875659
36.90886888
36.90909595
36.95447083
36.95528822
36.95680303
36.96014861
36.96671511
36.97779494
36.99246973
37.00656629
37.01124427
37.01071132
37.00518156
36.99037882
36.97700791
36.96659669
36.96049953
36.95696999
36.91059049
36.90934359
36.90874616
36.90842062
36.72746706
36.72769261
36.72800467
36.72868482
36.77474017
36.77898958
36.78781929
36.82305435
36.85339202
36.90494784
36.97958795
37.03339124
37.05688132
37.05709438
37.03494412
36.98418218
36.91540841
36.86271225
36.80903003
36.78890785
36.73446669
36.730313
36.7284072
36.72747293
36.54745136
36.54803745
36.54901051
36.55105728
36.59868863
36.60944387
36.63064303
36.68628678
36.75937607
36.8782304
37.00891773
37.10701882
37.14966447
37.15108851
37.10746634
37.02047553
36.89858193
36.78064251
36.67910658
36.63341675
36.56549874
36.55598023
36.55153406
36.54979204
36.36878381
36.36951841
36.37125678
36.3756117
36.42717829
36.44958845
36.49647226
36.58972801
36.73718838
36.92768956
37.12626755
37.27801592
37.35480507
37.34562435
37.26548469
37.12504981
36.94560345
36.76675971
36.59008191
36.50067686
36.40584165
36.38765881
36.3788949
36.37553748
36.19202519
36.19329037
36.19677369
36.20589322
36.26379093
36.30450725
36.39284704
36.54784583
36.78108207
37.06835157
37.37684876
37.63378429
37.78445524
37.75063528
37.58963247
37.34242023
37.07073574
36.8121341
36.56257948
36.39833712
36.26057929
36.22525984
36.20952139
36.20347245
36.01686602
36.01886614
36.02485166
36.04008568
36.11081522
36.17989866
36.33243923
36.56027862
36.88863779
37.31597027
37.83528219
38.37643564
38.73526442
38.62366674
38.20296198
37.74076845
37.30211578
36.92325342
36.57941958
36.33265826
36.1300203
36.06856196
36.0423157
36.03209385
35.84469905
35.8482334
35.85867836
35.88441924
35.97095583
36.0783533
36.31279491
36.61150952
37.06250354
37.69437787
38.61469939
40.07275237
40.8276738
40.6948468
39.30620413
38.38104632
37.6604991
37.10433183
36.63310683
36.30589442
36.01380863
35.9179042
35.87675661
35.86075776
35.6768802
35.6823408
35.69842883
35.7384399
35.84397544
36.0025529
36.32263007
36.69532608
37.28673191
38.17633936
39.71574486
43.01044383
43.83643964
41.07359087
39.28058424
38.14272284
37.34940545
36.72127616
36.3090673
35.91528577
35.77526286
35.71424537
35.69078458
35.51670315
35.52533227
35.54974382
35.6082629
35.73363676
35.95212084
36.35122309
36.80591013
37.54085891
38.67987546
40.76835335
45.89280167
49.22738832
43.21721742
40.34777217
38.70764206
37.63845733
36.83262578
36.3248843
35.83252549
35.64302809
35.55838388
35.52597734
35.36605386
35.37810228
35.41143749
35.49013291
35.64248212
35.92449972
36.39431016
36.93125839
37.79495939
39.13210219
41.54727916
47.17011726
52.77128371
45.14779249
41.40360578
39.28045141
37.93571096
36.95546355
36.35016762
35.76855376
35.52591737
35.41457309
35.37182506
35.22813495
35.24499814
35.28996733
35.39346575
35.56985568
35.91490316
36.44859947
37.06343586
38.03680746
39.5229026
42.15447473
47.79557455
54.44652929
46.57215474
42.29324528
39.78916438
38.21514983
37.07561707
36.3814981
35.71951039
35.4259208
35.28762299
35.23369286
35.10248668
35.1236669
35.17919527
35.30625085
35.51235914
35.91759915
36.50839356
37.19456193
38.25995129
39.86607719
42.69066007
47.6216229
55.15377799
47.49914428
42.9505292
40.18984223
38.44888971
37.18202507
36.41381687
35.68664906
35.34426559
35.17980688
35.11456434
34.98991913
35.0166461
35.08674507
35.23992241
35.46488364
35.92186971
36.56553623
37.31894839
38.45829319
40.16798718
43.2350792
47.09573313
42.74712348
54.98561869
48.02300218
43.37215768
40.45740977
38.62262513
37.26669502
36.44119281
35.65960595
35.27852256
35.08985129
35.01419919
34.88699826
34.91872691
35.00153416
35.17594822
35.43846702
35.95152765
36.65912985
37.4580726
38.66599856
40.48696738
43.81744086
45.64872516
53.81371326
54.98443294
48.22723913
43.55030179
40.60671389
38.73839081
37.32823708
36.45963918
35.63303477
35.22307098
35.01357238
34.92885656
34.79168293
34.82811644
34.92232518
35.11622358
35.403098
35.95784991
36.71684517
37.57907154
38.86008167
40.7610072
44.14672362
42.20479535
55.21109561
54.33891855
48.01902699
43.51015708
40.63763941
38.79992534
37.36011463
36.46500168
35.60370605
35.17161595
34.94519094
34.85319037
34.69923285
34.7399654
34.84398551
35.05549533
35.36484445
35.9527013
36.76215749
37.70363208
39.10161336
41.13235604
44.43552412
38.27085875
53.42334159
52.95646327
47.39807082
43.27408788
40.57945922
38.80387881
37.35920279
36.45451158
35.56203876
35.11562264
34.8780154
34.78041359
34.60777065
34.65223783
34.76409367
34.99020734
35.31895803
35.9305462
36.77889642
37.80015335
39.37733327
41.63649723
44.3528407
28.52578459
52.51994021
51.21613529
46.42986884
42.8984165
40.48584328
38.76839773
37.33480007
36.41874349
35.50723202
35.0534441
34.80726228
34.70538278
34.51263003
34.56025536
34.67834811
34.91665637
35.26184132
35.88936996
36.76628757
37.82148587
39.54951043
41.99559987
43.231072
26.26002332
51.48822761
49.48093512
45.46635594
42.50079332
40.33308087
38.68361087
37.26375325
36.34926284
35.43188456
34.9762643
34.7276786
34.6230151
34.41437901
34.46454374
34.58715712
34.83437729
35.19176125
35.82859011
36.72124299
37.79639667
39.53473992
41.94971328
40.86807297
28.48033742
50.21813245
48.14196719
44.7798811
42.14754962
40.11485249
38.53992594
37.15385811
36.25206652
35.33894543
34.88615972
34.63758689
34.53189659
34.30884465
34.36099569
34.48705835
34.74133358
35.10842625
35.74941412
36.64939451
37.73327013
39.45662118
41.64035315
39.16044689
29.4701825
48.93988694
47.2566699
44.23090592
41.78170888
39.86375066
38.35858746
37.01519302
36.13148606
35.22883249
34.78176292
34.53502044
34.4291679
34.19973305
34.25332717
34.38156531
34.6398476
35.01247053
35.6539148
36.55543859
37.64096016
39.33348226
41.23303064
37.618031
29.74087909
47.74796237
46.45373844
43.71727327
41.41989086
39.59836998
38.15501479
36.85558427
35.992211
35.10500251
34.66614642
34.42255131
34.3172003
34.08203693
34.13667023
34.26663597
34.52821518
34.90534217
35.54466275
36.44391328
37.52612864
39.17444279
40.76093555
36.19367538
29.89444446
46.64135597
45.71253409
43.23626232
41.07001833
39.32924543
37.93950062
36.68119801
35.83873413
34.96833708
34.53823154
34.29824799
34.19379845
33.96296173
34.01825129
34.14902233
34.41120052
34.78870033
35.42427448
36.31876297
37.39404175
38.98663281
40.26151267
34.9037087
29.88414201
45.6088765
45.02340061
42.78341095
40.73483558
39.06238634
37.7186832
36.49715723
35.67491523
34.8235954
34.40336707
34.1674182
34.06413071
33.83465619
33.89039237
34.02203913
34.28551374
34.66448099
35.29516035
36.1832456
37.24886192
38.77512256
39.749238
33.75194474
29.71183263
44.63997681
44.37836135
42.35489722
40.41422337
38.80099311
37.49669084
36.30740934
35.5039941
34.6700246
34.25863481
34.02645374
33.92440585
33.70884348
33.76478338
33.89652265
34.15852542
34.53422383
35.15941445
36.0401056
37.09365811
38.54327419
39.23329655
32.73478084
29.40272222
43.72251072
43.77071137
41.94763919
40.10705729
38.54653973
37.27612176
36.11481793
35.32847327
34.51374962
34.11215071
33.88389442
33.78313868
33.57243841
33.6284983
33.76072247
34.02329861
34.39959227
35.01879541
35.89150487
36.93044886
38.29417688
38.72172009
31.84359112
28.98771138
42.85052751
43.19468709
41.55891053
39.81201465
38.29946315
37.05849776
35.92136662
35.15034702
34.35058517
33.95656462
33.73160201
33.63205247
33.4439257
33.49994808
33.6318506
33.89153002
34.26155484
34.874732
35.73903361
36.76047823
38.0317199
38.22035403
31.0664062
28.50649268
42.01841772
42.64558322
41.18632584
39.52787744
38.05971394
36.84468975
35.72845358
34.97099994
34.18978055
33.80496008
33.58348612
33.48510836
33.30122945
33.35719307
33.48937032
33.7496762
34.12145458
34.72832976
35.5837746
36.58455807
37.75959303
37.73230982
30.39098572
27.9828514
41.21977008
42.11946022
40.8277346
39.25347827
37.82695836
36.6351172
35.53700751
34.79162353
34.02113196
33.64197978
33.42313675
33.32577409
33.17396008
33.22977416
33.36138525
33.61763043
33.97960785
34.58044369
35.42648359
36.40341723
37.48142088
37.25948569
29.80467509
27.4305014
40.45097334
41.61308462
40.48129854
38.98776036
37.60076242
36.42995205
35.34765982
34.6128388
33.86107643
33.49062645
33.27477652
33.17837422
33.02500874
33.08069265
33.21246625
33.46991137
33.8372847
34.43174602
35.26768207
36.21779749
37.19982687
36.80298425
29.29530549
26.86273515
39.70998595
41.12391678
40.14539926
38.72973205
37.38062212
36.22918245
35.16081641
34.43547792
33.68839673
33.32159032
33.10784499
33.01227118
32.90304231
32.95854456
33.08967193
33.34213205
33.69412392
34.28274482
35.10774747
36.02847248
36.91668668
36.36327787
28.85175809
26.29136768
38.9951308
40.64959031
39.8186461
38.47850156
37.16603394
36.03271613
34.97675264
34.25964306
33.53451164
33.17623247
32.96499049
32.87015607
32.74637283
32.8017094
32.93281102
33.1869467
33.55175103
34.1338899
34.94701763
35.83620522
36.63352398
35.94038324
28.46399617
25.7254822
38.30403485
40.18841993
39.49987614
38.23329236
36.95652351
35.84038305
34.79565072
34.08616451
33.35582831
32.99935055
32.78989912
32.69573778
32.63487901
32.69002302
32.82055241
33.06951672
33.40898656
33.98557647
34.78588768
35.64169196
36.35181282
35.53390374
28.12320203
25.17317839
37.63517509
39.73910646
39.18807302
37.99338926
36.7516174
35.65195672
34.6176935
33.91462719
33.21536196
32.8667644
32.65913109
32.56546832
32.46699554
32.52191751
32.65204396
32.90168514
33.26865681
33.83848541
34.62492609
35.44564406
36.07255289
35.14323229
27.82164133
24.64208033
36.98809619
39.30085198
38.8824257
37.75819707
36.55091895
35.46730387
34.44333847
33.74656571
33.02267915
32.67549948
32.46954197
32.37639394
32.37258025
32.42734651
32.55713219
32.8042687
33.1290229
33.69389218
34.46567967
35.24868818
35.79668157
34.7678407
27.55306025
24.13849136
36.36334302
38.87309796
38.58227507
37.52718954
36.35405114
35.28616902
34.27404138
33.58198442
32.90879869
32.56566703
32.36068813
32.26781512
32.15710333
32.21159468
32.34079514
32.58722283
32.99731715
33.55515231
34.31336225
35.05192112
35.52574168
34.41024562
27.31323105
23.66651241
35.76558056
38.45836475
38.2886333
37.30054632
36.16100701
35.10846005
34.11474241
33.42766215
32.66066375
32.32016885
32.11704012
32.0246694
45.66554483
49.92935767
44.27238817
47.04773297
53.81068083
50.40173363
47.76410004
55.49013453
54.11911579
47.67104055
56.13513539
55.59670013
47.12947575
39.96991277
41.95074186
56.42560693
56.17297546
46.17652023
47.87689474
40.1124381
53.22431233
56.89465371
56.45032384
42.50799105
40.80258645
43.75425803
40.55386809
55.3812157
46.49809386
48.64538065
43.72561221
41.74519757
41.37487058
45.87239015
44.76438934
57.80358213
61.43977683
52.45460632
46.10777254
44.36810424
42.01710471
46.71534602
45.99701683
47.49061262
50.283509
51.41193432
55.19856975
54.9513933
54.3130242
47.82010335
46.59916437
42.57642273
47.09274122
46.79097788
47.79950932
46.02256571
48.3441724
56.99920209
55.79694325
43.12108795
47.10127426
47.11089912
47.38844542
40.66009542
43.36697168
42.02852209
58.38743581
57.97707987
43.72131969
46.68757225
47.07635481
46.81195778
33.59787447
36.98079848
44.57080393
50.34516938
48.28770868
51.0077232
53.3885038
45.43585672
50.47080992
61.44102381
55.77265371
47.53143321
54.37871321
59.86153653
51.54556964
52.2779047
46.60219175
53.22044531
51.67226412
53.60213014
53.38386199
55.10172097
57.48376303
52.32224253
58.94016151
57.09515231
60.01684555
59.12025031
52.06082529
48.56851769
50.08959762
47.57834481
49.67114528
47.5051714
51.57204494
49.80573192
55.57734787
55.28319198
55.04238917
57.46291875
57.72924915
56.99815082
57.4249824
54.85866321
43.51735843
45.87945497
47.77926983
44.76086494
41.90572254
47.36088056
44.92127184
57.89692464
57.136994
37.15405181
40.4624885
47.35966745
46.34435303
38.22701542
34.38848259
41.74630556
38.46748403
49.00695096
58.60762569
58.43523159
41.27173268
40.95286627
33.53634118
46.76731965
44.4021436
32.41889722
90.38474049
34.28519752
32.45895429
43.75958069
40.53262857
44.54974925
42.31689165
44.38948603
49.08077707
44.9112406
73.02457879
51.39584644
46.46760493
52.32604059
51.75049868
66.40630027
55.11429819
48.90676595
48.14081976
75.5284724
46.59157383
44.8428384
48.24398432
58.9007243
58.71118403
51.54991788
49.50303638
44.76557795
61.32029439
48.70803359
58.84767878
45.93613069
53.19255623
46.82326372
44.36904916
41.64349874
55.93844821
58.16359588
58.36517925
57.781817
58.12746533
55.87464703
39.91189668
66.30295134
41.1534467
42.64838301
42.21037452
44.79263921
45.79359236
42.67401571
42.71650302
80.70732766
51.66652566
72.65162118
49.79325104
67.03568705
50.6140878
60.31123464
60.56120556
54.97609784
54.9672758
42.78010269
58.19714684
56.5123981
44.0799505
41.89557772
63.03540749
45.44290097
56.34473213
42.13563382
46.92815111
46.53720272
50.26486709
47.61878009
66.80051924
35.91880227
44.56634679
44.05606542
45.23247932
44.75523898
36.04588481
67.08540434
61.95497563
52.24485543
62.47790925
63.5800205
56.71782412
62.02615583
52.56719195
47.77648729
55.74870557
47.68314486
62.47970881
56.75023101
48.5751503
59.79851229
66.84844287
59.73187729
59.31872086
52.49512759
47.65949272
52.39662682
53.80500043
51.86928652
56.00371042
48.14112146
51.33599083
53.75975463
56.4226742
56.62452855
58.04978316
57.02808074
56.46348099
57.53547245
57.17355146
57.91059513
60.26239359
55.08568764
53.95117314
56.23986167
55.40937377
60.18561205
48.68309742
48.54303404
50.80545363
50.69374927
55.8269836
64.47430755
55.74586215
43.6216579
43.42477523
46.20937143
46.04350147
41.90349193
43.61526972
57.51465414
41.51069783
42.37064379
39.20246992
45.84602643
45.39151389
46.40370469
45.98926499
39.37292803
40.03629042
37.22962695
37.05966259
40.62301862
40.46386019
76.75970429
39.70434932
53.0891175
51.06738446
43.85962995
43.38062144
32.84940182
33.01087662
43.63014553
51.37783906
33.80171056
89.09036224
53.74488744
80.69415667
33.72361197
41.74143497
62.2300555
44.85883149
72.26332869
41.74054499
44.24770593
44.07677676
46.02372575
46.5653373
45.06278351
38.17757184
43.00886803
55.65463363
56.21265344
56.80362598
60.19468348
45.99569241
56.03892627
55.02672503
53.67711373
39.71312884
59.02184215
58.95800242
48.94149962
44.80294211
44.40138524
47.86543988
49.90555238
44.55950497
44.90611992
59.01157145
62.99322484
61.06443213
61.26335431
55.00926499
45.51788064
44.9307884
55.20193099
54.90083609
54.70062778
47.05239789
48.68680117
48.39451999
49.04339849
48.77997443
47.22161895
47.41709622
47.05233231
42.2921047
34.18124353
40.58354111
40.12894779
83.13091347
61.91402168
48.55353396
61.02247832
65.8741123
63.55363894
57.31379357
51.52246586
49.79304014
53.51644275
52.05959433
57.71558648
55.60942416
54.77119179
55.22373446
56.89848526
49.25188843
49.33709225
49.12369782
43.16348539
43.76289955
47.95767035
44.89144854
44.58814031
55.45333245
57.56073615
58.04041248
58.01139617
56.8101825
57.83718875
57.62347396
57.99364734
57.88383731
56.805501
44.70563361
47.87064467
47.53362141
48.29305863
47.97926335
44.86453341
44.28209509
37.90669249
38.30154456
34.1406408
34.45457718
42.45215165
46.87941641
42.19586628
42.99705443
38.45558115
38.89850937
45.4014471
57.61269726
44.18988779
49.15299946
81.00507122
42.13386896
37.74743374
35.65707568
41.27107324
33.84077816
34.07034891
33.29287692
39.58984612
66.68277224
38.1902759
41.90252562
41.01979049
39.9826535
39.56200865
33.37123546
43.93605626
41.30795183
46.41415889
32.31710249
101.7598696
47.09275073
43.17986253
44.88892156
34.1005257
32.61414844
63.47279338
63.31392545
62.02706253
66.11397159
65.85037086
40.4122437
41.208834
76.17851406
58.71943547
58.56357062
52.77805371
68.68966403
53.26564073
68.85829291
54.11564189
54.81563808
45.40870074
42.43175745
63.01410873
72.56518599
63.81154526
49.3434894
39.65782228
66.81291211
80.5118547
49.93585629
63.2067947
86.52334032
42.62940248
47.31528642
40.48068414
41.83756761
78.4785138
80.96705142
61.63715813
56.66743814
67.02228552
62.66318301
55.71590265
51.6306138
59.48714483
58.15371004
58.8857988
59.4463954
61.09492239
60.53920844
58.69062228
47.39484836
46.02310821
54.96437479
58.47258687
56.75955343
49.33174494
57.35799704
56.02996556
54.74030072
55.09721398
48.12034345
46.10848243
47.93356305
42.51093352
49.18083127
47.87096631
51.45525988
45.51342879
44.40164964
47.37595884
46.05345822
49.28882231
51.39934178
40.19112279
40.3259727
41.22952296
40.71779272
34.77509155
36.45552171
41.79998525
41.37378509
65.18976516
64.41060648
63.90085745
56.36026992
57.09409295
55.09635059
56.0779422
64.27545203
59.95041146
57.6990479
57.56205978
57.28000302
57.63264265
60.32720418
60.47544533
53.50808027
54.75827774
64.72658483
65.29633111
66.75736427
65.51704939
60.73812465
67.04733301
68.99790366
67.43116569
69.26123096
68.43244742
69.60490837
68.95002149
57.87049514
65.89066164
67.00760061
45.91273597
52.66719875
51.56044715
53.71774655
52.96779815
46.64956023
50.03931321
49.28913695
51.17771018
50.2982327
53.50990778
56.60469689
55.91788505
57.40881868
56.8220987
54.09964624
49.41837204
54.71306697
53.97117505
55.68004922
54.95722341
49.87748424
54.50234168
54.60619664
55.80571387
56.88838174
55.48608112
54.44211916
42.53031114
41.9473892
43.54214851
42.73499075
41.01592568
40.44711194
41.76156499
41.18859431
48.10638592
47.414677
49.04836
48.34335181
46.04947618
44.07803828
47.16568817
46.4768057
43.71775005
44.07325244
44.12876929
43.73094864
64.34494852
46.06636295
47.91906413
44.21284599
45.37558433
37.3929662
37.75163777
44.1213655
34.88243211
34.6220325
35.26886957
34.9873706
34.43200711
42.68858029
34.70264228
36.9364667
39.87852966
41.89371787
46.71713847
39.41070827
36.47281631
40.33058146
39.44662618
35.73210007
35.39019692
36.2650284
35.85887602
45.56105492
39.0553203
39.58714583
72.53647392
41.55650275
71.62737955
61.9061776
71.08375988
41.67172377
83.8655274
41.31967527
80.4305472
71.24114775
37.60696182
36.37100907
33.53884101
33.7708935
41.11231118
39.87084701
33.30301598
33.48879471
77.11468111
33.30914958
39.36175446
38.63177733
89.66248216
93.98228259
32.28491351
97.46271507
82.36165432
46.55969489
34.03047195
89.29796966
62.58566504
96.72208231
66.27029846
32.75269002
43.35750547
41.12572385
39.58698099
75.34927912
74.69256458
55.61101391
49.5252382
49.09662859
76.05998914
39.68816295
47.23524984
42.53626033
58.38150994
58.54409156
56.3065727
48.04135054
46.93279516
52.26416182
60.63624281
47.64358905
48.03575002
42.05884068
42.46907643
45.44373367
53.68774066
58.86260861
62.42690509
50.81063207
49.63310724
49.58154675
49.59009233
49.63559945
50.9703292
41.07643825
40.30568717
47.40555559
50.03244593
52.25043011
58.18906505
42.34444085
41.93399741
36.58032408
63.56283295
65.63692366
57.41174275
49.54588668
49.39918843
49.46917321
49.24920516
45.58262902
46.34384569
46.71747373
47.86913932
50.20884703
38.13058692
42.91496625
42.47986878
61.96241292
58.25386915
44.61405008
32.91861617
32.97046342
34.5725287
53.51598655
77.92160501
69.49768179
40.08438129
43.26610855
41.44187585
32.38563265
34.2186362
32.82501372
32.87636486
32.49552353
73.97638061
65.42566032
50.37222785
54.25579343
74.35299114
41.12450357
40.59484768
47.12673761
60.37061904
49.18829517
47.31059763
50.10978619
42.88682664
43.79453516
41.49981588
83.58901869
86.84747117
87.88433365
76.01697438
85.35708901
44.04701855
44.50407497
48.70190621
75.78868868
68.04602418
64.25175508
78.93537549
75.87784983
43.37735353
53.001449
50.51134594
68.72649487
67.40536511
52.07262986
50.8148534
49.63312107
42.31846069
64.20054414
45.31097655
46.52422948
59.42276215
44.64028964
46.79525766
66.69222135
67.66857985
62.80342824
62.98388341
61.30474627
61.15434172
57.47285507
58.83970065
58.33663286
60.95714436
60.67893343
61.44963872
51.53106449
53.08381638
59.82177118
61.76816552
69.523166
64.54143542
69.34727392
69.79564254
65.9336498
43.81525218
46.60166519
45.96471027
51.18650442
50.88386563
47.35854653
43.32876464
43.02492356
45.4161174
44.97656896
52.40781068
55.23781092
54.81033708
57.86987404
57.42332337
55.33932429
48.51749269
51.96031056
51.6034909
54.38190904
53.96324211
50.83544609
44.75917033
45.37067395
49.11239232
48.10074507
43.95658585
44.55957661
49.01065424
49.6285204
51.14581979
41.30749851
41.12012415
42.76548792
42.52661232
38.33085085
40.85659707
40.70364927
50.32992618
48.1538594
48.79752656
62.89847987
62.04899669
47.64199239
48.71961852
63.81911524
61.67585374
62.15540818
55.52524007
44.56641435
45.08209834
43.4590325
43.05434948
38.50913416
39.82448383
43.94624264
43.57992393
34.78328841
34.84354876
37.34463033
36.93015809
34.58942454
34.65603358
76.5711837
32.81623826
34.7369836
33.63901396
108.9872576
32.54080116
45.31583082
78.0697158
72.09488351
32.487176
32.52502042
33.88242908
87.69546258
92.85743297
90.61741236
74.96571619
33.58663923
32.4002268
32.44485031
52.17814938
40.12452126
40.33559183
74.84648879
73.76559381
57.11857055
54.06074874
43.17836618
61.3886491
64.72461684
69.00795854
48.9692339
73.35810689
63.92599833
73.51103128
71.76240731
52.2293146
46.29270833
47.36392924
54.70545259
55.93742213
56.31953065
55.32482636
55.60535016
62.41625496
62.23572798
62.73452681
61.14455741
61.63524486
61.6763626
55.56886216
47.05818211
47.4544079
46.4690244
46.74340494
56.15187239
64.791055
64.21434652
64.40466948
63.30335357
63.76678639
64.15189122
54.60093485
48.63519854
49.10350751
47.82664184
48.23669366
54.94992048
55.05750298
54.88873136
54.3091641
54.32678677
38.0167341
40.75249153
40.60318225
34.22643811
37.03790069
36.89704725
37.46170712
37.20521939
34.31724251
77.51577656
79.1923983
70.46757903
78.95963749
33.27720311
33.2184143
33.43823661
33.35910954
32.7741764
34.95141822
33.04267501
33.19063494
33.92380964
36.54468537
36.42229186
36.77709792
36.65808218
33.99492067
33.64299219
33.51814544
35.02859381
33.87846101
33.22360967
80.31857794
76.74341066
59.20080174
79.65068676
36.48166222
35.17598796
38.92283016
33.4464735
35.72068625
35.5905309
32.3462659
101.382192
102.430068
67.40128358
95.87531278
88.2088254
32.71381725
32.78027569
34.16667749
32.54688885
68.6888087
78.34713211
69.87344457
72.74923389
67.345283
55.95628442
75.07357688
68.07301244
67.05820663
66.51554766
75.86244754
58.26117385
65.72483909
59.85859731
56.20444935
64.99454047
56.64455726
60.50330528
69.51600621
71.2177582
61.61949284
68.12260224
73.75201748
71.93655269
73.64361319
70.61774372
73.86868867
83.83106417
83.33038907
81.69895698
53.64993382
74.35224417
67.68737974
81.72593383
83.67149208
58.77193035
64.69714671
70.11319656
85.09349663
72.70022418
56.36778285
60.08050724
74.20564963
68.7047893
75.31145525
65.32135998
69.85640068
73.86729379
76.34578447
75.56662311
57.70163009
57.88062283
58.25180353
57.08963494
56.85283566
56.81829275
59.85059071
60.0565726
60.52644804
58.96939282
59.39939687
59.35112586
46.95137207
46.60813235
46.64564072
57.77970924
57.35021876
52.78513903
59.15745575
59.10159021
57.82461687
55.96319506
56.95308459
51.54754856
46.41980958
46.35362533
46.66190325
46.55844726
49.04724128
67.86199005
59.30485563
44.36126024
70.54237984
69.98411794
69.43696243
49.74602951
67.97630038
66.60635518
43.57780258
44.19781492
56.7320855
66.00074163
63.54399019
59.85911007
59.36729914
58.20120469
61.02136634
60.43591382
60.10339794
70.92865224
70.65859425
63.53365483
71.91380718
74.44255129
65.81675066
70.56210034
70.86309659
66.37904946
64.52471682
64.54350214
64.42377793
64.47128598
65.99048056
67.55261167
68.2094273
69.26262828
73.46051729
72.95879682
74.05620055
73.84011721
69.05602093
70.19768535
72.37152614
73.57780994
70.57245198
49.46304203
49.2587684
45.89300782
46.84053805
50.41264324
50.20237768
43.94124217
43.62081765
44.60863486
44.26190133
56.10278602
55.66584716
52.9348223
54.71241724
56.98322815
56.54216449
52.74802208
52.36841899
49.00150598
50.33030037
53.54622043
53.14845573
54.57408006
50.50887063
51.03102389
49.52768676
50.02240626
54.35724183
54.74072864
52.66315209
53.38959248
51.56307327
52.11277263
54.7877225
42.32953927
38.72692794
38.9165009
38.38592608
38.55766513
42.13885277
43.20580493
39.55105291
39.83445974
39.10697564
39.31902316
42.95566313
40.81363694
37.40148877
37.57451566
37.10729529
37.27848214
40.66197881
41.56955853
38.05219141
38.22288176
37.71723347
37.8950642
41.38701416
41.77754557
41.56408317
47.87664889
45.35016785
45.5825763
44.87659846
45.08888927
47.63690275
42.26443366
42.03281722
39.85458195
39.81093542
45.72156732
43.25648893
43.34026806
40.25175529
40.80786516
44.85930243
46.95730597
44.42151984
44.59715837
43.96245466
44.08543034
46.67490135
40.41097158
40.30461577
62.16194208
61.43157252
63.61406925
50.66022781
55.45795484
46.52481183
60.7259955
61.66187079
59.60503498
60.23373902
47.23681677
44.43672476
54.41415932
50.04061652
60.15209306
60.73170855
44.93560536
37.4574326
40.08196313
39.94265264
40.42798193
40.29244898
37.66514822
34.8164861
34.68364401
35.177261
35.0581834
34.30325491
33.63952367
35.14558424
38.56413606
37.90252532
39.59229842
39.29213146
36.90375218
37.30078482
35.29113919
36.34066864
36.80398503
40.06559515
36.81659297
37.01310394
36.44701527
36.74000228
39.98036981
35.61908685
35.49499871
36.11719681
35.98044913
69.70872827
49.17704942
51.22846829
44.65228043
46.9209329
70.89630116
69.72686666
68.41548867
53.90204337
60.60748825
72.38282014
78.92816371
59.49401739
63.16436993
50.22605882
55.00400679
80.94872738
33.04530773
32.99724895
33.15491237
33.11351468
34.05549962
34.34604901
36.64563007
32.78145463
32.76951812
32.91785809
32.86789557
33.62451995
36.08156187
35.9393631
36.31100487
36.18237458
33.68575773
33.37328711
35.61398606
35.29410778
35.85836223
35.67793158
33.40853931
75.13290472
35.45738183
35.21759568
33.0984284
87.45179288
106.971718
108.9517362
107.4254975
107.0225733
90.78904151
32.31641131
90.6059289
74.57707218
77.68104143
33.95112419
32.57626707
32.64372957
88.80459588
94.32470251
93.38622243
81.69815841
86.89334201
97.75478986
94.92353575
70.47742673
91.63854419
83.85558084
32.4955278
32.38085383
33.2832894
36.71744749
36.75951809
36.84363848
36.77716941
36.8489505
36.88909414
36.87688076
36.96737841
36.9574396
36.99452706
37.06496912
37.02279099
37.08102857
37.11440581
37.05253351
37.11893005
37.12421766
37.0593784
37.12115646
37.09563067
37.04330595
37.08362964
37.02945175
37.00456524
37.00649874
36.92428125
36.93271834
36.89645425
36.81564517
36.87449442
36.60927983
36.6972203
36.73747056
36.73569066
36.86249346
36.84601205
36.90754955
37.0442691
36.97833295
37.08663627
37.1960358
37.08799233
37.22398097
37.27998185
37.14318851
37.29162422
37.29214738
37.15451837
37.2840068
37.23587553
37.12175877
37.21363977
37.12545011
37.04616965
37.09020031
36.97026772
36.92949569
36.92778792
36.80240497
36.80496268
36.55360231
36.70711345
36.69430875
36.76431631
36.95511319
36.87758207
37.02338919
37.23168434
37.0791503
37.29808531
37.4756968
37.24729145
37.52519956
37.63378243
37.34477161
37.65710952
37.65183209
37.35210553
37.62719396
37.52602032
37.29267002
37.48523836
37.3325311
37.16447904
37.27464736
37.09181769
36.99288636
37.03032361
36.85239866
36.80842779
36.55351915
36.77136163
36.71707891
36.85469465
37.13725631
36.99238104
37.24193722
37.5801219
37.30123576
37.69567745
38.04329164
37.58016323
38.15870048
38.39499715
37.76162722
38.43854614
38.42068881
37.76144207
38.33565227
38.09858015
37.64380775
38.01135178
37.72059737
37.40918624
37.62001791
37.32626185
37.13871596
37.23244296
36.97227028
36.87514504
36.59532467
36.89603249
36.79755784
37.01388037
37.42795029
37.19981991
37.58795538
38.15864728
37.69812471
38.38255337
39.20302517
38.25263852
39.53835018
40.40767356
38.68305286
40.47903569
40.24452616
38.64843716
39.86762637
39.19729842
38.31902091
38.97546306
38.3742589
37.85652752
38.19305332
37.70496732
37.40678306
37.5580699
37.16819044
37.01297845
36.67201242
37.06971073
36.93538202
37.22814504
37.81006168
37.51517644
38.05048524
38.9950319
38.34667719
39.42552539
41.91437429
39.63821696
40.90131252
41.45609976
40.35066762
42.16904873
42.16555845
40.8248472
41.5583167
40.84939209
40.3280363
40.5772089
39.35163043
38.58916825
39.03143824
38.23356197
37.82443883
38.00979577
37.44269572
37.22947559
36.7756828
37.27490213
37.1175074
37.47638489
38.23498276
37.91400138
38.55872707
39.89275327
39.22797946
40.00317687
40.67087756
40.32270044
43.50025383
44.21774878
43.59579629
45.96089938
44.41755755
42.93085555
42.68528572
40.57840377
39.64316159
40.07369546
38.88230412
38.3893064
38.56300992
37.77720383
37.521723
36.89913038
37.49257077
37.32938599
37.73223718
38.63771982
38.33852529
39.02532767
40.62196375
40.09275333
40.9868712
41.85925018
41.60212824
46.10757709
47.40906793
47.16026168
50.83032802
47.84097479
46.5910121
44.71392586
41.83207076
40.89944251
41.14772791
39.55749428
39.05184099
39.14105175
38.13263798
37.8658432
37.03068131
37.70684437
37.5467302
37.97827524
38.99735352
38.73168281
39.43054962
41.1951462
40.7762
41.7127805
42.69016271
42.50290313
47.28528922
48.97378766
48.8535139
53.57053813
50.26019943
49.4897745
46.27198881
42.90394035
42.1258621
42.08481778
40.17140707
39.72149984
39.67058667
38.46694291
38.21695596
37.16405319
37.90985513
37.75844893
38.20706331
39.31603201
39.08013654
39.78517983
41.68673663
41.32111163
42.30117989
43.35767769
43.18679716
47.81092941
48.63346796
48.80063371
54.8059853
51.63454762
51.25028954
47.31925467