/*--------------------------------*- C++ -*----------------------------------*\
| =========                 |                                                 |
| \\      /  F ield         | OpenFOAM: The Open Source CFD Toolbox           |
|  \\    /   O peration     | Version:  v1912                                 |
|   \\  /    A nd           | Website:  www.openfoam.com                      |
|    \\/     M anipulation  |                                                 |
\*---------------------------------------------------------------------------*/
FoamFile
{
    version     2.0;
    format      ascii;
    class       volScalarField;
    location    "0.1";
    object      omega;
}
// * * * * * * * * * * * * * * * * * * * * * * * * * * * * * * * * * * * * * //

dimensions      [0 0 -1 0 0 0 0];


internalField   nonuniform List<scalar> 
12556
(
31.93092655
31.93178354
31.93272787
31.93357008
31.96670335
31.9674581
31.96825295
31.9698565
31.97305426
31.97840496
31.98595177
31.99385768
31.99874713
31.99776914
31.99269973
31.98490451
31.97800864
31.97249229
31.96993388
31.96803105
31.9343265
31.93304999
31.93194823
31.93094425
31.79455911
31.79717338
31.7997976
31.80218477
31.83607725
31.83888473
31.84329089
31.86565396
31.88015812
31.9048
31.93947157
31.97706987
32.00271122
32.00291038
31.97908616
31.94263862
31.90930267
31.88445715
31.85318582
31.84318909
31.80542147
31.80140813
31.79804061
31.79507197
31.65990744
31.66442031
31.66908872
31.67297516
31.70771687
31.71371944
31.72404602
31.7555115
31.78991176
31.84621641
31.9239836
32.00913693
32.05589359
32.06059228
32.00698393
31.93114299
31.85669599
31.80043667
31.74646723
31.72447503
31.68022075
31.67300342
31.66705238
31.6620707
31.52673868
31.53283157
31.53901164
31.5447554
31.58159843
31.59300419
31.61450264
31.66427398
31.73391208
31.84911521
32.01286001
32.19109205
32.29452222
32.28649711
32.1590002
32.00345115
31.85728451
31.74847678
31.65889306
31.61682839
31.56016984
31.54811228
31.53889611
31.5316625
31.39571766
31.40350642
31.41175746
31.42000742
31.45953972
31.47913451
31.51964033
31.59832849
31.73237913
31.97530997
32.34462522
32.79798456
33.07707263
33.03050577
32.65256508
32.27221825
31.96171348
31.74938327
31.59973775
31.52376315
31.44646078
31.42670743
31.41330763
31.4034291
31.26586141
31.27518032
31.28539191
31.29704583
31.34236523
31.37492241
31.4449376
31.56478522
31.81335113
32.3106895
33.24407305
34.86229027
36.14448223
35.60729911
34.0518355
32.96244017
32.25381786
31.82929634
31.57177867
31.44832094
31.34045353
31.30821254
31.28913652
31.2761629
31.13877187
31.14995314
31.16299344
31.17921752
31.23096918
31.28108737
31.38926102
31.5726616
32.00267626
32.97077357
35.39226032
43.2092888
51.12515022
47.23156022
37.81454848
34.44191645
32.835259
32.02691764
31.58314966
31.39175994
31.24138622
31.19302272
31.1663936
31.14968715
31.01341601
31.02647171
31.04260598
31.06483258
31.12720366
31.19892528
31.35245155
31.62082581
32.28753795
33.93050514
39.03376677
64.36512774
83.52241499
46.3789722
37.06035706
33.77104234
32.35187192
31.63598052
31.35069722
31.15044066
31.08141755
31.04518736
31.02421506
30.8930874
30.90856796
30.92902166
30.95979426
31.03086785
31.12867077
31.33414325
31.70290013
32.62440965
34.91350567
42.11633786
80.11100178
165.443606
58.67535456
40.60114878
34.99196601
32.77582921
31.72576712
31.32383649
31.06701092
30.97491643
30.92726631
30.90138298
30.77686175
30.7947464
30.81958515
30.85932563
30.94253577
31.06923083
31.33074144
31.80199407
32.94898071
35.69458284
43.78496978
85.35762227
205.9551674
69.15910757
44.12859369
36.25830298
33.22439848
31.83510619
31.30877679
30.99209682
30.87515424
30.81487918
30.78356213
30.66817183
30.68919249
30.71967312
30.77046494
30.86279078
31.01872851
31.33580862
31.9067172
33.23786541
36.28032446
44.86518023
93.97735747
203.6263006
74.98629312
46.75604907
37.31381806
33.63878395
31.94196291
31.30150299
30.92460378
30.78383051
30.71058336
30.67333679
30.56489061
30.58841328
30.62369234
30.68483296
30.79019739
30.97480627
31.34707563
32.0065218
33.48305513
36.7402171
45.84423045
105.144783
186.4773329
76.8182133
48.19855965
38.01412153
33.95030167
32.02777252
31.2949598
30.8646314
30.70051764
30.61484236
30.57155364
30.4692149
30.4959815
30.53783928
30.61021473
30.72273983
30.93335209
31.35238111
32.09216865
33.67850205
37.10931127
47.00246355
113.9033983
878.9826182
158.7370832
76.1133566
48.61586035
38.31550843
34.13270971
32.07993762
31.28255554
30.8074992
30.62452079
30.52689213
30.47789024
30.37717815
30.40673834
30.45435661
30.53581552
30.66503747
30.90934104
31.38387378
32.19199697
33.88742782
37.53609399
48.69458702
156.7583253
538.3177386
147.5193853
74.30105662
48.2103737
38.29692769
34.20072085
32.09745163
31.25967854
30.7496538
30.55262348
30.44456842
30.39014894
30.2903493
30.32269738
30.37537925
30.4643578
30.60312707
30.87022662
31.38398663
32.26705401
34.07561535
37.88794754
50.07064257
362.3205262
384.3845946
136.5015555
70.9902242
47.25710467
38.04508299
34.17292352
32.07786548
31.22318116
30.6905919
30.48253026
30.36537129
30.30686554
30.20346695
30.23834709
30.29543878
30.39161682
30.54005692
30.82509588
31.37267593
32.34476704
34.34908105
38.55755991
53.50226681
592.7596203
325.7681266
123.702667
66.67475301
45.89435048
37.66472676
34.06351298
32.02246221
31.17092838
30.62448141
30.40905528
30.28562376
30.2231517
30.11847153
30.15583775
30.21647572
30.31778687
30.47348356
30.77198341
31.34600326
32.39612922
34.71387797
39.88944174
63.9776878
916.6646555
250.584456
107.8100431
61.6390628
44.42011985
37.29788783
33.91379315
31.93813722
31.10472856
30.55222887
30.33246008
30.20348735
30.13835781
30.02905804
30.06854011
30.13226372
30.2386624
30.40183868
30.70961243
31.30334732
32.38968297
35.01373487
41.95064447
98.30498764
818.5317778
192.4577204
93.21403006
57.36811838
43.31404027
36.95853117
33.73817206
31.83264163
31.02104554
30.46827794
30.24629494
30.11497148
30.04761803
29.93980934
29.98126497
30.04743473
30.15679294
30.32419661
30.63787891
31.24542493
32.35711967
35.08463068
43.83014856
151.9305112
645.1109101
161.2554724
84.55313072
55.14733062
42.62485162
36.61896296
33.54566448
31.71156152
30.92423945
30.37616171
30.15440127
30.02191872
29.95358753
29.84416082
29.88704801
29.95533795
30.06802835
30.24044009
30.5574051
31.17394276
32.30402324
35.12076881
45.15038598
167.5392617
542.9401262
149.8841436
81.60646713
53.88279457
42.00868377
36.29070592
33.34552272
31.57965513
30.81635057
30.27426241
30.05364457
29.92112134
29.85255385
29.74969436
29.79371005
29.86341311
29.97707716
30.15068669
30.46907081
31.09085731
32.23422854
35.14347241
46.82196874
175.9428458
471.2718488
142.1345848
79.21774197
52.86577072
41.46235887
35.97908366
33.14376412
31.44031196
30.69952113
30.1666139
29.9488888
29.81723593
29.74890648
29.64740503
29.69191752
29.76277593
29.87844192
30.05546772
30.3739
30.99822933
32.15116631
35.16331913
48.8378973
180.4518841
414.1579808
135.6994903
77.16662114
52.04089891
40.98668719
35.68709876
32.9443083
31.29613209
30.57582316
30.05033419
29.83503279
29.70466082
29.63707047
29.54793371
29.59264464
29.66396303
29.77915553
29.95515996
30.27291008
30.89797033
32.05832215
35.19918635
50.80579806
181.8187321
368.8072667
130.2588202
75.38430657
51.34765458
40.57853118
35.41698123
32.74991063
31.1493849
30.44703828
29.93100384
29.71941782
29.59083049
29.52422287
29.43856345
29.48296927
29.55475951
29.67148546
29.85058948
30.16709368
30.79179146
31.95957761
35.28028395
52.43591165
180.845757
332.6152947
125.5843991
73.82013232
50.74551778
40.22740267
35.16939095
32.56237845
31.00186985
30.31472754
29.80450153
29.5952783
29.46846575
29.40312007
29.33557447
29.3795211
29.45108288
29.56627218
29.74229828
30.05745419
30.68137986
31.85929872
35.42431679
53.69673283
178.126845
303.459312
121.5043493
72.43264217
50.2111707
39.92064251
34.94300055
32.38263739
30.85489905
30.18019347
29.67955221
29.4745834
29.34995003
29.28591339
29.22108766
29.2642345
29.33571608
29.45209997
29.6314428
29.9449644
30.56826919
31.7617544
35.61849777
54.63748303
174.2055031
279.6150783
117.8915937
71.18929723
49.73057524
39.64777436
34.73520696
32.21079617
30.70934146
30.04467357
29.54835318
29.34546844
29.22269552
29.16006552
29.11873354
29.16104767
29.23164538
29.34508359
29.51849852
29.83049539
30.45374247
31.67055959
35.83297392
55.30586496
169.4524121
259.8386491
114.6587379
70.06669024
49.29463942
39.40143526
34.54325155
32.04648244
30.56574776
29.90902783
29.42300958
29.22471034
29.10411813
29.04280452
29.00134917
29.0425893
29.1125951
29.22687905
29.40466207
29.71475061
30.33884792
31.58804886
36.04138032
55.74258042
164.1689626
243.3038947
111.744501
69.04687513
48.89664537
39.17661662
34.36477829
31.88912078
30.42441907
29.77393909
29.28836153
29.09086389
28.97181374
28.91183261
28.90172935
28.94199655
29.01079983
29.12120101
29.28983433
29.59832217
30.22451395
31.51492826
36.22822987
55.9861329
158.6099843
229.31989
109.0990052
68.1146622
48.53112608
38.9698447
34.19797481
31.73817374
30.28551545
29.63953292
29.16429148
28.97103949
28.85382707
28.79501828
28.77993939
28.81904903
28.88711152
28.99877502
29.17513867
29.48171028
30.11156844
31.45049336
36.38684731
56.07359477
152.9812642
217.331147
106.6766977
67.25656062
48.19342054
38.77852617
34.04141935
31.59316075
30.14908045
29.5061582
29.0252034
28.83113368
28.715102
28.65749805
28.68330002
28.72151745
28.78861463
28.8965274
29.05979388
29.36531597
30.00072711
31.39322308
36.51534657
56.03270042
147.4020102
206.9242734
104.4401795
66.46131207
47.87973585
38.60068029
33.8939898
31.45367297
30.01516881
29.37379784
28.90630189
28.71664395
28.60221734
28.54562531
28.55487042
28.59193113
28.65822233
28.76782247
28.94526395
29.24949404
29.89256946
31.34138878
36.61449287
55.887832
141.9560486
197.7938693
102.3614463
65.72025716
47.58720508
38.43482008
33.75480042
31.31936571
29.88392583
29.24328189
28.76322608
28.57229475
28.45908662
28.40361639
28.46532658
28.50162738
28.56721469
28.67354408
28.83034952
29.13465166
29.78755817
31.29334156
36.68643628
55.66110171
136.7152273
189.6989812
100.4193331
65.02684127
47.31362015
38.27972634
33.62308709
31.18992618
29.75558619
29.1146484
28.65632468
28.46995457
28.35813571
28.30349803
28.3292645
28.36432918
28.42866386
28.5354349
28.71774464
29.02144192
29.68612232
31.24758651
36.73333358
55.36918316
131.7110365
182.4669273
98.59982883
64.37591525
47.05685069
38.13415493
33.49811035
31.06507789
29.63055221
28.98915395
28.50578281
28.31897079
28.20852478
28.15493
28.25461933
28.28899863
28.35252358
28.45740286
28.60593024
28.91088671
29.58904152
31.20282867
36.75685439
55.02310488
126.9505895
175.9690085
96.89289921
63.76205416
46.81413594
37.99656712
33.37903248
30.94444791
29.50979384
28.8668692
28.41855158
28.23334921
28.12352776
28.0704246
28.08322821
28.11608008
28.17779445
28.28158119
28.50041781
28.80498591
29.49848158
31.15841998
36.75940601
54.63855884
122.4726334
170.0839908
95.29194194
63.18264987
46.58370274
37.86581978
33.26535017
30.82793113
29.39587378
28.75139707
28.2238822
28.03765358
27.92882174
27.87667863
79.3778991
197.5312476
95.27854791
84.6533558
250.4225825
205.149252
92.6271765
243.1697533
252.2400112
103.9301836
216.4283976
239.7513872
112.8719161
1084.907803
918.1351852
193.0711821
212.8147831
138.383676
662.4203295
1060.577623
562.4535757
187.2810116
190.8404464
60.70725119
50.46606072
86.73334738
46.66492764
664.487237
215.2108
156.1160506
64.92077392
51.49458601
43.4667655
72.35021346
68.81212339
2279.240169
1628.154341
203.6469674
80.44187063
69.35870932
44.64957458
77.1623398
72.83273662
87.90797479
249.2530312
228.0788801
1210.432964
1723.496636
205.3094568
88.68741496
83.23565269
45.66532569
84.95196097
77.97677658
98.08919891
344.7786626
281.176647
645.277812
877.911939
46.80021118
94.99678089
85.90184081
106.7947324
509.2630399
414.0672601
2644.734701
408.9749451
477.6899853
48.46161319
114.573195
96.49426714
121.5658358
1064.484868
714.3962514
148.4662544
498.9756496
652.4278279
204.5215726
234.1712579
124.1595863
198.1965879
1585.826775
703.1224328
154.1221926
556.2585832
1092.806131
225.5235704
208.4868333
82.51085923
270.9988105
280.3245648
239.2953855
268.5104219
1746.995719
2278.634312
230.7690287
1560.275817
1319.487862
1129.154253
1557.348717
227.9156436
278.2425053
252.7866067
88.94400631
320.2029776
360.2690871
282.2412861
317.1424831
921.426726
1181.634691
249.9612383
878.2156198
677.3591749
1302.912263
914.2924686
251.7052914
410.0544463
347.8926626
99.43188907
421.6631325
516.7777071
362.9010095
417.9636161
492.5742417
619.4890723
704.2985299
518.2760473
107.0499089
3591.644525
696.463759
1039.194954
521.562628
681.2195
3999.047721
373.4889354
401.9616404
2335.589198
8581.227292
1072.379133
122.8601711
763.0530268
1660.77232
7952.947975
1047.261224
1635.911462
784.7347666
41.51595851
68.09663075
56.7760405
73.49062725
160.9850369
107.3905406
4235.146527
738.1588551
82.12184562
206.2599794
185.4617215
6528.826253
189.1348471
90.9091541
89.74199694
6188.492635
925.5239359
1033.462828
690.5306693
329.3483156
360.2439402
183.0370785
164.8078096
75.46747087
1479.29693
304.6948006
685.002344
177.3385595
490.3131638
141.813998
1055.635006
1365.827685
226.1264013
509.9484931
432.3370539
653.2502595
524.675275
229.8760793
1574.90675
4812.814087
932.6916964
86.20893013
68.13298056
112.0446385
185.4183322
82.29481592
88.46999135
6078.18727
460.5330217
4206.635463
537.5519868
3045.493563
413.1979011
1859.224909
1834.926281
1419.673492
1455.510554
2683.634431
5558.333167
732.2380051
3277.632042
1741.253733
6302.713808
3789.003855
766.2763715
448.0176269
181.0050269
188.1476757
774.858587
881.3541248
5638.744779
766.7747842
229.2474159
241.572246
214.3836104
224.5837258
764.0343812
1358.198193
1481.587445
218.2727031
964.106798
804.8516566
1411.53842
963.6593614
221.9345404
162.9276147
510.0652151
242.6730004
720.3915686
543.2268582
175.0151495
714.5556452
1011.832098
1113.403997
1052.935072
269.5599372
1505.518147
269.8089488
253.9189998
1473.073235
1428.975603
1501.923065
1477.944947
257.7995008
1875.237102
1897.722409
1419.59994
462.4290595
452.2736462
462.8011089
464.1713847
1406.876891
1325.250575
413.0198918
378.4294727
446.4319271
423.3347511
1348.493284
338.5129298
341.1080017
296.8765845
299.0101942
985.3860305
6530.358854
1005.262625
449.8358686
456.2591572
389.9152608
393.685949
1640.687088
1182.398675
555.9513552
1452.032762
2476.99289
567.3298119
201.6721511
210.8948535
190.7441073
198.8197993
559.1740324
1750.438477
738.6827056
750.5046017
556.114104
560.4372458
6324.67169
1292.31627
661.1982516
742.8592959
246.8283934
256.4094541
1303.055247
2632.895304
2232.653319
3270.500546
1079.095579
6900.713861
3513.990002
5984.020201
1075.161386
884.0748841
4433.35747
2701.923465
4940.396576
2508.759497
3341.118572
49.55732396
115.4278136
116.812563
167.3038467
4258.656938
8010.816083
401.7516173
171.1199647
183.2707671
1420.376202
3772.679235
4988.111706
574.2304483
635.0868697
1208.986364
300.6911602
319.3305049
671.463469
179.9487922
131.8322025
273.5683286
578.0609986
163.7394917
193.9725217
2151.196345
5439.906894
5572.53886
1733.018122
1302.134848
3772.741882
2696.879769
6406.167813
6246.01543
1636.208898
319.8148797
152.94645
157.3078784
147.6182577
151.566992
314.2294682
172.7075062
178.9057464
443.6734064
984.9911263
405.9307474
423.2593351
6737.823608
3511.795316
606.8636395
1377.675866
5035.817258
5442.074197
751.9957929
302.5949407
252.4747686
364.0323421
319.7566065
788.3685486
1805.281635
6368.473228
6420.872103
2154.846676
266.6116488
142.7729838
146.3711816
709.0464608
697.1587355
351.752348
2537.363873
2311.554591
1105.290333
785.4025104
405.8572871
423.9427786
1145.946912
450.6616816
460.6282255
430.3251577
445.7632668
1121.366739
374.9312535
165.3631255
170.811042
158.8304939
163.6506789
370.7971812
432.8146297
1001.463193
992.7910459
1560.674164
1516.759225
496.9968174
373.255746
743.6787042
711.016823
989.0767264
983.2890864
407.4022246
537.0368646
1136.364518
915.4797644
6393.117182
2664.92774
718.247644
882.9107953
535.8716905
1591.561012
1567.677027
1595.381108
601.4110478
5465.513218
8655.582182
320.1997793
357.8198737
429.624423
444.8915498
1077.488798
2493.722108
1532.492938
703.9116912
1674.351549
8461.81889
2288.793982
2104.018335
15890.86541
1056.116183
1559.261697
2556.328967
3141.272181
2322.132087
6499.819926
6606.958332
1656.961107
2210.173363
6374.030334
1518.915061
1456.111962
469.260782
1807.573245
740.9616927
1765.538188
514.722906
4980.818295
3657.522128
1198.594279
5669.109136
6480.08685
5030.533833
3790.367416
1306.747642
5167.868048
6263.464779
3750.90974
4939.698565
6634.60292
2609.935588
3412.260837
1878.027538
2355.020448
5960.565163
6376.401574
1708.008906
1027.979133
2841.431319
1888.718742
920.9945002
565.8162205
1709.619227
5794.820184
7462.551429
2045.237478
1757.359686
5639.41162
5799.695765
4182.069237
3895.560248
1336.144817
6459.349133
6364.571765
4792.598024
6271.111611
6328.637203
1588.742455
6361.395488
4299.617215
3888.834758
4344.555815
2422.340433
1110.910732
1205.589993
4912.737238
1420.851988
1618.546605
1243.967606
1361.598016
4640.801681
4326.002901
1267.491227
1515.922028
380.7143147
400.0338544
898.7875237
738.6488578
362.2225237
375.9310791
1455.92402
1464.75545
959.663717
371.5518534
390.3741206
347.8588813
365.99465
953.93996
1004.731684
432.6324555
466.7211264
396.959798
422.5319597
1012.336011
659.4096277
321.7406412
342.3713445
937.9290205
968.0449599
3637.97405
3763.982035
1305.696123
5267.547285
5452.062343
6835.090548
3803.557666
3173.942624
5345.799265
3750.051804
879.7865236
2611.616486
3491.153535
1537.122886
558.5941242
620.889643
536.1151323
548.3803245
1505.797267
666.5293873
675.2144346
641.0795956
663.4125008
1459.817911
493.168691
504.2582371
474.5159694
489.2534749
1453.349047
1491.457509
521.9406832
532.145403
507.8695419
518.4685283
1490.558343
6239.738366
6324.99524
1824.071991
2063.447394
6548.575495
6213.268041
962.8692775
966.1597919
940.0904309
961.8685196
976.2795
987.1851057
967.5015404
974.0736383
688.9885548
697.7336538
677.9187857
686.0518508
734.9537551
899.3124214
702.0863928
713.2924527
2145.546067
2537.6999
1690.764207
1989.501762
6806.677439
4077.41935
4492.732146
2724.776462
3924.608425
1013.497183
1006.781496
436.8535018
1591.586539
1595.799577
1561.811472
1582.932421
1638.582349
486.5141067
1482.224447
1064.396051
956.144949
763.504686
377.1203631
1032.484548
1472.828514
987.6982505
1042.080063
1529.356367
1550.977803
1491.582197
1520.177171
403.9753633
981.6057651
973.3189655
6549.166882
1740.972992
6504.239504
5669.545542
6482.264685
1872.836046
6603.74417
2372.24818
6333.064678
5546.653563
724.5045721
801.3336488
1622.894051
1596.580138
540.3680582
586.1610574
1683.562925
1625.25999
6280.820771
1115.001891
455.7743766
495.299893
6388.617601
7217.844212
1741.845824
7825.285093
5801.36491
2771.002713
1057.475149
6903.008934
4258.857734
7619.355348
4663.052301
1504.473899
76.86257049
47.55226862
39.19457481
6384.813965
6359.349154
174.9664035
89.74580325
90.84563329
6600.971206
1235.583373
3485.993816
2645.198811
421.1694679
349.3060502
204.0321651
468.7930992
305.097453
754.7741014
2771.767649
444.4984413
514.1559277
61.74689824
74.67220661
159.5023877
577.9384174
1200.205621
1794.684898
239.389261
133.3402183
137.0316374
128.2014412
132.09268
236.4184339
1076.27528
1206.640259
3860.454151
872.9509998
764.8157958
445.9692182
345.7027598
358.1155656
733.9308728
1957.571146
2511.858445
825.5186112
138.1946611
141.6595633
263.1688544
328.2262122
667.9646529
644.3892246
623.6929174
560.8763932
308.4333408
629.655051
328.672208
341.5689918
5096.359646
4815.551259
3275.000204
1599.619451
1579.04183
1018.068286
4470.653127
6232.893932
5661.170131
1708.780523
945.1028221
1048.78099
1663.718578
1051.740338
1631.00924
1618.902669
1634.667897
4578.016642
6328.253634
4334.736495
4723.993054
6131.049575
2012.696563
1599.676092
939.850955
1493.175947
234.7693597
183.4656873
346.5550373
1156.496546
3180.204064
2240.439636
6406.883448
6742.239559
6881.874072
5749.567486
6572.262
117.2598488
154.4836719
441.3131174
4913.460753
3155.399698
2406.925389
6614.667825
5076.342288
2959.916627
4990.822483
4609.611738
6834.836853
6492.208485
4961.168272
1004.492306
1085.154068
2216.218465
6458.655631
3766.345943
4161.469953
5024.572
3381.938281
3830.252904
1405.217101
1831.308362
1478.059489
962.7809723
673.4435134
680.5318244
1378.125736
884.4944849
924.6690245
685.8070761
694.4963169
972.6519861
287.2187218
315.3558975
634.5391079
795.7201156
1380.675844
1027.143009
1502.359765
1553.254325
1019.724829
1818.245632
1350.720989
1398.184785
973.3560075
974.3552267
1508.189655
1482.540752
1492.772182
1426.922728
1445.016427
1467.218333
947.9496632
949.8888813
939.6999566
943.1464486
1438.925811
1498.531189
966.819928
969.0733002
952.1485441
954.5446364
1482.308061
680.9770037
671.51059
330.8366653
349.1415887
693.9232073
684.0350779
533.4925059
523.3668205
290.4021044
1516.398003
1517.765805
1495.912154
1498.993662
1841.291298
1522.871332
1523.370349
305.9467007
550.4407482
537.6365032
6548.177438
6485.224547
4348.076988
4592.780201
6488.704555
6560.434615
6782.817343
1081.699336
2220.380598
1839.728116
313.6392375
324.5971669
603.2508282
542.9560046
301.799998
310.5644721
1046.679806
1046.782705
735.8111849
752.690185
1053.43465
1057.626295
6288.215722
1377.425966
909.9545279
898.182453
11571.19415
2150.156969
2608.62388
5281.459153
4504.139198
1692.530335
1673.311182
1066.18711
6682.436237
7254.216259
6945.265662
5542.855963
1129.119607
1734.155481
1682.494778
3529.417951
1391.929378
1692.791881
6267.117124
6194.206935
5055.49976
4742.207597
3040.213263
1566.276302
2369.390395
2131.699981
4246.044395
6358.041779
5576.392325
6443.031973
6197.925232
4689.563906
275.8278896
397.7593164
1495.781269
5598.635119
5472.995284
5742.468704
5702.905474
5513.120463
3610.435025
3597.111996
3615.019332
3610.250388
5504.192962
6429.647237
3599.702761
3634.859936
3435.848831
3546.231927
6528.867527
5219.052795
3313.593541
2994.572414
3576.324996
3495.753359
5334.617075
6344.374161
3724.065071
3758.046257
3672.976182
3694.95539
6391.06551
5889.207512
5776.666449
5978.589618
5736.645222
1000.020898
709.6851449
712.8418936
1547.98694
1003.097183
1006.32157
978.8795379
997.5289473
1537.237533
6122.851157
6321.380152
5632.439992
6198.901445
1602.208219
1614.497895
1576.230768
1589.69147
2021.459667
967.750995
1537.195735
1479.42933
1582.612248
1010.743151
1013.630035
1007.586546
1009.498226
1576.427728
1517.672533
1556.232564
1079.622485
1461.00005
1999.686264
6536.625607
6179.226072
4949.116054
6359.781009
816.8347263
1128.596615
13097.54839
1079.920583
752.4108736
754.8321353
1679.395687
8150.740481
8457.009649
9904.999741
6271.767778
6042.129258
1645.446352
1634.932537
1052.209149
1603.249181
3667.025206
5585.990139
3831.683613
4797.262118
3739.039399
1577.426386
5059.309146
3717.963548
6557.022933
6814.888554
6337.157766
5058.335602
5654.632404
1490.105092
1794.385302
1734.168116
833.4592329
1046.885233
1530.627373
1605.756836
1067.517522
1507.472514
1993.103439
6303.769301
6512.627734
6224.223376
5744.475575
6520.239891
6465.189513
6333.225981
4146.03584
5627.944719
5189.45234
6277.086515
6482.077794
4538.521888
4811.09878
5235.323588
6532.477168
5410.508843
4086.410587
4382.983338
4670.283157
3265.674645
4604.23581
2395.116477
3553.930608
4863.41984
5380.583723
4910.571862
6021.025165
3793.242519
3609.456879
5195.700967
3736.961608
5591.451702
5670.142839
3620.301791
3618.233135
3636.640878
3614.533977
5710.734982
4071.959588
2364.002442
2410.509924
6392.370238
6388.109269
5546.728004
6701.90583
6491.591982
6408.672055
6417.259146
6662.629459
5398.826382
2853.129094
3194.474028
2479.055034
2609.687653
4642.789683
6501.786623
5558.39069
3393.21905
6807.367278
6522.560828
6502.696893
4547.300947
6512.833776
6297.942524
2871.47517
3261.618218
5624.99058
1439.351915
1475.782024
739.2132206
813.3821468
1334.992109
969.713584
697.6017397
719.7865443
1482.553444
1455.105639
891.6411426
1552.48981
1891.354042
967.9956421
1513.539879
1507.351941
3631.879835
2448.471482
2413.18259
2688.024318
2601.834278
3819.126703
5658.266971
5338.650143
3565.14284
5384.556536
5580.229342
5089.942225
5318.596511
3508.419665
5230.145271
5190.764462
6680.298712
4947.666556
1023.619587
1015.626693
1468.004617
1512.754522
982.5864363
978.6532468
1469.463655
1477.70715
1454.580386
1463.239715
945.974018
947.2252501
1466.098432
1446.494509
944.1597666
944.9359737
961.285018
963.5000674
1494.266955
1487.390975
957.1714714
959.340026
6294.200019
3847.590526
3878.724701
3781.895652
3810.691006
6278.116514
6248.321572
4300.050376
4993.179349
3936.005932
4042.997323
6236.057146
964.0557049
1491.85641
1483.709824
1503.473046
1498.030819
964.9910161
955.7096557
1455.42161
1439.650272
1475.980661
1466.731502
960.1106183
980.2160234
1538.593452
1530.784564
1550.082358
1542.403588
982.0852356
969.2018315
1513.95067
1509.234882
1526.198371
1519.174131
971.0984879
1509.611567
1512.040152
691.7723364
968.566073
967.1025351
972.4588384
971.2946081
695.1209668
1503.283685
1506.043301
1558.495616
1483.555269
754.2425971
1018.411926
1027.534665
1408.388101
1360.377597
826.479383
703.8884668
976.9397359
976.5927084
981.8580463
985.668556
712.2382272
1530.9215
1524.426656
6448.169874
6315.190031
6598.006507
4885.0661
5608.70139
4221.788719
6459.883572
6531.609753
6461.31459
6471.33463
4316.484189
3057.324275
5615.712135
4841.382228
6322.449791
6459.118396
3562.487839
1017.519799
730.150261
731.5834776
718.3016222
720.4460919
1007.088619
1591.971114
1603.759137
1566.558386
1580.569675
1552.123534
1950.946512
1424.692093
852.9358005
933.3850008
755.4137401
776.1085156
1054.3249
1387.681335
1889.545806
1512.379059
1439.974458
997.6227686
1561.32925
1550.494971
1593.079504
1554.583743
993.8512874
1535.661346
1545.302293
1502.548572
1512.588407
6266.506647
4402.658696
4646.935295
3460.342684
4002.320268
6357.139646
6486.992576
6302.20138
4992.838643
5585.866046
6788.960754
6156.054034
4824.194998
5057.995205
4009.929096
4423.005247
6332.674145
1642.776331
1643.851967
1627.65526
1630.861493
1095.145278
1106.111082
779.2826196
1698.819756
1609.196866
1659.54195
1651.01558
1610.414828
1021.091797
1027.73346
1015.186509
1019.64072
1607.029352
1641.022903
1039.010719
1090.642082
1028.965789
1041.807132
1644.227804
6098.096612
778.7328417
782.6310947
1116.497608
6259.010212
8890.029093
9177.933412
8973.989149
8851.564594
6860.623582
1692.411653
6863.487635
5087.491103
5462.17176
1064.47699
1666.191775
1652.451765
6851.759824
7469.506987
7240.956068
5984.074182
6500.948597
7935.649131
7548.245595
5025.054512
7140.41407
6233.726447
2047.486353
1653.617404
1118.576287
31.78168044
31.80158654
31.87522034
31.80975804
31.84395439
31.89674564
31.856504
31.90378034
31.92915133
31.92123448
31.97478599
31.96591324
31.98995906
32.02738042
31.99712146
32.03260473
32.03992682
32.00549214
32.03482588
32.00643569
31.98943831
31.99357414
31.94417369
31.95310592
31.92873437
31.87970177
31.91797062
31.86619881
31.82830426
31.89028441
31.68502103
31.72625154
31.77977325
31.74393433
31.81314807
31.83069308
31.84086181
31.9393974
31.90435635
31.97478236
32.08835482
31.98802991
32.11456015
32.1950045
32.04875388
32.20795664
32.2127763
32.06238482
32.19081251
32.13313838
32.02281322
32.10455728
32.00426305
31.94919222
31.97194031
31.87855017
31.87230254
31.85108691
31.77761308
31.81169004
31.61267444
31.69039368
31.71324623
31.72715171
31.86757006
31.81645456
31.92716607
32.14466212
31.96940807
32.22497477
32.49598717
32.14028683
32.54625995
32.76679004
32.27918125
32.81225965
32.80062312
32.28549055
32.71711883
32.56100868
32.19478176
32.48566941
32.24976064
32.0422803
32.17570526
31.97754741
31.8910815
31.92080016
31.78056248
31.77061313
31.5696312
31.71458747
31.69055036
31.78303555
32.07043045
31.90217569
32.19981227
32.7184117
32.24125101
32.9352102
33.80093769
32.65203327
34.00863989
34.79795655
33.0409905
34.95393275
34.85118902
33.03017362
34.47884345
33.83122967
32.74816515
33.57595856
32.916232
32.36400052
32.7274335
32.27559759
32.03012738
32.15546219
31.87669935
31.7940517
31.56681332
31.82157135
31.73353471
31.94611711
32.50289904
32.15412135
32.7722161
34.03914304
32.95442743
34.68523166
38.19483555
34.30013913
39.6947193
47.06597628
35.95236866
47.44938862
44.29609598
35.74255811
41.59138578
37.55612457
34.37808884
36.53663085
34.45236851
33.19583388
33.96244962
32.90883865
32.3996076
32.65458261
32.10009916
31.91758297
31.60577743
32.00986629
31.86119044
32.21143431
33.17073394
32.64847699
33.67640968
36.39312628
34.53759822
38.0748605
54.21830711
39.93070808
48.73824743
56.52738889
45.4109731
72.91220305
69.19322178
51.14485131
54.66982795
47.36423561
43.88729288
43.72143765
37.46672905
35.05034693
36.28185832
33.99299
33.14103961
33.49770183
32.48491593
32.1804641
31.67905863
32.25155628
32.06474715
32.53935549
33.9351068
33.3586734
34.68820237
38.8624194
37.06881695
39.96543649
43.23087624
41.99613875
67.83162245
78.35531594
73.47061162
115.2658351
78.59062661
64.3799262
55.56707855
41.96669491
38.487598
39.66722168
35.51277276
34.34890916
34.67068123
33.01460563
32.60556066
31.77670966
32.50784457
32.31660809
32.87084821
34.60288327
34.11241435
35.52140442
40.46196998
39.33900439
42.642923
46.74616361
46.08518991
80.9013124
96.61549247
95.40371435
187.06764
111.3865928
99.68328681
66.96032797
46.72095185
43.19595058
43.29151371
37.16180907
35.93302387
35.95041104
33.60617313
33.16049063
31.88162484
32.74858685
32.569755
33.17049227
35.13339152
34.74687497
36.15021978
41.46992387
40.74513725
44.10606798
48.57212835
48.16369854
86.12522295
114.1826739
111.0207826
208.2574584
128.4419888
124.0549734
73.96304868
50.36416609
47.78198374
46.18324467
38.58868689
37.56787373
37.07463428
34.15002021
33.74200309
31.98445707
32.96113166
32.80376912
33.42749866
35.55387567
35.24534782
36.63864297
42.25799207
41.66586648
45.15583986
50.00814476
49.58405419
95.36354619
130.2483087
127.3638959
198.1549486
130.681729
131.0438022
76.63976569
52.4443529