/*--------------------------------*- C++ -*----------------------------------*\
| =========                 |                                                 |
| \\      /  F ield         | OpenFOAM: The Open Source CFD Toolbox           |
|  \\    /   O peration     | Version:  v1912                                 |
|   \\  /    A nd           | Website:  www.openfoam.com                      |
|    \\/     M anipulation  |                                                 |
\*---------------------------------------------------------------------------*/
FoamFile
{
    version     2.0;
    format      ascii;
    class       volScalarField;
    location    "0.1";
    object      p;
}
// * * * * * * * * * * * * * * * * * * * * * * * * * * * * * * * * * * * * * //

dimensions      [0 2 -2 0 0 0 0];


internalField   nonuniform List<scalar> 
12556
(
1002.597675
1001.265837
998.0356872
991.4127523
982.0277734
962.1734627
929.8983215
878.771595
802.7111442
694.5389475
549.4937642
368.0024703
160.1770994
-55.50646343
-259.5414172
-435.6761489
-577.2696585
-684.9564523
-763.105025
-817.0657721
-861.6183165
-881.3712713
-892.7029739
-897.8916045
1003.438953
1002.563837
1000.243776
995.2659586
985.921474
968.9483682
940.2704032
898.7023542
829.9982374
729.1604456
589.0009408
406.7390125
193.1044066
-32.21390463
-247.462372
-433.4646447
-580.0401652
-689.6620302
-776.0898443
-826.3334406
-869.7834477
-886.8427991
-896.7296239
-901.2211027
1005.402671
1005.5374
1005.348474
1003.919524
997.3663247
986.8851343
966.9083067
930.8947563
872.8464027
780.6113258
637.546983
436.8849304
194.1809207
-59.86709335
-290.506782
-482.2056153
-628.1840346
-729.9767985
-811.6728365
-852.3952226
-888.5018026
-899.8822801
-906.5063573
-909.3728215
1007.682666
1009.247477
1012.134005
1015.5385
1014.170056
1012.96476
1006.4402
983.2661472
944.7546787
864.8115337
718.210746
487.5512711
180.5896854
-138.2867254
-400.1185973
-586.6263098
-716.8077822
-803.0766141
-866.6831094
-891.7261192
-914.9537255
-918.8965327
-920.5992473
-921.1065309
1008.803055
1012.005303
1018.444115
1027.599598
1032.60223
1043.598773
1054.303392
1052.355839
1041.370984
990.5841459
862.2030369
596.2925217
166.4769935
-290.9132302
-605.5906228
-775.8171292
-860.1466891
-905.5124819
-937.9192311
-941.2174958
-945.6446698
-940.287558
-936.0237819
-933.7430229
1007.145586
1011.986862
1021.949599
1037.23519
1049.28832
1073.805727
1104.321949
1128.151189
1159.350515
1173.188143
1123.495265
871.9476351
176.116335
-609.030376
-971.7030734
-1061.526927
-1056.137074
-1034.570858
-1019.964498
-994.9074008
-976.248758
-960.5164149
-949.7300066
-944.5073142
1001.153539
1007.430904
1020.390557
1041.032992
1061.033382
1097.637651
1147.144184
1198.285684
1279.382022
1387.050259
1528.167486
1589.084665
333.430529
-1457.432616
-1575.431444
-1433.897648
-1286.342885
-1174.90287
-1101.890862
-1045.022883
-1002.237757
-975.6038408
-958.6742174
-950.7213363
989.47537
996.7863353
1011.88062
1036.240944
1063.309581
1108.923931
1172.39822
1247.085374
1369.319765
1557.20358
1882.500274
2518.012371
-3502.430522
-2371.410257
-1821.925653
-1499.956546
-1299.650896
-1166.669542
-1082.659084
-1016.4823
-981.4455721
-959.8992468
-949.7117252
971.092603
978.8886657
994.9645312
1021.003584
1053.237789
1103.339938
1173.423967
1262.273465
1402.663943
1606.8386
1910.418968
2308.975814
-4867.123359
-2871.958799
-2063.49169
-1631.205644
-1374.13049
-1199.164145
-1097.707251
-1014.785099
-974.9206563
-950.8269697
-939.3567547
945.4650278
953.1395413
968.9155183
994.3860964
1029.471741
1078.897931
1147.768849
1237.583203
1370.202969
1548.203379
1765.74217
1976.138596
-4314.599112
-2777.063929
-2046.556719
-1626.154885
-1374.82479
-1189.316044
-1085.118565
-994.4898783
-954.3137705
-930.0481831
-918.4383908
912.6069796
919.5987217
933.8773399
956.6065968
992.3719203
1036.622181
1097.564928
1180.092336
1292.992584
1432.703157
1585.479931
1727.327075
-3164.985828
-2296.36786
-1816.272627
-1509.911081
-1305.325025
-1137.39396
-1044.497819
-955.7852503
-919.642731
-897.5152096
-886.8506742
873.0482934
878.896053
890.8138654
908.7847869
944.0879158
979.3087082
1027.484469
1096.992158
1184.382554
1285.628296
1391.156756
1513.301425
-2031.688089
-1692.435718
-1479.8775
-1314.064089
-1182.23155
-1052.0009
-980.1682658
-901.3458657
-872.7172917
-854.4463544
-845.5723218
827.7829702
832.1893566
841.3142109
854.2504807
884.9263045
910.4178913
942.9983742
997.0687687
1056.438432
1118.260336
1172.188369
1259.577591
-761.574525
-1032.839563
-1132.268342
-1133.542324
-1092.796854
-1032.945789
-946.9605865
-899.3149221
-836.6849212
-816.5745725
-803.0036849
-796.423572
778.032174
780.8896828
787.0018323
795.2123266
820.0186161
835.4336258
852.5596874
889.044045
920.824504
943.04098
937.6290684
917.801372
275.7281014
-421.5824956
-710.363513
-840.7125598
-885.3835
-878.8146641
-835.7157532
-810.6829759
-766.526919
-754.4645244
-745.810913
-741.6841351
725.1763841
726.4199906
729.1869301
732.4714824
751.7212992
756.528315
759.2908411
776.2284996
781.8818857
771.4554198
719.4261084
572.720568
262.8910663
-164.0782781
-452.7834858
-623.8296082
-709.7233918
-737.5139503
-726.8966878
-721.6851985
-694.1874248
-689.4585984
-685.5201338
-683.7062124
670.5949996
670.3664894
669.9832876
668.7191208
682.7376467
678.6665934
669.9328747
668.4095854
651.9175708
617.7515289
545.1151222
412.3215139
197.8928174
-82.56858847
-315.4753501
-476.6262743
-570.9244521
-615.8725514
-627.6078087
-636.8503892
-623.0378387
-624.36139
-624.4930182
-624.6438965
615.6170831
614.1724455
611.1849355
606.1925961
615.3141358
604.2995828
586.9273567
572.3935796
537.2411276
486.5201507
407.3322764
293.8788062
127.4058373
-65.35818542
-242.8985118
-376.9798841
-463.0628896
-515.2876246
-540.1249919
-558.7693267
-555.4196141
-561.3539998
-564.6637964
-566.2941269
561.4151248
559.0240507
554.0115859
546.1799247
551.1733244
535.1152264
511.8394561
490.1133669
443.2082503
381.9984093
302.8516146
204.8141749
75.23142049
-66.85222303
-198.2688388
-302.317194
-377.8078754
-432.0270066
-464.1112383
-488.3503266
-492.6106449
-501.7584597
-507.3849754
-510.0565728
508.9078272
505.826006
499.3353536
489.5018802
491.3286728
472.0441567
445.3916827
420.0871964
371.7438458
308.8697586
232.195959
149.4866222
44.31578123
-63.12856637
-161.246243
-245.0107496
-312.5235639
-364.5906162
-399.267806
-426.0910485
-435.2405763
-446.3650084
-453.4848521
-456.8857236
458.7717179
455.2414293
447.7893093
436.7073545
436.2802904
415.2830595
387.0306198
360.7744988
313.9057624
255.9843988
187.5988114
116.4925911
32.72236443
-52.32982292
-132.0441233
-202.5405517
-261.8208272
-309.8304013
-344.3736078
-371.5669379
-383.5011707
-395.5964323
-403.5226871
-407.3075357
411.4684412
407.7040327
399.750757
388.0598019
386.1441166
364.6032704
336.2316099
310.4660887
266.5029451
214.2393325
154.7201912
93.75653314
25.12180486
-44.49499785
-110.4446077
-170.0245275
-221.6193384
-264.8069363
-297.7790477
-323.9856664
-337.1993133
-349.5044512
-357.699269
-361.6189822
367.271421
363.445524
355.3663163
343.5894518
340.7383758
319.5369628
292.1255512
267.6029431
227.2535666
180.6695937
128.7966462
76.74411939
19.29195281
-38.59438248
-93.77835053
-144.3669394
-189.0953994
-227.4573114
-257.9472188
-282.4777622
-295.9256925
-307.9091547
-315.9898665
-319.8615649
326.2896965
322.5327683
314.6080593
303.1369873
299.7970086
279.5243088
253.8236241
230.8997214
194.4006538
153.1794144
107.9848715
63.34916271
14.79195038
-33.87886378
-80.45202495
-123.5797668
-162.2859361
-196.0855673
-223.6992006
-246.1913902
-259.1860498
-270.5064973
-278.2188548
-281.9183734
288.502254
284.9092384
277.337999
266.4452824
262.9542628
243.9901857
220.3074079
199.2983765
166.616351
130.3191468
90.98062689
52.57259782
11.29092654
-29.93327272
-69.47362349
-106.3479642
-139.8028252
-169.4102798
-194.0655806
-214.366345
-226.4783065
-236.9345604
-244.1188027
-247.5670923
253.7960768
250.4332447
243.3513909
233.2159959
229.8246539
212.3926147
190.8812817
171.9118166
142.8902359
111.0607128
76.87429711
43.76512257
8.5535727
-26.51614521
-60.2052926
-91.7809254
-120.6564698
-146.4674484
-168.2366773
-186.3372063
-197.3205854
-206.8095589
-213.3742867
-216.5256093
221.996194
218.9066252
212.4014181
203.1321095
200.015654
184.2243578
164.9235276
148.0159154
122.4395365
94.64906771
65.0143091
36.4725697
6.408906019
-23.47818896
-52.21951078
-79.25573271
-104.1250372
-126.5221231
-145.5571909
-161.5301828
-171.2629758
-179.7482069
-185.6511848
-188.4840166
192.883578
190.0922637
184.2137801
175.8678359
173.1517189
159.0338002
141.9121622
127.0243779
104.6547513
80.51744024
54.92392261
30.36690895
4.730459962
-20.72301042
-45.22051941
-68.3266118
-89.67382701
-109.0086062
-125.4957131
-139.4571512
-147.8920801
-155.3800743
-160.6124804
-163.1218768
166.2104166
163.7291669
158.5004686
151.0992115
148.870956
136.4105534
121.3956079
108.4526303
89.05087108
68.22691707
46.24415714
25.20278393
3.422452925
-18.1848768
-38.99489463
-58.66285334
-76.89412774
-93.47972471
-107.6117019
-119.6955541
-126.8322981
-133.3551215
-137.9291342
-140.1205925
141.7149052
139.5466314
134.972467
128.5133603
126.8360323
115.9887391
102.9869298
91.89808303
75.23872682
57.43290719
38.69954026
20.79344323
2.411110598
-15.81729283
-33.38438735
-50.01368501
-65.46798187
-79.57764952
-91.54023669
-101.8826369
-107.7454312
-113.3488074
-117.2885681
-119.1735164
119.1298042
117.2716421
113.3450226
107.8109827
106.7312434
97.43917618
86.35614552
77.01431137
62.89767098
47.85821269
32.07230642
16.99234457
1.638316289
-13.58528763
-28.26662092
-42.18193844
-55.13925729
-67.00170885
-76.97535826
-85.7026122
-90.32630836
-95.06137836
-98.39685487
-99.98969002
98.18470198
96.63106473
93.33860762
88.70200324
88.26838983
80.46191977
71.25252207
63.50649513
51.76229258
39.27598188
26.1867497
13.68213185
1.057862486
-11.46129705
-23.54428553
-35.00971512
-45.70125469
-55.49577989
-63.64981395
-70.87794973
-74.29499694
-78.21506782
-80.97752199
-82.2929798
78.62847799
77.37092026
74.69602426
70.92694276
71.16508505
64.77830316
57.36355848
51.14276314
41.61146249
31.49673131
20.89802328
10.76718112
0.6326262077
-9.422421889
-19.13755512
-28.3674288
-36.98777414
-44.89490603
-51.3044574
-57.15708896
-59.41013018
-62.56373114
-64.783184
-65.83661851
60.15112729
59.18759287
57.11881503
54.17704134
55.19984078
50.13529063
44.3486626
39.71627849
32.24826459
24.35550891
16.08267309
8.167197184
0.3323113856
-7.448287631
-14.97740537
-22.14179977
-28.84816836
-35.0317112
-39.74587895
-44.31460402
-45.40236208
-47.84004128
-49.53915049
-50.33871215
42.68921386
41.99894753
40.51811652
38.41167314
39.96868266
36.30356935
32.05550987
28.98912134
23.48868012
17.70542143
11.63377631
5.814150731
0.1320772359
-5.520674691
-11.00330225
-16.23172677
-21.14085243
-25.68721621
-28.81926033
-32.13587599
-32.23115093
-33.95267551
-35.15642208
-35.72587979
25.31650711
24.95422952
24.08233605
22.74924643
25.52964891
23.06464417
20.30331143
18.76926833
15.16365239
11.41017993
7.455529497
3.650880929
0.01135339703
-3.623514228
-7.160918815
-10.5455064
-13.73990837
-16.72515095
-18.33107246
-20.48898053
-19.19086621
-20.21932429
-20.92754031
-21.22040944
10.77710376
10.52909525
10.14595532
9.559970933
11.25085604
10.10934803
8.827125538
8.873443461
7.116994112
5.335043496
3.460956142
1.636967905
-0.048037057
-1.744822231
-3.401823846
-4.999547826
-6.527532154
-8.004019266
-8.072059892
-9.065897043
-8.164324081
-8.602435454
-8.926324284
-9.13887964
2360.519563
-5253.563383
-3749.264258
2011.540776
-4710.177558
-5274.023056
1755.279829
-3444.588386
-4569.713011
1540.984888
-2212.368697
-3282.369398
1279.659399
-811.8045673
-859.1333565
-1148.554844
-2068.726157
949.1531404
359.4310656
-762.4066238
219.1842518
-431.0351924
-1031.485013
2446.5347
617.5349636
-3348.767028
-1249.420414
-7341.943562
-5119.879191
-4834.623101
-3107.189229
-2573.430943
1807.641959
1987.283038
2256.515298
-6735.450005
-7319.987734
-4434.492762
-3133.537786
-3185.825149
1631.766225
1740.543675
1953.663947
1875.864203
1921.631718
2052.333282
-4802.233909
-5769.429287
-3313.11068
-2621.510103
-3040.162022
1441.604029
1525.424381
1712.907306
1647.055052
1695.159245
1783.754126
-3101.949316
-3815.061592
1229.068514
1277.078162
1497.686165
1414.30118
1483.695605
1589.333811
-1660.106342
-1645.489183
-2258.70508
996.1060489
961.8453084
1240.680275
1118.053398
1150.234694
1332.115695
645.8263856
383.7159222
375.6071712
2953.455659
2504.932185
3307.549632
3033.814824
-7351.861067
-7377.597971
-4934.512478
-7028.885325
-7168.217504
2070.684463
2208.184619
2126.074583
2216.005523
2075.351852
2460.262228
2238.842049
-5829.783187
-6689.272074
-5001.635393
-6550.691461
-5734.920872
-7140.309557
-6595.870236
-5053.196702
1797.505996
1904.213339
1844.30863
1914.341477
1799.789119
2065.716482
1923.804346
-3921.898684
-4735.872608
-3935.003023
-4624.106406
-3847.975353
-5675.844389
-4746.266918
-4098.494699
1596.326182
1689.593896
1620.92067
1694.079424
1601.759715
1792.547262
1699.435244
-2349.32899
-3004.557718
1342.158854
1476.098982
1397.722872
-1608.946915
1482.547784
1348.599313
1594.624905
1490.227262
-1652.521221
-1038.777176
-1562.730213
-1606.475706
998.2236894
1135.050455
1096.099635
-27.55034308
1141.117406
934.475673
1338.528593
1155.518843
-102.1153273
1929.07078
2298.87215
2387.867197
2542.122018
2965.503165
3152.102524
-9902.199225
-6789.727871
2167.9608
2231.766136
2453.348531
-3709.271725
-2167.210129
-1928.404632
-2454.491009
-2095.85534
-2056.016382
-2378.972834
-160.3555309
-494.7017362
-889.55307
2496.088937
2897.714064
2507.676445
2686.581455
4158.553582
3912.861877
-4824.958548
-6918.547368
-4720.495662
-2432.427093
-2782.750846
-2658.273043
-2960.179427
-2324.00417
-3745.168812
-3054.717789
-2811.114933
-1177.249665
-264.6840739
-441.9730056
886.3493662
2170.114508
3222.852045
-4568.141064
-1676.070546
494.4645444
-9961.731552
-6842.104442
-9482.010567
-6413.546153
-9340.348004
-6499.170958
-7002.814473
-7043.786563
-5255.511387
-5321.265106
-3264.806279
-3621.811513
-3399.96143
-3605.914013
-3235.84434
-4077.612063
-3662.475169
-3502.072208
1533.867836
1496.329844
1451.108727
-1665.854505
-1958.259806
-2006.503101
1245.241358
1206.231153
1132.093847
1291.570532
1228.723285
1256.426521
3075.458828
2728.075614
2728.999987
2731.656738
3088.287493
2487.0463
2691.732763
2665.676168
3321.142632
3830.225943
4018.266184
3154.798323
3743.908213
3264.538019
3808.225014
3157.870502
-7469.865996
-7480.424718
2148.173424
2241.305336
2138.426418
2348.617347
2343.987678
2468.664635
2249.74034
2330.114148
2317.69719
-6227.450021
-6282.566265
-6177.095192
-5545.939648
-5766.895342
-5203.037372
-5464.831371
-6123.566084
-6902.200621
-6045.060688
-6134.38544
-5831.946182
-6000.300419
-6863.192292
1857.416024
1849.300665
1999.381155
1989.134683
-4257.876911
-4125.352259
-4316.340127
1652.102993
1645.689777
1745.898694
1739.766596
-3178.555339
-2813.244609
-2718.448617
-2831.893966
-3199.74259
1404.229856
1366.801129
1311.067685
1435.167434
1384.637372
1414.379872
-1229.508216
1419.623026
1408.938204
1545.444442
1539.046019
-2011.592145
-1234.451022
-1285.915801
-1570.037082
1105.443252
1023.316177
929.8830071
956.7044056
478.3111991
196.6316073
1263.331713
-251.7518901
156.7553036
-165.9364537
1252.670929
-350.8827035
-201.7002593
125.143295
-8851.788796
-2266.491109
-2436.815096
769.5716395
695.5168454
921.9280824
797.6803171
808.3799931
963.9912966
273.0166381
-103.8164088
-309.5136941
4868.678391
-2470.382478
-2660.121912
-927.0642235
-1193.284044
-1183.607678
-127.015311
-385.2575874
-88.48326724
1308.202325
2786.562912
4054.329077
-6057.442416
-2289.957212
211.0186323
-6860.880624
-7894.667493
-7719.026375
-7208.832068
-4993.114801
-5193.16791
-4974.038946
-6050.576157
-5854.6769
-5582.316045
1736.201512
1707.955985
1669.943314
1760.957333
1720.933706
1742.630849
1552.923206
1510.754893
1540.496628
1193.732254
1178.04689
1135.918193
889.8474525
699.4160797
430.4093774
-7411.109349
-7987.878935
-7963.156843
-7269.402273
-6074.50551
-5847.436021
-6146.300729
-6112.820347
-7255.155741
-6005.811869
-6303.788243
-6119.608113
-6527.436351
1840.358564
1817.597761
1774.73793
1809.650761
1829.141131
1820.129272
-4906.187002
-4693.991768
-4551.418472
-4277.186767
-4019.286132
-4315.701087
-5246.022627
-4818.95589
-5109.870556
-4416.194506
-4719.095936
-5183.159619
1641.062661
1606.425697
1566.60367
1657.413424
1619.397012
1647.42298
1677.415287
1694.31474
1707.607963
1617.620754
1642.985964
1622.107328
1772.328195
1780.981936
1802.688645
1711.656971
1725.762955
1715.912229
-2625.252676
-2763.600839
-2428.715342
-1425.591086
-1443.941179
1458.423157
1368.004216
1572.645704
1583.732169
1611.126961
1533.434666
1511.581231
-1795.395179
755.9163568
995.9140283
942.2420571
1120.672403
1069.594
1076.632693
165.4874742
392.3981421
165.2517958
1083.839355
419.098737
718.5333541
517.5561368
552.9025861
1302.613117
1198.146756
-9134.51263
-8552.375202
-8724.567814
-3868.574533
-3940.058495
-2065.221933
-2215.179377
-2216.78439
2593.077974
2564.337792
4232.126783
4779.286822
4679.043426
4644.819863
4183.267954
-2857.991914
-2664.917125
-2628.570099
-2663.38792
-2874.220517
-1177.593394
-993.7626781
-1017.896291
-995.562459
-1175.134596
-764.1766903
-944.4235962
-512.2427087
-549.225156
-714.6262906
-340.3621035
-495.9049741
-411.1510157
-9737.705998
-8396.902201
-7965.237221
-8611.980068
-8486.030824
-7777.796589
-7018.382296
-8480.363195
-7411.293043
-7276.468229
-6895.102276
-7168.822309
-7654.242069
-7470.544024
-5481.858927
-5267.485387
-5058.885413
-5328.598149
-5548.203716
-5041.955748
-5262.262011
-5625.927112
-5517.763046
-5793.213195
-5561.454913
-3413.792877
-3485.0594
-3454.006817
-3371.718433
-3526.670933
-3914.718369
-3799.899806
-3966.563469
-3578.394987
-3745.132644
-3854.635106
-1872.377369
-1857.269395
-2010.549037
1228.218178
1192.0625
1203.776405
1286.795822
1272.47021
1240.283699
2907.416108
2857.748935
2862.093768
2860.270106
2736.948155
3056.946553
2905.67799
2912.659353
2565.023997
2572.510667
2496.465732
2699.719621
2601.392794
2594.985985
3388.380418
3286.741377
3113.704471
3510.952844
3412.288717
-8161.557257
-8008.808749
-7427.458369
-8210.306103
-8431.780459
-8154.102259
-8537.765704
-8663.23321
-8518.763338
-8492.394306
-7475.016119
-8238.81927
-8224.347059
2196.222288
2191.478558
2164.832606
2233.886366
2201.821395
2208.455089
2124.961152
2101.058246
2157.277099
2132.820697
2391.128095
2396.676232
2347.890639
2474.587481
2414.727531
2407.949605
2284.366381
2280.407237
2244.808137
2333.104793
2293.04925
2297.62232
-6531.005937
-6363.631208
-6062.6724
-6464.683446
-6783.290253
-6580.700913
1891.836268
1868.558223
1927.014851
1898.95704
1831.636366
1813.148933
1860.056441
1837.65515
2050.63082
2018.41587
2092.297652
2061.395934
1965.224419
1935.681979
2007.728516
1975.9226
-4245.452177
-4436.704254
-4025.730897
-4192.1624
-4280.951639
-4746.753558
-4965.422097
-4494.096453
-4682.136165
1665.309197
1687.930725
1671.391616
1694.387963
1668.542587
1711.554875
1701.295225
1662.57861
1627.725406
1646.185822
1658.847127
1756.845257
1773.921345
1765.214717
1777.739465
1760.102402
1806.067244
1784.187657
1727.75504
1714.76615
1751.421356
1732.902648
1721.662653
1731.106356
1749.892757
-2874.003135
-2993.428303
-3058.333741
-2863.098905
-3114.222032
-3041.865428
-1186.076588
-1394.944368
-1413.53
-1188.350639
1450.10724
1378.898903
1557.999349
1576.060506
1565.486713
1518.895517
1541.317254
1553.412341
-1887.733721
1050.778153
1050.888583
992.1424953
587.4052397
508.288025
1059.539728
266.0084338
404.6995179
318.3515595
1290.213643
-402.3606677
15.93617611
216.6608547
-25.42223078
1203.214501
-3172.746004
-2324.966758
-1592.743773
-2416.492043
-2474.004976
-1174.791351
-1264.783341
-1753.998233
-2477.511055
-966.4258247
-944.458836
-774.6697508
-2236.032287
-1680.04959
-1652.904835
1225.509981
3204.151674
4462.006391
-7431.167405
-3105.845553
-65.54256277
-2238.046466
-1961.368904
-4364.354494
-7130.386421
-8086.177611
-8256.04491
1976.848721
1947.844547
1896.182554
2020.279617
1965.700465
1995.79912
-1652.708482
-1805.233443
-1806.020667
-2331.126382
-2040.211519
-1990.679027
1314.121043
1283.784992
1298.499993
-8286.042497
-8259.68453
-7477.013714
1879.641299
1832.508638
1855.534011
1889.217349
1897.149376
1924.144346
1933.103451
1962.063364
1950.806043
1365.909455
1351.825181
1324.350608
-1620.042173
-1570.938092
-1561.965548
1354.451635
1364.804714
1357.658333
-1728.665809
-1737.130391
-1631.615906
-1446.504845
-1446.93075
-1601.801598
1124.606651
1328.304695
1336.149152
1345.064765
1166.534316
-9804.748257
-3748.939081
-2078.842552
-2154.518465
-2158.05063
-2419.780189
-2259.417919
-2230.375784
2649.346105
-5725.209918
-5209.057793
-6322.119113
-2579.699263
-2631.547453
-2466.226752
-757.9602548
-773.1601519
-588.6757193
-596.1302187
-699.466133
-3033.874691
-2626.060612
-5809.152662
-9673.223748
-9109.467961
-8944.542428
-9314.964452
-9391.798107
-3315.340015
-3350.094754
-3296.898182
-3636.34225
-3639.291196
-3614.017389
-3162.804545
-3316.560131
-3390.489893
-4038.22092
-3979.216845
-4038.554554
-2002.825535
-1981.804957
-2015.474274
3013.052213
3096.892337
2769.854841
2773.073606
2775.597463
2734.664494
2505.7267
2515.883668
2493.285104
2696.131669
2660.6347
2655.800439
3523.313746
3350.730372
3476.886296
3705.980441
3730.245704
3869.754002
3163.884288
3235.859926
3233.950805
2177.363071
2173.912545
2171.764023
2238.60645
2228.358206
2231.415968
2122.780685
2116.438235
2166.291469
2157.421849
2360.279433
2361.706017
2346.225834
2471.927994
2450.975102
2448.477606
2258.624299
2258.570993
2248.307576
2332.052549
2319.62825
2319.386738
1865.904569
1889.330405
1880.521068
1827.619
1835.686921
1857.886222
2013.771415
2045.013856
2027.896965
2038.091625
2026.810212
2109.054899
2098.387569
1948.155212
2015.635163
2004.562675
1960.86905
1972.333198
2003.356953
-4435.112668
-4512.919388
-4099.899281
-4172.298177
-4194.597203
-4584.596205
-4594.659449
-4489.094038
-4630.174424
-4448.243462
1389.014041
1361.620888
1375.058611
1443.285179
1425.013297
1398.718695
1424.646037
1436.710052
1430.486017
1398.692407
1403.238423
1413.419111
-2013.072404
968.491276
984.9151259
947.5560824
619.8289782
975.7487581
358.3850942
466.6000967
574.3833435
1270.571223
1277.326119
1272.215152
-315.8473449
-158.5206665
-138.9751604
-154.9200736
1239.789119
1247.428514
1260.654478
-61.1144916
-146.1457687
-289.0865106
-2299.908196
-2348.947737
-2461.208331
-2410.462601
-2390.342284
5073.702135
5027.736351
5091.709985
-2533.406492
-2558.43189
-2467.220186
-2676.089543
-2617.011037
-2608.165865
-4139.189305
-3481.748839
-7027.306756
-7126.06218
-7147.25645
-7031.137132
-7081.99731
-7833.028555
-7642.963318
-7695.20185
-7542.101511
-7593.118465
-7776.384096
-5989.133486
-5901.466224
-5964.94059
-5762.265552
-5834.881871
-5926.021412
-8026.654038
-7807.550032
-7814.294184
-7748.216213
-7790.019608
-8016.902884
-6238.611003
-6149.075038
-6209.553453
-6028.816556
-6089.509358
-6181.798871
-6937.26932
-6984.19331
-6810.050949
-6874.353036
1699.291393
1693.534552
1688.14308
1624.480202
1620.272549
1612.971791
1635.191869
1628.247105
1633.631362
-1567.985243
-1625.453509
-1422.728733
-1510.046208
1477.719708
1472.520114
1492.112672
1483.660256
1372.941493
1363.226571
1369.83774
1366.603181
1592.834239
1589.395738
1581.144217
1605.81445
1597.918584
1602.694795
1507.776569
1502.196703
1525.022971
1506.781215
1515.212722
-1799.560025
-1793.986149
-1786.914113
-1631.092652
970.7614867
977.427684
1034.2236
1098.613645
1092.881859
1071.778187
1106.264226
371.0233349
360.9734672
993.9357681
886.8684572
677.8065291
1304.411137
1322.499022
1316.333728
1182.139332
-9790.837747
-10062.29204
-9489.039742
-9480.467944
-8903.771767
-7939.944386
-9800.946007
-9459.333937
-3800.994742
-3955.575377
-2217.226132
-2208.861836
-2213.827909
2619.92999
2532.813422
4824.244191
4630.28213
4590.341875
4194.616645
4064.080997
4477.869757
4319.666855
4459.801604
-2754.407832
-2674.229275
-2813.376255
-1010.203538
-1004.744978
-991.9965963
-1115.603965
-802.8291418
-777.2691012
-764.9371636
-930.627785
-867.4054703
-869.1105362
-521.8179917
-578.0086059
-571.489176
-393.835196
-402.1421689
-448.59976
-9310.842304
-9231.70631
-9734.000382
-8579.648056
-8981.416774
-8973.97168
-9461.588921
-9448.152535
-7349.104606
-7231.60164
-7277.626558
-7171.777712
-7186.257566
-7291.066918
-7587.947404
-7432.405967
-7488.099623
-7327.772397
-7378.856881
-7528.594918
-5410.726545
-5333.508077
-5404.240832
-5396.856862
-5473.171991
-5084.93218
-5115.217956
-5091.737478
-5197.088649
-5709.522081
-5741.598406
-5694.928852
-5609.643093
-5685.949955
-5478.220033
-5548.005852
-5640.344964
-3454.367849
-3356.700031
-3353.259965
-3370.802301
-3307.872014
-3369.205852
-3560.543898
-3583.051109
-3511.272168
-3871.384142
-3915.39738
-3937.69915
2959.706495
2812.136975
2569.0247
2540.650639
2530.228825
2624.254642
2628.255035
2598.116473
3518.660937
3619.155957
3608.912248
3924.314065
3795.230279
3318.380627
3318.866044
3415.794859
-8099.109011
-7885.735498
-7922.614249
-7826.542107
-7852.700699
-8048.760542
-8279.792599
-8351.083111
-8603.994023
-8980.651389
-8872.307396
-9103.692665
-9089.663771
-8661.693306
-8548.789595
-8800.750816
-8739.875853
-8473.848445
2195.271274
2185.646583
2186.601742
2220.377732
2217.509835
2206.368074
2135.226264
2128.881019
2148.999081
2141.844204
2393.772274
2377.49378
2375.911715
2427.410541
2430.53603
2411.321093
2283.029031
2270.304323
2270.440352
2309.160864
2307.81655
2295.698486
-6480.30139
-6382.544235
-6434.306312
-6267.958625
-6325.760611
-6419.516348
-6729.67646
-6631.467781
-6714.968889
-6487.154036
-6553.027557
-6650.556741
1884.607585
1887.349358
1893.633132
1871.147503
1879.874333
1876.841995
1916.737852
1916.339769
1928.278021
1899.24124
1906.222806
1907.015875
1825.795798
1828.738558
1833.723332
1816.933176
1823.222461
1819.692648
1851.882433
1853.013631
1861.808245
1838.835938
1845.186791
1844.362651
2060.975589
2049.56494
2039.911855
2045.091436
2056.126423
2022.934099
2033.984837
2029.158417
2085.086973
2072.449809
1972.118429
1962.182908
1954.774662
1958.353853
1968.721965
1937.059693
1941.686367
1943.672506
1997.092733
2001.104337
2011.979269
1979.618697
1990.33113
1986.502752
1993.720254
1982.970009
-4339.424971
-4377.246475
-4266.864921
-4234.597402
-4256.677726
-4807.894237
-4839.250413
-4787.292151
-5003.045439
-4909.269507
-4879.42097
-4540.7958
-4573.102662
-4548.865844
-4730.743955
-4674.894176
-4610.717973
1672.287586
1667.908854
1660.989956
1681.996444
1675.086311
1680.16282
1684.81871
1675.680967
1708.556769
1705.316342
1658.148835
1647.546537
1641.570601
1640.827923
1638.577717
1654.265386
1648.138311
1653.753588
1764.227935
1769.628614
1781.442994
1764.963442
1798.652989
1801.63575
1809.54399
1787.479508
1794.30752
1791.398509
1722.840361
1718.4497
1743.891973
1738.108601
-2994.262016
-2979.125234
-3049.193576
-2861.258395
-2915.644963
-2950.829869
-3189.472837
-3238.616369
-3098.621813
-3100.661891
-3111.028165
-1346.46192
-1354.708949
-1410.801173
-1208.175428
-1275.783465
-1280.694784
1442.464809
1428.238515
1466.238862
1456.253615
1384.296698
1393.154856
1388.518007
1396.747763
1388.433565
1416.261497
1406.308801
1563.457956
1560.527003
1554.615085
1573.65685
1566.853407
1569.45258
1546.150922
1538.906855
1532.478669
1549.178363
1544.104962
1549.738576
-1952.502024
1047.65121
1020.771142
1021.504615
552.5048757
555.6183055
601.5101721
508.4838417
512.3634417
502.7250298
1032.849604
355.6116962
310.7855028
248.6247299
1280.460053
1282.779261
1290.388617
-381.6526903
99.27100951
45.38559995
202.9427785
194.7871429
203.6954447
29.83993674
-97.87070648
-79.13969907
19.45447248
1217.718832
1235.160807
1226.895485
920.6962018
877.5264312
850.611899
859.1911825
791.8941275
758.6093578
764.0740123
663.4364893
628.4881479
622.6017939
481.8720488
455.6149035
428.0758596
254.7242387
247.2128707
194.7320136
11.96244566
21.95913522
-48.83449143
-220.6319733
-196.9868904
-274.8772785
-421.7682808
-390.5926558
-465.9862203
-579.8656872
-546.6279984
-612.5297644
-693.7619464
-664.6738687
968.4543957
937.9728809
890.1928471
924.2591487
866.6606379
807.8000115
840.5336792
737.385589
678.945712
693.7868878
534.1417452
492.4129899
471.8486468
260.1185926
256.8491302
184.5792879
-41.1804881
2.709179376
-113.0846909
-308.0446181
-235.9766027
-365.0822213
-511.8648812
-438.0885436
-553.4902892
-660.0427308
-595.9548579
-689.9380582
-762.8753648
-707.9038453
1033.971493
1022.453498
957.1109125
1014.866699
975.0259026
890.1413999
954.338291
861.3931828
762.3747385
817.6065993
637.2522236
553.086619
558.9611096
277.1936252
261.8641909
168.9960776
-147.1232021
-61.85258199
-243.0932152
-481.0373594
-341.9234762
-542.8316498
-683.2953291
-546.273816
-718.7639813
-799.4201542
-688.1133083
-819.2895589
-865.48984
-785.5859148
1109.216256
1125.34523
1046.889633
1128.80516
1127.981051
1008.680882
1122.144277
1074.315522
904.5833052
1043.765242
872.0320248
678.9926453
777.0123832
350.1340772
285.7661497
171.5005994
-358.2892682
-185.8643687
-502.4853225
-798.9734402
-542.9849852
-860.0606949
-965.8729136
-742.6339949
-981.6280407
-1001.253558
-844.3645788
-1002.552651
-1001.408258
-896.44609
1182.130517
1232.29483
1152.395097
1250.736593
1311.62468
1172.429063
1333.859795
1400.69343
1146.37302
1418.54011
1405.885428
968.7315373
1343.15109
556.1812365
390.0299915
324.6460556
-940.8557092
-448.2664677
-1148.200187
-1389.734162
-914.2483491
-1400.511653
-1359.279631
-1053.421936
-1334.243611
-1253.531746
-1060.800954
-1227.781583
-1159.712706
-1039.699275
1237.79943
1319.080067
1256.956075
1351.676582
1473.189544
1357.066941
1524.323891
1727.757618
1490.90864
1819.86248
2328.40987
1608.285952
1947.12864
1939.411267
1362.30459
315.731049
-1233.719113
-522.2972112
-1980.90742
-1878.879321
-1549.096891
-2174.911791
-1823.710293
-1473.414704
-1731.7278
-1510.410368
-1320.41526
-1451.570234
-1309.670554
-1199.335445
1261.253298
1359.069236
1334.160094
1398.576713
1545.015932
1501.336401
1605.537291
1834.408681