/*--------------------------------*- C++ -*----------------------------------*\
| =========                 |                                                 |
| \\      /  F ield         | OpenFOAM: The Open Source CFD Toolbox           |
|  \\    /   O peration     | Version:  v1912                                 |
|   \\  /    A nd           | Website:  www.openfoam.com                      |
|    \\/     M anipulation  |                                                 |
\*---------------------------------------------------------------------------*/
FoamFile
{
    version     2.0;
    format      ascii;
    class       volScalarField;
    location    "0.18";
    object      k;
}
// * * * * * * * * * * * * * * * * * * * * * * * * * * * * * * * * * * * * * //

dimensions      [0 2 -2 0 0 0 0];


internalField   nonuniform List<scalar> 
12556
(
36.90870095
36.90876288
36.90887988
36.90909321
36.9544423
36.95519796
36.95665958
36.96001777
36.96678846
36.97856844
36.99551031
37.0087525
37.01417838
37.01439149
37.00931266
36.99835797
36.98128688
36.96920834
36.96177641
36.95749276
36.91074851
36.90944188
36.90877777
36.90841787
36.72744542
36.72764414
36.7278899
36.72847764
36.77453352
36.77862393
36.78745548
36.82288492
36.85455249
36.90998595
36.99303336
37.04428463
37.07182208
37.0752242
37.05468642
37.0131369
36.9402455
36.87701029
36.81676389
36.7923169
36.73641362
36.73097362
36.72866018
36.72759259
36.54740416
36.54796974
36.5488982
36.55083778
36.59836706
36.60907498
36.63072692
36.68765588
36.7653212
36.89236892
37.03386604
37.13548644
37.18535387
37.19250521
37.15136921
37.07070695
36.94920613
36.81745283
36.69830044
36.64255785
36.56904672
36.55781761
36.55244066
36.55037327
36.36867251
36.36933334
36.37090995
36.37520289
36.42679129
36.44963771
36.49852103
36.59564281
36.75148827
36.95849063
37.17825505
37.34388891
37.42596046
37.42557693
37.34411169
37.20636134
37.02412336
36.82934497
36.62969493
36.52090205
36.41492107
36.39180424
36.38102359
36.37696898
36.19197406
36.19318065
36.19661486
36.20570593
36.26385379
36.30615536
36.39918438
36.56265844
36.81046819
37.1306101
37.4727271
37.74655808
37.91342702
37.89862085
37.72211645
37.46856139
37.18760969
36.9055358
36.63411907
36.43719601
36.27720937
36.23280774
36.21328673
36.20587352
36.01706017
36.0189611
36.02487641
36.04042345
36.11229215
36.1848569
36.34612863
36.58457625
36.94382822
37.4258083
38.00502791
38.58878411
38.98503808
38.88919142
38.41964416
37.93204968
37.47163762
37.05753322
36.6765429
36.39851885
36.15785219
36.08056827
36.04789519
36.03527536
35.84565819
35.84919749
35.85992994
35.88703025
35.97502669
36.08936999
36.33863579
36.65127033
37.15034876
37.86867458
38.90279967
40.48920901
41.285587
41.1273668
39.65461064
38.66560039
37.89974936
37.29004689
36.76294371
36.40401291
36.05633934
35.93569052
35.88422791
35.86437981
35.67931313
35.68487422
35.70151759
35.74414001
35.85271608
36.02316364
36.35996294
36.75472899
37.4123672
38.42694279
40.17242516
43.7719185
44.65659414
41.62731702
39.68592132
38.46944916
37.59648885
36.88986706
36.42879945
35.97578334
35.80053102
35.72407221
35.69487325
35.52178805
35.5308422
35.5567908
35.61984867
35.75035479
35.98713128
36.40477952
36.89066608
37.71102013
39.01735605
41.41245246
47.22768619
50.65626591
44.0115076
40.89084275
39.13129447
37.95335463
37.04290465
36.46968104
35.91422281
35.67799519
35.57193633
35.53146917
35.37512477
35.38794445
35.42361445
35.50940276
35.67052333
35.97796043
36.46842416
37.04508922
38.0133288
39.55646383
42.35708203
48.84229236
54.38845703
46.1510179
42.0896482
39.80298187
38.31571443
37.20758818
36.52267709
35.87343085
35.57370038
35.43445111
35.38099646
35.24295918
35.26119875
35.3102587
35.42448095
35.61252209
35.98655629
36.54669832
37.21085611
38.30614932
40.02961124
43.10233568
49.76229239
56.04974585
47.73337577
43.1101585
40.40353404
38.65809768
37.3673849
36.58210597
35.8486758
35.4899861
35.31748195
35.25003034
35.12477848
35.14793708
35.20921384
35.3499239
35.57308279
36.01057963
36.63292215
37.37817036
38.57857408
40.44455935
43.75714515
49.81970497
56.68979758
48.77414918
43.87586173
40.88062691
38.94445612
37.50958721
36.64130676
35.84533538
35.42853364
35.22387286
35.14230189
35.02167179
35.05123592
35.12940523
35.30060988
35.54666562
36.03997836
36.71883228
37.53800736
38.81935337
40.80013875
44.39521341
49.41912509
42.70416007
56.43833544
49.37250006
44.37699421
41.20607009
39.1594243
37.62571427
36.69416828
35.8471222
35.38640833
35.15214362
35.05753421
34.9300037
34.96545954
35.05857482
35.25540336
35.54325477
36.09852974
36.84475326
37.71445624
39.06636105
41.16028808
45.03452484
48.10724503
46.48116
56.32982995
49.61779859
44.60917377
41.39670249
39.30629172
37.71494955
36.7367496
35.84780723
35.35709606
35.09748539
34.99145797
34.84764015
34.88877363
34.99563277
35.21652628
35.5331866
36.13245654
36.93466657
37.87234367
39.29542641
41.45279676
45.35206717
44.98094825
50.47076909
55.47272486
49.42814171
44.59885197
41.44934167
39.39162118
37.77024841
36.76584345
35.84406689
35.3324826
35.05280807
34.93754354
34.76965963
34.81613753
34.93527026
35.17847504
35.52179628
36.15693342
37.01497697
38.04067126
39.58687678
41.86876137
45.58725861
42.94917626
49.24915782
54.01763602
48.72314074
44.36475301
41.39714051
39.41250465
37.7938656
36.77920298
35.83155446
35.30341304
35.01051572
34.88810808
34.69400522
34.74530406
34.87481257
35.1373404
35.50341852
36.16601897
37.07159216
38.18667508
39.93958458
42.44744973
45.71674486
35.97866296
49.33479344
52.28603129
47.67318421
43.94590442
41.30781069
39.39236987
37.78673197
36.7729981
35.80510535
35.26822901
34.9647696
34.8368885
34.61574285
34.67133372
34.80970043
35.08911038
35.47498449
36.15858494
37.09743418
38.25584891
40.18727873
42.93181488
44.92053805
32.09313354
50.09210244
50.54584681
46.62745937
43.50804124
41.15458211
39.32543416
37.74466713
36.73359956
35.75445607
35.2165508
34.90977525
34.77827515
34.53523002
34.59450461
34.74002455
35.03294893
35.43455673
36.13180744
37.09214928
38.2786954
40.23527371
43.00711551
42.83760604
32.74544366
49.81509716
49.16643897
45.88565928
43.13194505
40.93449387
39.19509131
37.65707659
36.66260003
35.68418935
35.15037808
34.84312895
34.71008472
34.44797391
34.51041873
34.66206523
34.9665467
35.38122778
36.08732748
37.06344462
38.26596715
40.22107168
42.77866057
41.03286507
33.14479466
48.69896243
48.23559269
45.30482474
42.75073233
40.68230937
39.02387034
37.53680604
36.56462711
35.59464189
35.06819958
34.76274627
34.62923291
34.35740908
34.42247878
34.57895487
34.89181249
35.3153584
36.02681895
37.01206547
38.22515737
40.16284826
42.43454267
39.28381342
33.35297831
47.61788877
47.39478211
44.76841561
42.37962556
40.41742649
38.82904578
37.393023
36.44513896
35.48931288
34.97291932
34.6709049
34.53772742
34.25837724
34.32571107
34.4866025
34.80695677
35.23814549
35.95256371
36.94341725
38.16253215
40.06804709
41.99020494
37.59088582
33.56758107
46.61759124
46.62570567
44.27075005
42.02506501
40.1505991
38.62186831
37.23273702
36.30918943
35.36937252
34.86367428
34.56580132
34.43346067
34.15774894
34.22694366
34.39127734
34.71628609
35.15105785
35.86696427
36.86124353
38.08306895
39.94177129
41.49516806
36.00226459
33.62046897
45.68338053
45.91738075
43.80629635
41.68835173
39.8877224
38.40942955
37.06162504
36.16106213
35.23972452
34.74580707
34.45263929
34.32146697
34.04781079
34.11870123
34.28657105
34.61671889
35.05588985
35.77234434
36.76880799
37.99059947
39.786208
40.97992265
34.54282815
33.48092181
44.80475211
45.2602905
43.37047435
41.36841536
39.6316777
38.1960488
36.88397878
36.00431695
35.09986511
34.61663036
34.32798493
34.19810414
33.93980525
34.01209963
34.18262665
34.51502406
34.95411011
35.67074566
36.66877795
37.88767939
39.60293446
40.45221525
33.21728232
33.15746469
43.97362092
44.64668793
42.95948552
41.06366179
39.38360596
37.98435779
36.70286635
35.84169319
34.95589177
34.48408752
34.20013987
34.07163511
33.82098078
33.89467154
34.06831994
34.40483946
34.84732066
35.56388986
36.56318013
37.77555348
39.39529374
39.92153484
32.01469643
32.71705734
43.18508404
44.07007558
42.57002092
40.7725136
39.14369124
37.77584166
36.52038815
35.6753674
34.80397956
34.34131628
34.06146527
33.93427846
33.70919638
33.78403633
33.95984091
34.29693436
34.73650109
35.45318922
36.45344341
37.65475884
39.16838487
39.39748619
30.90792111
32.19663118
42.43452926
43.52523706
42.19928695
40.49356183
38.91170229
37.57129731
36.33799
35.5068585
34.65318116
34.20102724
33.92543844
33.79955413
33.58312187
33.65922165
33.8379395
34.17900968
34.62298423
35.33975851
36.34049411
37.52570678
38.92692658
38.88589349
29.90774349
31.62549365
41.71926761
43.00817418
41.84484164
40.22546895
38.68716741
37.37105757
36.15660873
35.33745657
34.49390702
34.04875997
33.77662292
33.65192084
33.47133821
33.54843869
33.72894564
34.06923911
34.50717102
35.22446972
36.22491902
37.389005
38.67561207
38.39052618
29.01421273
31.02963859
41.03736027
42.51548992
41.50459903
39.96700988
38.46953359
37.17520846
35.97686563
35.16785399
34.34201081
33.90659654
33.63818894
33.51461359
33.33844106
33.41675764
33.60004527
33.94472058
34.39032845
35.10801155
36.10706607
37.24544847
38.41772766
37.91364394
28.21970934
30.42903157
40.38548078
42.04380492
41.17669684
39.71700873
38.25817699
36.98365464
35.79914695
34.99892499
34.17701805
33.74625958
33.48070165
33.35814453
33.23069893
33.30990596
33.49471559
33.83750151
34.27223468
34.99089906
35.98721133
37.09590298
38.15540904
37.45609354
27.51445174
29.83586119
39.7607751
41.59096908
40.85948317
39.47437042
38.05246123
36.79622304
35.62369726
34.83078297
34.02945066
33.60795557
33.34554463
33.22391263
33.08975008
33.1701897
33.35764716
33.70533606
34.15442019
34.87355337
35.86563464
36.94123334
37.89080637
37.01790696
26.88953869
29.2579305
39.16086417
41.1547742
40.55153811
39.23812345
37.85177311
36.61263525
35.45065642
34.66427418
33.8568995
33.43789931
33.17795459
33.05720848
32.9908709
33.07207862
33.26089566
33.60622942
34.0358958
34.7563157
35.74251862
36.78228746
37.62611318
36.59854924
26.33647117
28.70035188
38.58383846
40.73352077
40.25165237
39.00740914
37.65553285
36.43258861
35.28018278
34.49898368
33.72105067
33.3105687
33.05303843
32.93301834
32.83865468
32.92115372
33.11246995
33.46216184
33.91921236
34.63975418
35.61823997
36.61984705
37.36279537
36.19711287
25.84688155
28.16620048
38.02828094
40.32621037
39.95891905
38.78156524
37.46329451
36.25593658
35.1127377
34.33653685
33.53362172
33.12521546
32.87014161
32.75093794
32.75417376
32.83732644
33.02986816
33.37926906
33.80280012
34.52485419
35.49399231
36.45457786
37.10219319
35.81281385
25.41398809
27.65837253
37.49388363
39.93116651
39.67269633
38.56008176
37.27468137
36.08239782
34.94975448
34.17697214
33.42260803
33.01870991
32.76506955
32.64634592
32.5595069
32.64424948
32.83974967
33.19331815
33.69271813
34.4140994
35.37378435
36.28766929
36.84591891
35.44792368
25.03317079
27.17958468
36.98442972
39.55083429
39.39401157
38.34319108
37.08971752
35.91195088
34.79614046
34.02691523
33.18007078
32.779256
32.52837349
32.41056809
46.94692177
51.48766538
45.20108759
48.68458119
55.56396472
51.97185757
49.69431461
57.17505867
55.87316781
49.8442184
57.70959312
57.2681269
49.44050264
44.97041062
42.99064525
57.85998258
57.73477297
48.6303565
42.63424588
44.53565149
45.86793842
58.12574032
57.85754066
43.18126697
41.24803705
44.59260875
40.94030991
58.6484879
48.04301367
50.02749028
44.55872484
42.3697944
42.14639651
47.3136272
45.93952533
59.56753949
65.61050363
54.06373518
47.17113716
45.2672489
42.93356874
48.40975097
47.47090009
49.27037678
52.94707415
54.14294687
55.71742137
55.71406569
55.92265588
49.04531843
47.71106303
43.61605426
49.04218192
48.51758961
49.86755665
48.29129667
50.83944589
56.6884751
55.52463103
44.26529843
49.28986185
49.09035232
49.62256597
42.43695868
45.37611928
70.74797859
58.39912974
57.8416317
44.93695269
49.03262688
49.29155338
49.22638354
34.70562513
38.4907846
46.8166897
43.50267736
42.72003275
53.21634982
56.05149808
46.65151912
52.595182
65.71620905
59.10677148
48.86569901
57.21159917
63.45289343
54.28144322
54.94503114
48.12101701
56.19351974
54.51074286
56.31728437
56.35899024
55.91229353
59.1078766
53.99637849
61.67214212
58.8880542
63.65631924
61.92086029
53.72219575
51.08445782
52.73899034
49.39525559
52.31632858
49.92515671
54.40242748
52.46420641
55.30372075
55.73848026
56.76738603
58.24375626
58.12682416
58.72911268
58.29233435
56.59273511
45.54050737
48.13376164
49.87340716
46.89917284
43.76326122
49.76612128
47.07599517
57.72829681
56.84010422
38.67684047
42.22694119
49.6015435
84.35835241
39.80216047
35.6080861
43.58948571
40.05501355
88.52932095
58.43032682
58.47013917
66.40565111
42.21167621
34.64475553
49.19423971
42.69078759
33.06877342
121.1125423
35.48223891
33.13029071
42.77564915
41.13128362
45.67991162
43.05803102
45.40240759
50.90830294
46.02798303
86.94808309
54.5353304
47.94842661
54.96149446
54.07336756
115.5265163
56.65864725
50.24132107
49.40086822
112.9889209
44.33858136
44.23464404
42.77950526
58.62310548
58.52148581
53.82701719
51.39491021
45.85215186
65.83712358
50.62769016
63.44306856
47.25704428
55.87660991
48.0997294
44.22489769
45.51843141
57.55567097
58.45254047
58.71669378
58.14974024
58.40957833
57.5044776
55.65938415
100.2486183
43.51442228
43.27947612
42.83078201
45.84356581
46.89913136
43.40593806
43.37512619
95.18036713
54.25985921
85.43424387
52.56714532
76.05478091
52.93009125
63.43409968
63.9102258
55.72384672
55.72367225
58.4085892
102.1861511
56.19245144
63.81414083
48.06370678
111.4540112
70.96656274
56.01828361
44.03613875
49.28585627
48.88240606
46.03917985
44.59835258
105.015163
37.35775552
46.89055513
46.40128958
47.55111669
47.07740139
37.48597061
72.59214403
66.58306098
54.67552804
67.29405024
68.58731916
60.54801824
66.75853962
55.0612907
49.44790299
59.8747962
49.984251
67.30106804
61.00185431
50.38237187
64.51128228
72.38063249
63.61582173
63.17343396
55.40319356
50.24455142
55.29595583
56.69218902
55.0079132
59.72305019
50.78456452
54.40331037
56.67348165
57.53212627
57.7493096
60.37184072
59.10458747
58.6347923
59.46701444
59.21438493
60.17490182
63.7835122
57.33127833
56.17042284
58.43643874
57.65212135
63.62705623
51.22621323
51.07190539
53.56042042
53.43899131
55.9925919
113.4206912
55.92661553
45.64633648
45.42975231
48.49468295
48.31205722
47.32830582
44.86501201
57.27308906
45.98729289
56.08991731
40.88792648
48.17265509
47.71152608
48.74356416
48.31889746
41.07104527
59.2966303
38.73410515
38.54408322
42.36963359
42.19655883
113.9895491
47.47466396
48.64655413
46.68476252
46.21491243
45.79980886
33.69751081
33.50025127
91.70661005
99.42382177
34.90146061
107.3459973
100.034468
104.1635152
34.85283611
43.23067758
99.25291869
93.3264186
80.84287975
62.20518674
73.6070981
45.28896603
48.0193998
48.88093101
47.4096511
46.63010864
45.03909453
50.67515251
57.11900383
57.97714138
65.06949288
79.50425241
96.24605398
51.04650943
49.36845902
46.32546999
58.44750827
58.61885398
42.94939038
45.92177221
45.3666959
49.29718075
52.77485217
45.72535825
46.008636
61.02297264
69.69464435
70.79528353
65.04951212
55.64264901
61.16962721
53.17059486
98.62413687
98.71502973
55.36718867
49.42539469
51.08420228
50.79098634
51.43265175
51.17774939
49.61167563
49.79119284
49.41433178
44.20647407
35.36732677
42.54827755
42.09185208
117.4074459
89.77521499
43.71562738
65.25115626
70.74458288
69.82779889
60.47213337
53.55672438
51.63490296
55.71233854
54.14453415
60.9085532
56.56075335
92.91627582
98.03538856
58.05736682
51.83062096
51.70032006
51.50802056
45.13537719
45.79977942
50.42512089
52.12606153
50.53272467
55.76659556
58.13034758
59.63344566
59.66586071
58.11968464
59.62974932
59.51961834
59.66925581
59.64744864
58.06221301
46.84302872
50.2580131
49.91146337
50.68832728
50.36942508
47.01758117
46.3718769
39.31924187
39.75675717
35.0026388
35.3839162
44.36139481
49.23464562
44.06381634
44.95028643
39.92543149
40.4117958
47.60496868
57.39266399
44.7568325
46.30639694
111.267461
73.87488625
39.29197675
37.0049487
43.07273891
34.65973199
34.92124016
33.89956365
41.23984699
104.2428814
38.23608587
44.26263058
43.43940546
41.94567028
41.5493444
34.50473994
91.57153953
72.39976372
42.53267866
32.94751157
105.0364956
97.99299215
89.82046807
44.43395698
35.26214976
33.31351684
70.32938034
70.03876121
68.23897439
114.3795388
114.2485847
49.89964103
57.92542741
114.9605855
62.84961313
62.65272997
56.40787527
75.15050952
57.27939739
75.14814427
58.10994727
95.43962175
76.05979389
44.47087722
105.002775
115.5585498
99.49773584
91.26561399
49.183683
100.6813376
108.9388214
92.56682059
98.41809489
107.6519673
83.50458345
90.14053482
73.0618537
80.21954948
103.6363904
91.88752037
67.49495187
60.96524923
74.55894915
69.51796221
59.73214365
54.45620802
64.50872559
73.64247714
93.42422855
61.70153711
64.7175083
71.24878828
73.64694191
65.41078283
62.85086696
55.62288241
108.0001519
102.6885922
78.94823867
105.07113
101.3071089
55.41306858
100.2912523
67.13850085
74.74989065
80.65351186
54.50921767
47.20232805
46.69673044
88.14705064
46.89813944
47.55760396
46.63803232
46.80906287
83.27133551
90.34693198
45.12364173
48.30367786
43.21279845
42.68302697
36.09225743
37.9317181
43.804507
43.36172735
70.35197047
69.43411078
68.94906757
59.84570622
60.68718398
58.40864079
59.52580516
69.37223593
64.32895864
61.44654279
61.38520308
60.90559077
61.36123292
64.77260125
65.10137225
56.5810203
58.0270464
70.01837497
70.65544255
70.70592146
67.9029975
64.88482736
70.47564599
73.29346965
78.715312
74.63979329
75.57938963
73.88620756
73.91859012
61.47524511
71.68687316
71.41235599
48.27375444
55.82287718
54.57412584
57.02016558
56.16429969
49.10384945
52.84944757
51.99784677
54.14177541
53.14368414
56.87183899
60.3190982
59.53914921
61.21919851
60.56482208
57.54419894
52.23142412
58.15860193
57.31023846
59.26690868
58.43856666
52.7478685
85.23067645
90.82993377
56.80133364
57.96361781
82.27576812
83.83165687
44.4357724
43.78716552
45.5579044
44.66360561
42.74985396
42.11867319
43.5796185
42.943677
50.66118979
49.88285215
51.72511936
50.92805795
48.35520329
46.15406541
49.60413473
48.83145552
50.31278954
53.2516374
47.79282459
49.39324904
115.0032187
69.0315814
74.01192043
54.80747162
66.61375664
38.75570461
39.1490383
46.19505303
35.83318825
35.54724183
36.27292311
35.9516224
35.30899587
44.621459
35.68108979
38.24142483
41.48318992
43.72887872
49.05574523
40.9631885
37.63557231
41.98759376
41.00413467
36.79562618
36.40806291
37.40068999
36.93720769
47.78081559
40.58263012
41.16331233
116.4654769
48.43855638
115.8438603
104.8370417
115.5850554
49.69519848
110.4529292
70.08103474
110.5332945
104.0467034
39.14018912
37.78622643
34.3119746
34.57885124
42.90042962
41.55492147
33.9850492
34.25168247
112.0783902
34.42255105
41.34878908
40.63577498
104.8141011
103.5592346
32.91960741
106.5363091
105.0728862
97.38957367
35.18603053
108.5884885
100.7617474
107.1872498
101.0161433
33.45309242
44.11534889
41.67870232
39.96059948
114.3833937
114.3104039
57.0578799
50.92966751
50.45519776
116.2758829
47.51213183
88.84447572
81.45947875
58.74680987
59.11431301
57.81548054
50.52222305
48.51997035
55.42745302
66.64362132
49.46404447
50.46030666
42.64465976
43.16039589
46.64529772
56.69588199
63.81587592
68.41351497
53.51212144
51.88185005
51.88358446
51.74213801
51.86201421
53.68298876
43.56172697
44.55450793
85.22296451
46.81525042
48.66178446
58.0746073
44.37327646
43.94374586
38.06236573
69.87557797
71.63769691
60.94035625
51.86542719
51.75385873
52.06702326
51.85113102
47.82199402
48.66941873
49.0858001
50.36881676
52.90721429
39.72924353
44.97583301
44.51561131
99.37129664
96.56302669
80.99305322
33.49215454
33.56274059
35.82693434
93.22236363
111.402831
104.7081817
55.80825402
42.98672581
43.39930502
33.02836624
35.40099112
33.3792591
33.43233445
33.17565767
86.58621523
113.3963862
89.14318625
93.90396145
112.1084021
53.79044979
48.49424795
44.67602631
64.75738487
50.95397894
48.79832911
52.2326685
44.39979541
69.58512813
56.6565743
108.1183997
109.0583622
108.9911495
103.6706775
107.840483
44.95742397
45.54070447
51.23438665
88.51260034
77.73296942
71.83108719
86.3311324
83.99290045
61.5179844
92.72554901
87.25274414
117.7148473
114.5965655
90.47301541
48.35867077
47.45125105
52.56476135
113.8340222
68.5888593
74.09096576
98.36171966
78.18770733
83.2901674
72.12247578
73.16612009
67.55228519
67.88935309
65.85244144
65.69175817
61.42703115
63.02960994
62.4501444
65.46590207
65.15147483
66.08681998
54.28357711
56.08130717
64.39048659
66.68352293
75.40499258
69.59851183
75.18247781
75.6970232
71.31550284
45.88991159
49.03668637
48.32771945
54.21278849
53.86506692
49.90034299
45.34164538
44.99909722
47.70757898
47.20913585
55.61941437
58.85700452
58.36405102
61.90882871
61.39195979
58.95803391
51.21427805
55.09530496
54.68590034
57.87077301
57.38874212
53.83424381
46.90595639
47.58619594
51.70058885
50.58304261
46.01515735
46.68425036
51.64723312
52.34200623
53.93497523
43.05803861
42.84223436
44.70547279
44.43280968
39.62774201
42.54774356
42.37184172
53.03995121
50.68695044
51.40818123
111.7542325
110.5420707
77.23594225
80.40264143
112.5168778
110.0524064
112.1694742
55.79964857
50.02253013
48.6473994
45.5523104
45.12332447
40.14384724
41.54962885
46.07027326
45.68038837
36.00316008
36.07172848
38.85544122
38.4101869
35.78497124
35.84118686
113.0701918
33.69648148
36.28882141
34.93757487
79.05960878
33.10425071
96.36277264
105.5727591
107.6732984
33.03389196
33.08286345
35.02011002
107.806572
108.372413
107.6912484
102.0130967
34.61723645
32.94815705
33.00219571
97.53441218
60.39285341
69.0845426
113.9910855
112.8389378
97.74296042
93.74723172
69.56626545
68.08300788
69.34652346
77.07291472
86.0694669
114.4896183
104.7543357
115.1165045
112.9160285
91.6777212
47.82944786
49.09051846
59.33906914
72.36761618
71.05411136
75.04785599
73.81706675
70.15699249
64.2232532
65.01508038
62.57399375
63.32123848
69.98267523
100.4614381
56.02097912
56.57155049
54.94506261
55.87862862
102.8423045
69.8181881
67.45810391
67.93540225
65.94216801
66.69920218
69.75027328
94.20587159
57.16083143
57.70693899
56.66584811
57.04195632
95.65420554
78.2559238
76.02737299
78.65217582
77.08070882
39.4422645
42.47695718
42.3129088
35.10411027
38.38241591
38.23071989
38.83943997
38.56376823
35.21263292
110.0560921
111.5648076
104.3089536
110.3835816
33.81889623
33.76036092
33.97531713
33.89314673
33.18587901
36.26418921
33.68979545
33.93979853
34.75278836
37.84539601
37.71457625
38.09860252
37.97036027
34.83525277
34.31647456
34.09792268
36.3784776
34.69033074
33.40776625
113.8247281
111.0282356
98.05751257
112.4668034
38.38769855
36.97149503
38.97243023
34.56635747
37.22017239
37.10582182
32.97756163
105.886037
106.4770958
73.42439951
107.1710058
105.408506
33.2644572
33.33428861
35.34101503
33.23282435
77.98109091
92.80809524
80.05858969
81.54766961
75.54817578
60.68363602
87.00213979
75.40828111
115.4322039
116.8198746
114.020912
97.9388653
105.3387813
64.14446619
59.92261702
71.49700963
60.97699452
64.84549988
75.38348996
77.3236475
66.09805626
73.7955627
80.87465196
114.8306082
116.042273
113.2577585
103.6745522
109.758888
109.1190049
108.9052757
94.41353304
103.4794802
100.2829152
108.1964266
108.182703
96.92776956
99.03637863
100.3177535
108.0847206
101.9633553
96.90129916
97.59846192
85.66882927
78.695886
88.35579471
72.98217958
78.2600088
81.09249033
85.04110651
85.63733579
76.4050179
58.91297382
58.97635427
69.9408012
58.44427775
70.50700852
71.94073634
61.07103417
61.75562311
59.7173625
60.31122389
72.24814919
64.6006826
50.61390263
50.92873224
105.9391838
104.5059691
91.15008547
107.8505557
106.7044893
106.3070812
101.2469457
103.9685634
83.53511329
52.30836217
54.02990806
51.23076385
51.58440176
71.35462183
115.3919471
103.2465067
66.61684695
118.2105736
115.9831917
115.5690288
84.80435538
115.1314401
113.2491448
58.19896838
62.22574393
99.92001572
71.30682708
68.41832798
64.20598447
63.64120709
62.27709933
65.57970917
64.86748571
64.48724245
77.02205417
76.70597636
68.67143485
78.16230775
81.12847979
71.22691032
76.59032744
76.94850528
69.78148057
69.2517032
69.51690989
68.09287437
68.89192507
69.00535386
73.03696135
72.50279649
75.24404137
78.8431574
78.03560348
80.4897971
79.63385713
75.59041899
74.49490179
76.15270749
80.5628872
75.63732593
52.25965618
52.0240097
48.25644365
49.31895609
53.33196911
53.0917241
46.03551059
45.67225281
46.79202886
46.39873758
59.85745897
59.35161605
56.21821552
58.24178281
60.87974411
60.36717868
55.99496489
55.55972623
51.75776996
53.26211593
56.91010334
56.45272255
87.79292835
58.88542071
59.51091943
57.88467768
58.43542228
88.87818071
81.97588501
63.6663708
70.0042621
60.27263933
61.46409222
83.15036636
44.21278185
40.13174173
40.34728953
39.74541406
39.93715616
43.99969421
45.18534172
41.07335737
41.39599554
40.5663071
40.80803529
44.90805171
42.52656397
38.64067265
38.82959369
38.31004232
38.49825396
42.35566594
43.36723538
39.37045333
39.55812261
38.99479358
39.1893173
43.16292558
43.58871294
43.34417821
50.40244084
47.5968695
47.85963373
47.06453071
47.30498417
50.13314199
44.13816049
43.87427781
41.39756975
41.38543062
47.98976939
45.24824148
45.34533095
41.8677855
42.47991221
47.02430969
49.36965053
46.55379844
46.75317599
46.04047111
46.17889577
49.05392255
42.04092197
41.92384724
111.9184008
109.8368828
112.3783434
85.49426925
97.42517173
70.38998938
109.5883244
111.4848898
107.365349
108.3716614
71.96332238
57.74311577
95.50303957
83.10155913
108.9279934
110.5023494
62.5253124
38.82434813
41.73901842
41.59185766
42.12000398
41.97254786
39.0540969
35.76036981
35.60940752
36.16769955
36.0324133
35.18231107
34.25609467
36.16993552
40.05868223
39.31944236
41.19605086
40.88178005
38.22966893
38.55500941
36.1918806
37.48108275
38.01050604
41.69437626
37.98400839
38.20420593
37.55055755
37.90442657
41.60048357
36.66593293
36.52790134
37.23025884
37.07697054
113.789733
85.59286727
89.43300702
71.9030237
79.65710614
115.4043148
115.9483876
114.0157282
94.67017301
104.2823818
118.1300456
109.382255
97.24484687
99.64341443
91.17154191
94.28171792
109.6006266
33.60447311
33.55966411
33.70429271
33.66649949
35.19700018
35.44334898
38.08769562
33.35088686
33.30645992
33.48014965
33.44009096
34.41081705
37.34263024
37.19079161
37.5916149
37.45481019
34.48252738
34.10414232
36.84216507
36.4108324
37.10144877
36.90601082
34.15051035
111.3224275
36.96415702
36.73286682
34.2124042
104.2965625
101.1877894
100.2353372
104.1127677
102.5099298
103.695875
32.88932086
104.6572055
104.2850409
103.9573348
35.08688311
33.12784662
33.19970922
108.0490194
106.772007
107.533788
103.7767789
104.8031653
107.773256
108.2029182
101.4228595
107.1176268
104.5723281
32.97975385
32.95258305
34.34396769
36.71822434
36.76257292
36.84428268
36.78142965
36.85896586
36.89273923
36.88967717
36.98561553
36.96739588
37.01493233
37.08728562
37.03277273
37.10435844
37.14014535
37.06596928
37.14832403
37.15801292
37.0766831
37.15559647
37.13220551
37.06297515
37.12065853
37.07054679
37.02732801
37.05054825
36.97040506
36.96109031
36.94183819
36.84954748
36.89121005
36.61369862
36.70737415
36.74185197
36.74840646
36.88372639
36.85892021
36.93290179
37.08379184
37.00062301
37.13104759
37.24747592
37.11671974
37.27611865
37.34384027
37.17543404
37.35796729
37.35744002
37.19524974
37.34809676
37.30380335
37.16512267
37.28212709
37.19654993
37.09392729
37.16268966
37.04277389
36.9815606
36.9983998
36.86349339
36.84787136
36.56512237
36.72720845
36.70723269
36.78923678
37.00000879
36.90339294
37.07638918
37.30815043
37.12614483
37.38029435
37.56947174
37.31098472
37.63172657
37.76267604
37.41228191
37.78366187
37.77132717
37.43030947
37.73813223
37.6423076
37.37126519
37.60102972
37.44627827
37.24478964
37.38804445
37.20106287
37.07359815
37.13646885
36.94348445
36.87583197
36.57477853
36.8101821
36.74080502
36.90265905
37.22013784
37.0453761
37.33803534
37.71682377
37.39014263
37.84358274
38.21922068
37.69188883
38.35915845
38.6356402
37.89787374
38.68478787
38.63100618
37.90107642
38.52465166
38.2922753
37.77913791
38.20181888
37.89788868
37.5368834
37.79245431
37.48584324
37.25909377
37.38645517
37.10453226
36.9753876
36.63068169
36.96095163
36.84244249
37.09352311
37.5632183
37.29431271
37.74466831
38.38739822
37.85381029
38.63623864
39.53091493
38.46913309
39.91866757
40.80087911
38.92101927
40.9263173
40.58620537
38.91690758
40.25329165
39.52404042
38.54471358
39.28418264
38.64311509
38.05295468
38.45057414
37.93485612
37.5819159
37.77763743
37.35293927
37.1569422
36.7267645
37.16744284
37.00777748
37.34605178
38.0086543
37.66408851
38.2830876
39.35342819
38.60335811
39.83690886
42.58451668
40.03677668
41.40941451
42.00457594
40.78514356
42.73354397
42.70056246
41.31361341
42.0596864
41.35554624
40.7706625
41.0735872
39.74830735
38.88582251
39.40554118
38.55163225
38.07499924
38.31068983
37.69181637
37.42878726
36.8545472
37.40777749
37.22180468
37.63499482
38.50193708
38.12690783
38.87450965
40.40295381
39.62276211
40.50764893
41.25504567
40.85133566
44.34893327
45.22816768
44.49433207
47.08500153
45.26293433
43.62248128
43.41966384
41.12977515
40.07436767
40.58868016
39.3092473
38.73469021
38.96365395
38.09919446
37.7876876
37.00516635
37.66640169
37.47215959
37.93813315
38.97896189
38.624021
39.42812816
41.27833104
40.64087364
41.67545084
42.66089215
42.35190271
47.49627034
49.0255296
48.71415884
52.36844412
48.97773017
47.6200439
45.66813875
42.54484222
41.48451547
41.81026239
40.09390395
39.50303434
39.64115099
38.52902934
38.20614838
37.16928661
37.92549285
37.73156285
38.23456942
39.41206643
39.09162383
39.91727437
41.97906675
41.466172
42.56008831
43.67546862
43.44446906
48.99282575
51.02614219
50.83260407
55.19520082
51.57656092
50.74982554
47.39510287
43.7543992
42.86862289
42.87526839
40.8110905
40.28152904
40.26420029
38.93273267
38.62975847
37.33782802
38.17394859
37.98889953
38.51314975
39.797804
39.51275602
40.34668879
42.5783384
42.13368
43.28131513
44.5017789
44.29026373
49.81382231
50.93751487
51.07916918
56.38694818
53.03930532
52.63139821