/*--------------------------------*- C++ -*----------------------------------*\
| =========                 |                                                 |
| \\      /  F ield         | OpenFOAM: The Open Source CFD Toolbox           |
|  \\    /   O peration     | Version:  v1912                                 |
|   \\  /    A nd           | Website:  www.openfoam.com                      |
|    \\/     M anipulation  |                                                 |
\*---------------------------------------------------------------------------*/
FoamFile
{
    version     2.0;
    format      ascii;
    class       pointVectorField;
    location    "0.18";
    object      pointDisplacement;
}
// * * * * * * * * * * * * * * * * * * * * * * * * * * * * * * * * * * * * * //

dimensions      [0 1 0 0 0 0 0];


internalField   nonuniform List<vector> 
26316
(
(0 0 0)
(0 0 0)
(0 0 0)
(0 0 0)
(0 0 0)
(0 0 0)
(0 0 0)
(0 0 0)
(0 0 0)
(0 0 0)
(0 0 0)
(0 0 0)
(0 0 0)
(0 0 0)
(0 0 0)
(0 0 0)
(0 0 0)
(0 0 0)
(0 0 0)
(0 0 0)
(0 0 0)
(0 0 0)
(0 0 0)
(0 0 0)
(0 0 0)
(0 0 0)
(0 0 0)
(0 0 0)
(0 0 0)
(0 0 0)
(0 0 0)
(0 0 0)
(0 0 0)
(0 0 0)
(0 0 0)
(0 0 0)
(0 0 0)
(0 0 0)
(0 0 0)
(0 0 0)
(0 0 0)
(0 0 0)
(0 0 0)
(0 0 0)
(0 0 0)
(0 0 0)
(0 0 0)
(0 0 0)
(0 0 0)
(0 0 0)
(0 0 0)
(0 0 0)
(0 0 0)
(0 0 0)
(0 0 0)
(0 0 0)
(0 0 0)
(0 0 0)
(0 0 0)
(0 0 0)
(0 0 0)
(0 0 0)
(0 0 0)
(0 0 0)
(0 0 0)
(0 0 0)
(0 0 0)
(0 0 0)
(0 0 0)
(0 0 0)
(0 0 0)
(0 0 0)
(0 0 0)
(0 0 0)
(0 0 0)
(0 0 0)
(0 0 0)
(0 0 0)
(0 0 0)
(0 0 0)
(0 0 0)
(0 0 0)
(0 0 0)
(0 0 0)
(0 0 0)
(0 0 0)
(0 0 0)
(0 0 0)
(0 0 0)
(0 0 0)
(0 0 0)
(0 0 0)
(0 0 0)
(0 0 0)
(0 0 0)
(0 0 0)
(0 0 0)
(0 0 0)
(0 0 0)
(0 0 0)
(0 0 0)
(0 0 0)
(0 0 0)
(0 0 0)
(0 0 0)
(0 0 0)
(0 0 0)
(0 0 0)
(0 0 0)
(0 0 0)
(0 0 0)
(0 0 0)
(0 0 0)
(0 0 0)
(0 0 0)
(0 0 0)
(0 0 0)
(0 0 0)
(0 0 0)
(-1.17541435e-06 1.326697154e-05 2.775557562e-17)
(0 0 0)
(0 0 0)
(-6.461408939e-07 0.000148609868 3.330669074e-16)
(2.996193332e-06 0.0001263288208 2.91433544e-16)
(0 0 0)
(0 0 0)
(0 0 0)
(0 0 0)
(0 0 0)
(0 0 0)
(0 0 0)
(0 0 0)
(0 0 0)
(0 0 0)
(0 0 0)
(0 0 0)
(0 0 0)
(0 0 0)
(0 0 0)
(0 0 0)
(0 0 0)
(0 0 0)
(0 0 0)
(0 0 0)
(0 0 0)
(0 0 0)
(0 0 0)
(0 0 0)
(0 0 0)
(0 0 0)
(0 0 0)
(0 0 0)
(0 0 0)
(0 0 0)
(0 0 0)
(0 0 0)
(0 0 0)
(0 0 0)
(0 0 0)
(0 0 0)
(0 0 0)
(0 0 0)
(0 0 0)
(0 0 0)
(0 0 0)
(0 0 0)
(0 0 0)
(0 0 0)
(0 0 0)
(0 0 0)
(0 0 0)
(0 0 0)
(0 0 0)
(0 0 0)
(0 0 0)
(0 0 0)
(0 0 0)
(0 0 0)
(0 0 0)
(0 0 0)
(0 0 0)
(0 0 0)
(0 0 0)
(0 0 0)
(0 0 0)
(-7.322362282e-05 0.0001920577305 4.996003611e-16)
(-0.0004212076726 0.00120485717 3.080868893e-15)
(-5.510768577e-06 1.620972692e-05 4.163336342e-17)
(-0.0007985729581 0.003223993518 8.035239141e-15)
(-0.001977378558 0.007793286778 1.995625887e-14)
(-0.002340260412 0.01055742015 2.703393065e-14)
(-0.001095739242 0.005055002253 1.258715354e-14)
(-0.001321116414 0.01065284975 2.65204525e-14)
(-0.002293804438 0.01824005536 4.671263376e-14)
(-0.001893566563 0.02015270933 5.162537065e-14)
(-0.001129949493 0.01212269893 3.017031069e-14)
(-1.910782265e-05 0.01417381654 3.530509218e-14)
(1.586121921e-05 0.02276846751 5.835609773e-14)
(0.0007187032757 0.02247034531 5.760669719e-14)
(0.0004051303427 0.01394010425 3.47222251e-14)
(0.001278903496 0.01068306343 2.661759702e-14)
(0.002285094561 0.01826604045 4.685141164e-14)
(0.002488270338 0.01595868944 4.093947403e-14)
(0.001339348036 0.00894271573 2.227384943e-14)
(0.0007825552221 0.003263422093 8.132383655e-15)
(0.001947201917 0.007850706456 2.013667011e-14)
(0.001462140787 0.005245906524 1.346145417e-14)
(0.0004566762692 0.001692251195 4.218847494e-15)
(0 0 0)
(7.682691977e-05 0.00020682332 5.412337245e-16)
(0 0 0)
(0 0 0)
(0 0 0)
(0 0 0)
(0 0 0)
(0 0 0)
(0 0 0)
(0 0 0)
(0 0 0)
(0 0 0)
(0 0 0)
(0 0 0)
(0 0 0)
(0 0 0)
(0 0 0)
(0 0 0)
(0 0 0)
(0 0 0)
(0 0 0)
(0 0 0)
(0 0 0)
(0 0 0)
(0 0 0)
(0 0 0)
(0 0 0)
(0 0 0)
(0 0 0)
(0 0 0)
(0 0 0)
(0 0 0)
(0 0 0)
(0 0 0)
(0 0 0)
(0 0 0)
(0 0 0)
(0 0 0)
(0 0 0)
(0 0 0)
(0 0 0)
(0 0 0)
(0 0 0)
(0 0 0)
(0 0 0)
(0 0 0)
(0 0 0)
(0 0 0)
(-0.0002044971765 0.0003562295212 1.026956298e-15)
(-0.001116458235 0.002075778755 6.022959909e-15)
(-0.0002646016546 0.0005077470899 1.429412144e-15)
(-0.003761400356 0.009060876044 2.542410726e-14)
(-0.006003331898 0.0140520272 4.070355164e-14)
(-0.00763510086 0.01957551119 5.667688541e-14)
(-0.005158403723 0.01359692118 3.81361609e-14)
(-0.007920846511 0.0291163984 8.157363673e-14)
(-0.01042414044 0.03740689835 1.081496004e-13)
(-0.01040489614 0.0430341771 1.244143677e-13)
(-0.008086145062 0.03420457565 9.581224703e-14)
(-0.006099003849 0.04677896419 1.311173392e-13)
(-0.007481485934 0.05659950006 1.637856517e-13)
(-0.005727489127 0.05964456357 1.727229471e-13)
(-0.004736689344 0.04966269547 1.392636007e-13)
(0.000457062499 0.05343580489 1.501437863e-13)
(0.0007201213161 0.06356431309 1.845190667e-13)
(0.002948580955 0.06307046271 1.832423102e-13)
(0.002269376855 0.05297898147 1.489502965e-13)
(0.006746407505 0.04665028662 1.31394895e-13)
(0.008562133517 0.05635541866 1.641048408e-13)
(0.009798222098 0.05250376112 1.529609772e-13)
(0.007670721834 0.04304752851 1.212918654e-13)
(0.008087643834 0.02909092647 8.198997037e-14)
(0.01079518182 0.03727267826 1.086630785e-13)
(0.01016764702 0.03141483837 9.156564396e-14)
(0.007423423733 0.02386542573 6.725175972e-14)
(0.003753242328 0.00915189452 2.575717417e-14)
(0.006013718776 0.01413696108 4.114764085e-14)
(0.004241881148 0.009233608555 2.68673972e-14)
(0.002351915561 0.005305301093 1.493249968e-14)
(0 0 0)
(0.000203058576 0.0003600675254 1.040834086e-15)
(0 0 0)
(0 0 0)
(0 0 0)
(0 0 0)
(0 0 0)
(0 0 0)
(0 0 0)
(0 0 0)
(0 0 0)
(0 0 0)
(0 0 0)
(0 0 0)
(0 0 0)
(0 0 0)
(0 0 0)
(0 0 0)
(0 0 0)
(0 0 0)
(0 0 0)
(0 0 0)
(0 0 0)
(0 0 0)
(0 0 0)
(0 0 0)
(0 0 0)
(0 0 0)
(0 0 0)
(0 0 0)
(0 0 0)
(0 0 0)
(0 0 0)
(0 0 0)
(0 0 0)
(0 0 0)
(0 0 0)
(0 0 0)
(0 0 0)
(0 0 0)
(0 0 0)
(-8.798924294e-05 0.0001114325159 3.60822483e-16)
(0 0 0)
(-0.003738689154 0.005884342117 1.895705815e-14)
(-0.005552803092 0.008416286685 2.813027589e-14)
(-0.008672500291 0.01408649516 4.700406731e-14)
(-0.006374212403 0.01073601208 3.452793607e-14)
(-0.01443655771 0.03083760437 9.882372698e-14)
(-0.0174866224 0.03613025835 1.200289867e-13)
(-0.01945885642 0.04416470363 1.465771948e-13)
(-0.01640643784 0.03847767355 1.231931224e-13)
(-0.01829531057 0.06051069372 1.93525751e-13)
(-0.02079167732 0.06662346491 2.208927485e-13)
(-0.01966252403 0.07286854837 2.416955525e-13)
(-0.01747959323 0.06684110542 2.138150768e-13)
(-0.01137299918 0.08096156051 2.595978987e-13)
(-0.01249055982 0.08633181884 2.871730631e-13)
(-0.009200229746 0.08900392681 2.964573032e-13)
(-0.008434415265 0.08388546086 2.692845946e-13)
(0.001601805286 0.08738144038 2.816913369e-13)
(0.001827257205 0.09206217707 3.081285227e-13)
(0.005561221135 0.09154631851 3.069211552e-13)
(0.005011476174 0.08684783 2.803868249e-13)
(0.01403688952 0.08019971687 2.59972599e-13)
(0.01561197546 0.08536820475 2.875477634e-13)
(0.01823835609 0.08166490847 2.754324546e-13)
(0.01630893545 0.07628207789 2.475519789e-13)
(0.01964413567 0.05974374043 1.942057626e-13)
(0.02250559032 0.06552182266 2.214894934e-13)
(0.02246732332 0.05867346794 1.983552211e-13)
(0.01939906795 0.05291158077 1.720013021e-13)
(0.01462166844 0.03045784049 9.885148256e-14)
(0.01825247145 0.03628946062 1.226241331e-13)
(0.01568378574 0.0289014722 9.763023723e-14)
(0.0124146848 0.02391547414 7.760458942e-14)
(0.004278174754 0.006763389028 2.189914916e-14)
(0.0063983196 0.009715562637 3.269606808e-14)
(0.003606071225 0.005169970616 1.737499034e-14)
(0.002059727793 0.00307214835 9.93649607e-15)
(0 0 0)
(0 0 0)
(0 0 0)
(0 0 0)
(0 0 0)
(0 0 0)
(0 0 0)
(0 0 0)
(0 0 0)
(0 0 0)
(0 0 0)
(0 0 0)
(0 0 0)
(0 0 0)
(0 0 0)
(0 0 0)
(0 0 0)
(0 0 0)
(0 0 0)
(0 0 0)
(0 0 0)
(0 0 0)
(0 0 0)
(0 0 0)
(0 0 0)
(0 0 0)
(0 0 0)
(0 0 0)
(0 0 0)
(0 0 0)
(0 0 0)
(0 0 0)
(0 0 0)
(0 0 0)
(0 0 0)
(-0.0004066534076 0.0004327327954 1.637578961e-15)
(-0.000924697518 0.0009413559955 3.73312492e-15)
(-0.003282574979 0.003522671799 1.396105453e-14)
(-0.002207315715 0.002474786465 9.381384558e-15)
(-0.01292201048 0.01735928264 6.547540288e-14)
(-0.01527999232 0.0196724448 7.745193376e-14)
(-0.01965192781 0.02711776676 1.065120214e-13)
(-0.01704622987 0.02453770594 9.234280007e-14)
(-0.02664468193 0.04881226393 1.82603932e-13)
(-0.02941206707 0.05157917151 2.014777234e-13)
(-0.03086342707 0.0594152899 2.318284453e-13)
(-0.02822107577 0.05682585098 2.122746423e-13)
(-0.02735701401 0.07801495904 2.909616992e-13)
(-0.02906996282 0.07903148768 3.07781578e-13)
(-0.02660803919 0.08359940249 3.257949466e-13)
(-0.02512187213 0.08276028847 3.089056788e-13)
(-0.01505131156 0.09205399911 3.451128272e-13)
(-0.01563590128 0.09057123155 3.546607452e-13)
(-0.01134403173 0.09124751333 3.580330477e-13)
(-0.01095919906 0.09336274832 3.506916979e-13)
(0.001965823 0.09424583305 3.562566908e-13)
(0.001814311268 0.09111866721 3.599343046e-13)
(0.006214557081 0.09089337692 3.598926712e-13)
(0.006306301343 0.09390963467 3.557709682e-13)
(0.01885170002 0.09068436965 3.458344722e-13)
(0.01929048306 0.08904014745 3.5513259e-13)
(0.02323020726 0.08736803309 3.492900413e-13)
(0.02251552449 0.08836470039 3.376882107e-13)
(0.02996768462 0.07593124477 2.915861996e-13)
(0.03183509297 0.07672344803 3.088640455e-13)
(0.03319120523 0.07152057529 2.884498196e-13)
(0.03090743931 0.06993343267 2.690347944e-13)
(0.02817652389 0.0488077858 1.877942246e-13)
(0.03105820016 0.05130695973 2.068345495e-13)
(0.02835720364 0.04354320992 1.753042156e-13)
(0.02542732271 0.04094400419 1.573324804e-13)
(0.01374720834 0.01831778267 6.997180613e-14)
(0.01620984542 0.0206066029 8.246181515e-14)
(0.01166696281 0.01403051698 5.601075159e-14)
(0.00955578955 0.012041497 4.590772207e-14)
(0.0006292185245 0.0006795182779 2.581268532e-15)
(0.001081033431 0.001115259391 4.440892099e-15)
(2.74377092e-05 2.69747645e-05 1.110223025e-16)
(0 0 0)
(0 0 0)
(0 0 0)
(0 0 0)
(0 0 0)
(0 0 0)
(0 0 0)
(0 0 0)
(0 0 0)
(0 0 0)
(0 0 0)
(0 0 0)
(0 0 0)
(0 0 0)
(0 0 0)
(0 0 0)
(0 0 0)
(0 0 0)
(0 0 0)
(0 0 0)
(0 0 0)
(0 0 0)
(0 0 0)
(0 0 0)
(0 0 0)
(0 0 0)
(0 0 0)
(0 0 0)
(0 0 0)
(-3.870885919e-05 2.763668359e-05 1.387778781e-16)
(-1.056262196e-06 7.989993998e-07 0)
(0 0 0)
(-0.002902266126 0.002553308634 1.17267307e-14)
(-0.003662912601 0.00305393795 1.47937218e-14)
(-0.007594230905 0.006683947261 3.229361223e-14)
(-0.006479544167 0.006015594515 2.756128659e-14)
(-0.02095866996 0.02339783468 1.062205879e-13)
(-0.02281446034 0.02415963636 1.155880947e-13)
(-0.02765850125 0.03139986558 1.497413304e-13)
(-0.02619690797 0.03137208265 1.419420137e-13)
(-0.03590181342 0.05455555396 2.453037773e-13)
(-0.03741606589 0.05386507558 2.551708844e-13)
(-0.03827502522 0.06033404219 2.856187509e-13)
(-0.0368955831 0.06142348412 2.759875661e-13)
(-0.03283119467 0.07594850002 3.417960359e-13)
(-0.03360344062 0.07332428557 3.479438959e-13)
(-0.03007688771 0.07508603159 3.56964458e-13)
(-0.02955704279 0.07844270984 3.534533777e-13)
(-0.01669951038 0.07952066183 0)
(-0.01707996004 0.07526133986 0)
(-0.01486122065 0.07519293866 0)
(-0.0125186979 0.07521522131 0)
(-0.01231073986 0.07732273157 0)
(-0.01219139209 0.0793831556 0)
(0.001218701986 0.07882218734 0)
(0.001120002749 0.07677240525 0)
(0.003365703255 0.07666607308 0)
(0.003452231235 0.07871624802 0)
(0.01926822858 0.07778470604 0)
(0.01923387974 0.07567625302 0)
(0.01921388756 0.07353441735 0)
(0.02144466738 0.07336245611 0)
(0.02364497296 0.07323263321 0)
(0.02375133429 0.07746494009 0)
(0.03528823163 0.07337360421 3.441552598e-13)
(0.03574613355 0.07058088331 3.500255641e-13)
(0.03834577751 0.06761952218 3.359951206e-13)
(0.03759169115 0.06989137713 3.283484595e-13)
(0.03766732844 0.05341608451 2.51146326e-13)
(0.03898266279 0.05227204991 2.60236277e-13)
(0.03693180633 0.04594893346 2.285255318e-13)
(0.0352826648 0.04645268219 2.181588243e-13)
(0.02264242049 0.02464882343 1.149913498e-13)
(0.02476012285 0.02547187833 1.257466353e-13)
(0.0194847637 0.01897748706 9.336975637e-14)
(0.01754950961 0.01808301765 8.409939412e-14)
(0.003897758363 0.003459187158 1.595945598e-14)
(0.004872345194 0.004091453925 1.994238108e-14)
(0.001744904456 0.001399275449 6.800116026e-15)
(0.00118715851 0.001005740504 4.635181128e-15)
(0 0 0)
(0 0 0)
(0 0 0)
(0 0 0)
(0 0 0)
(0 0 0)
(0 0 0)
(0 0 0)
(0 0 0)
(0 0 0)
(0 0 0)
(0 0 0)
(0 0 0)
(0 0 0)
(0 0 0)
(0 0 0)
(0 0 0)
(0 0 0)
(0 0 0)
(0 0 0)
(0 0 0)
(0 0 0)
(0 0 0)
(0 0 0)
(0 0 0)
(0 0 0)
(0 0 0)
(0 0 0)
(-0.0003487829518 0.0001898634131 1.290634266e-15)
(-0.0001987623126 0.0001166198477 7.21644966e-16)
(-0.0001626049113 0.0001022797482 5.967448757e-16)
(-0.005263162953 0.003654156102 2.124689313e-14)
(-0.005458759219 0.00353593708 2.203792704e-14)
(-0.01010292649 0.006914567908 4.29101199e-14)
(-0.009834815205 0.007213360801 4.179989688e-14)
(-0.02638303738 0.023309531 1.333239075e-13)
(-0.02681832983 0.0221171148 1.353916979e-13)
(-0.0318935975 0.02819111726 1.718486464e-13)
(-0.03142217746 0.02975510098 1.695310559e-13)
(-0.04057101392 0.04853809356 2.745720318e-13)
(-0.04105142621 0.04580341765 2.770839114e-13)
(-0.04151811209 0.05058654842 3.058803211e-13)
(-0.04106594113 0.05368650548 3.035488527e-13)
(-0.03498319765 0.06272673881 3.561040351e-13)
(-0.03526666961 0.05875222874 3.569783358e-13)
(-0.03117426401 0.05905096415 0)
(-0.03096776717 0.06322210024 3.599481824e-13)
(-0.0178348948 0.06264075852 0)
(-0.01794886068 0.06052627745 0)
(-0.0157611822 0.06043381178 0)
(-0.01564756836 0.06254497033 0)
(0.01875447578 0.06094468983 0)
(0.01866624684 0.05884953495 0)
(0.02085232444 0.05873577115 0)
(0.0209427067 0.0608277148 0)
(0.03608550811 0.05971898598 3.581857033e-13)
(0.03597902989 0.05572096375 3.59060004e-13)
(0.03950994426 0.0544103803 3.517602876e-13)
(0.03946761717 0.05814316692 3.497480083e-13)
(0.04259525799 0.04742847949 2.861044734e-13)
(0.04302958892 0.04468527857 2.898514762e-13)
(0.04149991306 0.03992548045 2.586542092e-13)
(0.04097212903 0.04228477735 2.547684286e-13)
(0.02902963453 0.02474182012 1.476874179e-13)
(0.02966536533 0.02355466255 1.510874759e-13)
(0.02407222126 0.01809763658 1.155603391e-13)
(0.02346396691 0.01893638267 1.125488591e-13)
(0.007069028735 0.004928157227 2.892130979e-14)
(0.007982242891 0.00518239117 3.26683125e-14)
(0.003805895889 0.00236275442 1.483535517e-14)
(0.003133080383 0.00208779281 1.221245327e-14)
(0 0 0)
(0 0 0)
(0 0 0)
(0 0 0)
(0 0 0)
(0 0 0)
(0 0 0)
(0 0 0)
(0 0 0)
(0 0 0)
(0 0 0)
(0 0 0)
(0 0 0)
(0 0 0)
(0 0 0)
(0 0 0)
(0 0 0)
(0 0 0)
(0 0 0)
(0 0 0)
(0 0 0)
(0 0 0)
(0 0 0)
(0 0 0)
(0 0 0)
(0 0 0)
(0 0 0)
(0 0 0)
(-0.0005725579998 0.0002149108378 2.109423747e-15)
(-0.0005171310337 0.0002159327092 1.90125693e-15)
(-0.0004536685596 0.0002085953676 1.665334537e-15)
(-0.006487335732 0.00329820757 2.617350781e-14)
(-0.0067087697 0.003099677716 2.706168623e-14)
(-0.01169833486 0.005719034205 4.964084699e-14)
(-0.01142002345 0.006140627552 4.847511281e-14)
(-0.02854085201 0.01852879195 1.436628594e-13)
(-0.02890344411 0.01707856381 1.453420717e-13)
(-0.03397429148 0.02151884067 1.82076576e-13)
(-0.03360818474 0.02338471236 1.803557304e-13)
(-0.04245760575 0.03718986666 2.842170943e-13)
(-0.04278525086 0.03409462233 2.856187509e-13)
(-0.04306618288 0.03738530426 3.130828929e-13)
(-0.04276266928 0.04082749528 3.119171588e-13)
(-0.03598539779 0.04658653293 3.583522368e-13)
(-0.03619911492 0.04249271002 3.585742814e-13)
(-0.03196110628 0.04245270896 0)
(-0.03176748239 0.04659207015 0)
(-0.01865757156 0.04596514891 0)
(-0.01875569981 0.04389408928 0)
(-0.0165740577 0.04379006762 0)
(-0.01647564165 0.04586111341 0)
(0.01800067835 0.04423176472 0)
(0.01790100503 0.04214856779 0)
(0.02008216194 0.04204245406 0)
(0.02018216826 0.04412457728 0)
(0.03546628978 0.04337113444 3.59906549e-13)
(0.03526571237 0.03922004967 3.599343046e-13)
(0.03918348155 0.03858207029 3.558126016e-13)
(0.03932372639 0.04262608143 3.552574901e-13)
(0.04408078096 0.03575921412 2.996630721e-13)
(0.04420660817 0.03248853734 3.014949401e-13)
(0.04318290625 0.02933823656 2.719213743e-13)
(0.04296024672 0.03223302512 2.69784195e-13)
(0.03194483936 0.01974734408 1.632860513e-13)
(0.0323824692 0.01812136978 1.657562976e-13)
(0.0268782183 0.01425295958 1.295075158e-13)
(0.02641209002 0.01546715921 1.271205363e-13)
(0.009150097514 0.004645156956 3.747002708e-14)
(0.009520771742 0.004382724752 3.899658374e-14)
(0.004909657133 0.002164341059 1.915134717e-14)
(0.0046287996 0.002249236801 1.806887973e-14)
(0 0 0)
(0 0 0)
(0 0 0)
(0 0 0)
(0 0 0)
(0 0 0)
(0 0 0)
(0 0 0)
(0 0 0)
(0 0 0)
(0 0 0)
(0 0 0)
(0 0 0)
(0 0 0)
(0 0 0)
(0 0 0)
(0 0 0)
(0 0 0)
(0 0 0)
(0 0 0)
(0 0 0)
(0 0 0)
(0 0 0)
(0 0 0)
(0 0 0)
(0 0 0)
(0 0 0)
(0 0 0)
(-0.0008446381427 0.000174595491 3.108624469e-15)
(-0.0007614867755 0.0001895043184 2.803313137e-15)
(-0.0006874552213 0.0002000583383 2.525757381e-15)
(-0.007260816615 0.002346060801 2.928213227e-14)
(-0.007484459052 0.002072224246 3.017031069e-14)
(-0.0126653358 0.003723737702 5.367928324e-14)
(-0.01238845252 0.004244925661 5.252742685e-14)
(-0.02981066161 0.01242337892 1.494221413e-13)
(-0.03016669611 0.0108296637 1.510319647e-13)
(-0.03525933313 0.01359819721 1.878774913e-13)
(-0.0348997446 0.01561028683 1.862399124e-13)
(-0.04365468746 0.02455918451 2.889771755e-13)
(-0.0439771761 0.02134664279 2.902816876e-13)
(-0.04418692125 0.02331521747 3.16940918e-13)
(-0.04388842051 0.02685387584 3.158584505e-13)
(-0.03681818577 0.03018724649 3.590461262e-13)
(-0.03702460121 0.02608116955 3.592126596e-13)
(-0.0327275961 0.02592978327 0)
(-0.03253670444 0.03005831424 0)
(-0.01943531315 0.0294321872 0)
(-0.01953180686 0.02736912595 0)
(-0.01735311559 0.02726572692 0)
(-0.01730467226 0.02829734426 0)
(-0.01725627044 0.0293280982 0)
(0.01718018498 0.02758556948 0)
(0.01707455832 0.02551054342 0)
(0.01925338702 0.02540800317 0)
(0.0193592692 0.02748234388 0)
(0.03463290134 0.02675890091 3.599204268e-13)
(0.03441366188 0.02261538338 3.598510379e-13)
(0.03826988756 0.02212841785 3.549660565e-13)
(0.03852779 0.02624344705 3.554517791e-13)
(0.04358290895 0.02197162676 3.00259817e-13)
(0.04327759066 0.0184565914 2.991773496e-13)
(0.04229314334 0.01665461425 2.693539836e-13)
(0.04259391244 0.01983114932 2.704919622e-13)
(0.03192043902 0.01226735475 1.641048408e-13)
(0.03167401057 0.01031938753 1.630640067e-13)
(0.02624069779 0.008128510463 1.269817584e-13)
(0.02646029085 0.009655387067 1.278976924e-13)
(0.009259161236 0.002953830844 3.796962744e-14)
(0.009136829776 0.002485316644 3.748390487e-14)
(0.004629923804 0.0012097426 1.808275751e-14)
(0.004715733282 0.001443448003 1.841582442e-14)
(0 0 0)
(0 0 0)
(0 0 0)
(0 0 0)
(0 0 0)
(0 0 0)
(0 0 0)
(0 0 0)
(0 0 0)
(0 0 0)
(0 0 0)
(0 0 0)
(0 0 0)
(0 0 0)
(0 0 0)
(0 0 0)
(0 0 0)
(0 0 0)
(0 0 0)
(0 0 0)
(0 0 0)
(0 0 0)
(0 0 0)
(0 0 0)
(0 0 0)
(0 0 0)
(0 0 0)
(0 0 0)
(-0.0012096898 4.60958577e-05 4.440892099e-15)
(-0.001110792023 8.913740074e-05 4.080069615e-15)
(-0.001015144416 0.0001242503066 3.719247132e-15)
(-0.008184354821 0.001130863331 3.297362383e-14)
(-0.008431157871 0.000775493017 3.397282455e-14)
(-0.01382587021 0.001378144615 5.85087534e-14)
(-0.01352512101 0.002004527583 5.72597525e-14)
(-0.03126104031 0.005827841161 1.55986335e-13)
(-0.03163972882 0.004086912552 1.576794251e-13)
(-0.03674302634 0.005174957658 1.945665851e-13)
(-0.03636239875 0.007336704016 1.928596172e-13)
(-0.04495925841 0.01152506637 2.942091015e-13)
(-0.04529428857 0.008191824109 2.955552469e-13)
(-0.04539873022 0.008906489447 3.212430322e-13)
(-0.04509190202 0.01254533425 3.201605647e-13)
(-0.03763506687 0.01373086369 3.596012377e-13)
(-0.03783529309 0.009607165259 3.596983822e-13)
(-0.03348721106 0.00940585397 0)
(-0.03329802681 0.01353687088 0)
(-0.02020466618 0.01291170687 0)
(-0.02030000501 0.010846667 0)
(-0.01812505972 0.01074335192 0)
(-0.01807715048 0.01177586032 0)
(-0.01802915453 0.01280817225 0)
(0.01632010287 0.01100993167 0)
(0.01620866676 0.008938069538 0)
(0.01838549103 0.008837837209 0)
(0.01849737913 0.01090910069 0)
(0.0336836506 0.01017969558 3.590183706e-13)
(0.03339898009 0.006043178654 3.582828478e-13)
(0.03688175242 0.005740601595 3.496647416e-13)
(0.03729920267 0.009807923626 3.516908986e-13)
(0.04152844575 0.007933422425 2.899347429e-13)
(0.04059528025 0.004539477543 2.842864832e-13)
(0.03954103731 0.004104180186 2.545325062e-13)
(0.04031006918 0.007127431972 2.588068648e-13)
(0.02928841283 0.004398386501 1.513789094e-13)
(0.02853290175 0.002606966094 1.476457845e-13)
(0.0231739 0.002069005227 1.125627369e-13)
(0.0238731656 0.003450936442 1.158656504e-13)
(0.007466082204 0.0009808424684 3.066991106e-14)
(0.007064771728 0.0005965335115 2.901845431e-14)
(0.003142561933 0.0002589401589 1.228184221e-14)
(0.003411581197 0.000433758143 1.33226763e-14)
(0 0 0)
(0 0 0)
(0 0 0)
(0 0 0)
(0 0 0)
(0 0 0)
(0 0 0)
(0 0 0)
(0 0 0)
(0 0 0)
(0 0 0)
(0 0 0)
(0 0 0)
(0 0 0)
(0 0 0)
(0 0 0)
(0 0 0)
(0 0 0)
(0 0 0)
(0 0 0)
(0 0 0)
(0 0 0)
(0 0 0)
(0 0 0)
(0 0 0)
(0 0 0)
(0 0 0)
(0 0 0)
(-0.001529074729 -0.0001994778508 5.606626274e-15)
(-0.001581294586 -0.0001395601204 5.800915304e-15)
(-0.001443436365 -6.660231138e-05 5.301314943e-15)
(-0.009238642954 -0.0004287184458 3.719247132e-14)
(-0.009554570949 -0.000883463765 3.845535002e-14)
(-0.01517959857 -0.001425443202 6.414313525e-14)
(-0.01480138724 -0.0006748387072 6.257494523e-14)
(-0.0328501688 -0.00136845489 1.630778845e-13)
(-0.03330993519 -0.003273449462 1.651456749e-13)
(-0.03841110605 -0.003869622494 2.020467127e-13)
(-0.03795448387 -0.001543705534 1.999928001e-13)
(-0.04634081519 -0.001986930937 2.997047055e-13)
(-0.0467214168 -0.005445515147 3.012451399e-13)
(-0.04668726354 -0.005894419514 3.258227022e-13)
(-0.04634804692 -0.002154525868 3.24587579e-13)
(-0.03842538405 -0.002773641592 3.59906549e-13)
(-0.0386186975 -0.006903945542 3.599343046e-13)
(-0.03424054705 -0.007113473335 0)
(-0.03405227232 -0.002983374236 0)
(-0.02096104434 -0.003606897254 0)
(-0.02105455123 -0.005671832885 0)
(-0.01888370798 -0.005774469981 0)
(-0.01883674422 -0.004741627661 0)
(-0.01878972143 -0.003709557412 0)
(0.01541462165 -0.00552400409 0)
(0.01529746925 -0.007588764455 0)
(0.01747360907 -0.007687233101 0)
(0.017591433 -0.005622505022 0)
(0.03241154336 -0.006210530074 3.545913563e-13)
(0.03201127563 -0.01020798184 3.525235659e-13)
(0.03496280643 -0.009933827602 3.386596559e-13)
(0.03551872553 -0.006130253548 3.422540029e-13)
(0.03798039241 -0.004873510864 2.682576383e-13)
(0.03728195506 -0.00780973779 2.640804242e-13)
(0.03548276049 -0.006754208943 2.30412911e-13)
(0.0366440472 -0.004267373794 2.374905828e-13)
(0.02517868908 -0.002142256096 1.3067325e-13)
(0.02359556219 -0.003391770674 1.225131108e-13)
(0.01833161154 -0.002407066365 8.926193118e-14)
(0.01991916345 -0.001520413942 9.696410341e-14)
(0.005012247127 -0.0002815665675 2.059463711e-14)
(0.004377517109 -0.0004512294933 1.7985613e-14)
(0.001422502382 -0.0001372678684 5.564992911e-15)
(0.001790402775 -9.26471621e-05 6.994405055e-15)
(0 0 0)
(0 0 0)
(0 0 0)
(0 0 0)
(0 0 0)
(0 0 0)
(0 0 0)
(0 0 0)
(0 0 0)
(0 0 0)
(0 0 0)
(0 0 0)
(0 0 0)
(0 0 0)
(0 0 0)
(0 0 0)
(0 0 0)
(0 0 0)
(0 0 0)
(0 0 0)
(0 0 0)
(0 0 0)
(0 0 0)
(0 0 0)
(0 0 0)
(0 0 0)
(0 0 0)
(0 0 0)
(-0.002719391829 -0.0008121484892 9.978129434e-15)
(-0.00247904326 -0.000635725734 9.103828802e-15)
(-0.002121449302 -0.0004550074561 7.78543896e-15)
(-0.01057104505 -0.002435417318 4.249378627e-14)
(-0.01136130857 -0.003135734342 4.565792189e-14)
(-0.01725836401 -0.004939221348 7.27334859e-14)
(-0.01628666679 -0.003884566244 6.869504965e-14)
(-0.03486314394 -0.009307323318 1.720845688e-13)
(-0.03554283305 -0.01147023636 1.751376821e-13)
(-0.04052180864 -0.01371761008 2.115668751e-13)
(-0.03994170417 -0.0111625529 2.089439732e-13)
(-0.04795560305 -0.01605090672 3.063244103e-13)
(-0.04820668695 -0.01960468922 3.070044219e-13)
(-0.04814768088 -0.02115932335 3.312211616e-13)
(-0.04776904541 -0.01729428852 3.298056273e-13)
(-0.03919280647 -0.01929206619 0)
(-0.03938672277 -0.02342150944 0)
(-0.03500193123 -0.02363020216 0)
(-0.0349053914 -0.02156618158 0)
(-0.03480941794 -0.01950194146 0)
(-0.02170444855 -0.02012564435 0)
(-0.02175084963 -0.02115678295 0)
(-0.02066512176 -0.02120773161 0)
(-0.02061883045 -0.02017687619 0)
(-0.002880398559 -0.02127603588 0)
(-0.002917084418 -0.02178965876 0)
(-0.002950317483 -0.0223035438 0)
(-0.001886780455 -0.02234256015 0)
(-0.001815257983 -0.02131589856 0)
(0.01443043428 -0.02201502112 0)
(0.01429777218 -0.02407038195 0)
(0.01416427437 -0.02612512566 0)
(0.01852933979 -0.02632411997 0)
(0.01879089587 -0.02221177485 0)
(0.01661147128 -0.02211362906 0)
(0.03062675518 -0.0217373814 3.438499485e-13)
(0.03001165889 -0.02529108823 3.389510894e-13)
(0.03226305799 -0.02386664787 3.186617636e-13)
(0.03318127055 -0.02073570046 3.263084247e-13)
(0.0340064431 -0.01542211706 2.425143419e-13)
(0.03275878361 -0.01753008171 2.340627692e-13)
(0.0305245641 -0.01487773245 1.995070775e-13)
(0.03182639331 -0.01314375918 2.077227279e-13)
(0.01954904003 -0.006262427832 1.016686735e-13)
(0.01837149114 -0.006969705227 9.559020242e-14)
(0.01346936883 -0.004744227059 6.566969191e-14)
(0.01450770135 -0.004306801515 7.069345109e-14)
(0.002070570502 -0.0005042767498 8.507083926e-15)
(0.001683276416 -0.000489105829 6.925016116e-15)
(0.0001335062724 -3.680476294e-05 5.273559367e-16)
(0.0002550663271 -5.886364071e-05 9.992007222e-16)
(0 0 0)
(0 0 0)
(0 0 0)
(0 0 0)
(0 0 0)
(0 0 0)
(0 0 0)
(0 0 0)
(0 0 0)
(0 0 0)
(0 0 0)
(0 0 0)
(0 0 0)
(0 0 0)
(0 0 0)
(0 0 0)
(0 0 0)
(0 0 0)
(0 0 0)
(0 0 0)
(0 0 0)
(0 0 0)
(0 0 0)
(0 0 0)
(0 0 0)
(0 0 0)
(0 0 0)
(0 0 0)
(-0.002579154397 -0.001211229922 9.506284648e-15)
(-0.002914807903 -0.001244796966 1.074140776e-14)
(-0.003114679229 -0.001197921837 1.147693052e-14)
(-0.01259347509 -0.005235893806 5.079270338e-14)
(-0.01218960776 -0.005634825766 4.915512442e-14)
(-0.01822001114 -0.008767325572 7.702172233e-14)
(-0.01870294983 -0.008088272772 7.907563493e-14)
(-0.03725431456 -0.01835036547 1.837974217e-13)
(-0.03667511459 -0.02013902001 1.80772064e-13)
(-0.04164405304 -0.02406124979 2.172151348e-13)
(-0.04220014456 -0.02186454924 2.20407026e-13)
(-0.04944445579 -0.03089129989 3.142763827e-13)
(-0.04912152559 -0.03420505128 3.114314362e-13)
(-0.04873254035 -0.03664904291 3.334693632e-13)
(-0.04893176113 -0.03304149108 3.358563427e-13)
(-0.03948528743 -0.03587364638 0)
(-0.03968384078 -0.04000353978 0)
(-0.03528687135 -0.04021493337 0)
(-0.03518761774 -0.03815046633 0)
(-0.03508831801 -0.03608503997 0)
(-0.02189760158 -0.03671921152 0)
(-0.02199690132 -0.03878463788 0)
(-0.01979851253 -0.03889033006 0)
(-0.01974883961 -0.03785713722 0)
(-0.0196992128 -0.0368249037 0)
(-0.02079840719 -0.03677205761 0)
(-0.004310014817 -0.03756477188 0)
(-0.004359639785 -0.03859700549 0)
(-0.004409311793 -0.03963019838 0)
(-0.002210855461 -0.03973589381 0)
(-0.002111555728 -0.03767046745 0)
(0.01327757826 -0.03841033256 0)
(0.01307902491 -0.04254022595 0)
(0.01742400746 -0.0425851661 3.585742814e-13)
(0.01766349349 -0.03859056076 3.596706266e-13)
(0.0282318717 -0.03530647431 3.24656968e-13)
(0.02747611224 -0.03814820018 3.177180741e-13)
(0.02915292758 -0.03525879306 2.931682674e-13)
(0.03004515337 -0.03278868035 3.008981952e-13)
(0.02849084626 -0.02222065 2.04378181e-13)
(0.02733094885 -0.02356510457 1.963429419e-13)
(0.02449794531 -0.01921119638 1.605798827e-13)
(0.0261689551 -0.0185895273 1.715017017e-13)
(0.01387391535 -0.00770625446 7.219225218e-14)
(0.01209649554 -0.007423101627 6.293576771e-14)
(0.008236215298 -0.004714944185 4.014844013e-14)
(0.009382915015 -0.004854203563 4.574118861e-14)
(0.0003466539383 -0.0001496058912 1.429412144e-15)
(0.0001565879236 -7.496966978e-05 6.383782392e-16)
(0 0 0)
(0 0 0)
(0 0 0)
(0 0 0)
(0 0 0)
(0 0 0)
(0 0 0)
(0 0 0)
(0 0 0)
(0 0 0)
(0 0 0)
(0 0 0)
(0 0 0)
(0 0 0)
(0 0 0)
(0 0 0)
(0 0 0)
(0 0 0)
(0 0 0)
(0 0 0)
(0 0 0)
(0 0 0)
(0 0 0)
(0 0 0)
(0 0 0)
(0 0 0)
(0 0 0)
(0 0 0)
(0 0 0)
(0 0 0)
(-0.0006021597104 -0.0003857031125 2.220446049e-15)
(-0.001092754982 -0.0006532154099 4.024558464e-15)
(-0.001623680632 -0.0009011370075 5.981326545e-15)
(-0.009337323753 -0.005632474091 3.76781939e-14)
(-0.007975320584 -0.005189456006 3.219646771e-14)
(-0.01301605535 -0.00884190275 5.50948176e-14)
(-0.01472896625 -0.009268544622 6.229738947e-14)
(-0.03214769974 -0.02320142057 1.583871923e-13)
(-0.0297922111 -0.02325233865 1.468963839e-13)
(-0.034720751 -0.0285422264 1.81035742e-13)
(-0.03712395459 -0.02821166761 1.934286065e-13)
(-0.04574239843 -0.041801184 2.887551309e-13)
(-0.04373303631 -0.04321004057 2.760708329e-13)
(-0.04435455825 -0.04718369058 3.015643291e-13)
(-0.04607027889 -0.04535992063 3.133882043e-13)
(-0.03979837243 -0.05185057143 3.560624018e-13)
(-0.03926067024 -0.05504538609 3.501920975e-13)
(-0.03573755128 -0.05627192843 3.569089468e-13)
(-0.03585870263 -0.05257630225 3.597400156e-13)
(-0.02269190721 -0.05324070375 0)
(-0.02289050667 -0.05737155647 0)
(-0.01849363318 -0.05758294545 0)
(-0.01829503371 -0.05345209273 0)
(-0.02049351842 -0.05334639593 0)
(-0.005104317286 -0.05408626427 0)
(-0.005302916753 -0.05821711699 0)
(-0.0009060144761 -0.05842850735 0)
(-0.0007074150096 -0.05429765463 0)
(0.01241154225 -0.05443738385 3.567424134e-13)
(0.01209676735 -0.0576132226 3.511912983e-13)
(0.01601742164 -0.05602170227 3.404221349e-13)
(0.01648427342 -0.05337801957 3.485822742e-13)
(0.02507601172 -0.04501056596 2.918498776e-13)
(0.02399540536 -0.04623288351 2.792488463e-13)
(0.02483934279 -0.0414775699 2.503830476e-13)
(0.02611344273 -0.0406547558 2.634281682e-13)
(0.0226353074 -0.02498634339 1.624533841e-13)
(0.02104346277 -0.02490156841 1.508376757e-13)
(0.01795920451 -0.01933398372 1.174199626e-13)
(0.01953183272 -0.01960971571 1.278560591e-13)
(0.007751857039 -0.006112316268 4.027334022e-14)
(0.006662972857 -0.005642353576 3.458344722e-14)
(0.003415403072 -0.002703762454 1.662558979e-14)
(0.00463720926 -0.003418316397 2.259303855e-14)
(0 0 0)
(0 0 0)
(0 0 0)
(0 0 0)
(0 0 0)
(0 0 0)
(0 0 0)
(0 0 0)
(0 0 0)
(0 0 0)
(0 0 0)
(0 0 0)
(0 0 0)
(0 0 0)
(0 0 0)
(0 0 0)
(0 0 0)