/*--------------------------------*- C++ -*----------------------------------*\
| =========                 |                                                 |
| \\      /  F ield         | OpenFOAM: The Open Source CFD Toolbox           |
|  \\    /   O peration     | Version:  v1912                                 |
|   \\  /    A nd           | Website:  www.openfoam.com                      |
|    \\/     M anipulation  |                                                 |
\*---------------------------------------------------------------------------*/
FoamFile
{
    version     2.0;
    format      ascii;
    class       volScalarField;
    location    "2.9";
    object      p;
}
// * * * * * * * * * * * * * * * * * * * * * * * * * * * * * * * * * * * * * //

dimensions      [0 2 -2 0 0 0 0];


internalField   nonuniform List<scalar> 
12556
(
913.9989661
912.6978517
909.5767264
903.2235691
894.3424175
875.6075548
845.2833835
797.428186
726.5080247
626.1633518
492.5560574
327.3506011
139.7620293
-52.94524346
-232.3331215
-385.7121994
-508.3025829
-601.1112198
-668.330569
-714.7305256
-753.0190996
-770.1217478
-779.927104
-784.406574
914.814227
913.937789
911.666187
906.8358736
898.0026965
881.926835
854.9251372
816.0057603
751.7909537
657.9322112
528.4016537
362.0676439
168.2296724
-33.60817325
-223.6803891
-384.6544198
-511.0432284
-605.2868771
-679.4946998
-722.665319
-760.0286437
-774.8335699
-783.3913451
-787.2929058
916.7322438
916.7931226
916.5051758
915.0016638
908.6761372
898.6778766
879.744968
845.8367653
791.1902426
704.6109456
572.9806878
391.7856485
172.2957636
-55.68668905
-261.490736
-428.5958502
-553.1236994
-640.0539454
-710.0158455
-745.006615
-776.10188
-786.0494181
-791.8265617
-794.3546653
919.0091313
920.3962367
922.9466476
925.933115
924.4825339
923.0821212
916.7026304
894.678361
858.0819202
785.0417817
655.4055046
451.9115308
180.4496974
-108.2167994
-347.8354129
-516.7278613
-629.8801372
-702.8281859
-756.9502204
-778.5888127
-798.8503921
-802.4416084
-804.0254723
-804.5398936
920.268495
923.1736098
929.0163557
937.3177704
941.8100352
951.7772007
961.5091084
959.4253826
949.3842832
906.4882432
800.6404846
578.1462615
203.8439213
-212.210509
-509.2065754
-671.9759078
-750.4550828
-789.8318151
-817.6304017
-820.8371875
-825.1953013
-820.8953082
-817.4225462
-815.5590548
919.0091512
923.4261507
932.5344527
946.5060737
957.4744255
980.0645782
1008.410391
1030.477428
1059.512192
1075.274631
1046.015463
855.0035135
265.280788
-453.4568051
-811.8094464
-911.1093274
-914.6543522
-898.409283
-887.1448614
-866.6433124
-851.5407141
-838.4394943
-829.4228403
-825.046828
913.7907433
919.5284415
931.394334
950.2763258
968.6294704
1002.319674
1048.22398
1095.209358
1167.148816
1262.499109
1398.01366
1508.83205
491.8644303
-1170.225555
-1342.584471
-1235.692324
-1110.3657
-1016.357385
-956.3653749
-909.6656785
-874.1251859
-851.7241298
-837.4479525
-830.7252889
903.3742945
910.0545843
923.8615078
946.1312617
970.8654117
1012.763282
1071.107269
1138.592091
1243.23463
1400.06531
1679.254363
2258.822168
-3006.644456
-2080.73269
-1590.132276
-1298.128476
-1122.692732
-1012.022203
-942.1829044
-886.9168533
-857.2763897
-838.9782549
-830.312615
886.8329306
893.949485
908.6288935
932.394891
961.7751264
1007.518788
1071.296729
1149.847268
1265.988401
1428.857511
1673.562698
1990.902825
-4392.684727
-2583.268866
-1826.759148
-1420.574214
-1189.250643
-1041.325436
-956.0571467
-886.3661052
-852.4080357
-831.7871017
-821.9630882
863.6840892
870.6840097
885.0688737
908.2841658
940.1779641
985.1574673
1047.063803
1125.749144
1233.098661
1370.708079
1539.295878
1698.650853
-3985.204352
-2538.772288
-1833.311567
-1427.059145
-1194.99366
-1035.691009
-946.7939849
-870.172008
-835.5648582
-814.6032586
-804.5738233
833.953013
840.3294086
853.3399026
874.063754
906.5104711
946.7203658
1001.144147
1072.859051
1163.09906
1270.159912
1388.696369
1496.773708
-2951.601996
-2117.198234
-1640.558436
-1334.437233
-1140.77448
-994.4927347
-913.7348648
-838.2398535
-806.6129691
-787.2804741
-777.9642866
798.1298521
803.4691502
814.3345311
830.7189362
862.8368306
894.8150694
937.9043402
998.3326906
1068.468175
1147.732128
1234.340793
1336.056393
-1903.504841
-1565.186022
-1342.861413
-1168.846708
-1039.775955
-924.217559
-860.3434934
-792.4979607
-766.909961
-750.7349429
-742.8690929
757.1184697
761.1499669
769.4926732
781.3141611
809.2672556
832.5679715
861.9414026
909.2674767
957.8515037
1009.241638
1061.968561
1150.475286
-719.0269037
-960.7182241
-1045.481548
-1031.980532
-977.7941202
-914.3150345
-835.8002598
-792.2574044
-737.1998462
-718.941558
-706.7117282
-700.7573694
712.0249475
714.6529552
720.2821901
727.8469643
750.448922
764.7470483
780.3124772
812.676194
839.4581202
860.9456768
868.734389
893.410537
295.280523
-380.5790625
-653.4817222
-767.4797298
-796.1945501
-782.5700694
-740.6930384
-716.4297131
-676.8457133
-665.4669263
-657.3954865
-653.5312382
664.0916785
665.2464989
667.8285518
670.9190103
688.4490963
693.1679681
695.9687014
711.3393659
716.8345783
710.2884247
672.9748737
564.599624
263.3443879
-140.7758428
-415.5266914
-570.8334325
-640.9382161
-659.716947
-646.3661082
-639.4679298
-614.0996484
-609.0330227
-605.0484767
-603.1982217
614.5636
614.3688752
614.0604912
612.9953572
625.7391951
622.2970389
614.656459
613.7964947
599.4321534
571.2721435
511.377852
403.6925209
196.2128295
-70.74353083
-290.1799886
-436.7041529
-516.7497497
-552.2946828
-559.1804771
-565.3096124
-551.7729919
-552.1033614
-551.7389092
-551.6311587
564.6495056
563.3386847
560.6322911
556.1402145
564.3881276
554.4806099
538.7391678
525.495293
493.6176835
449.1841545
381.7041731
281.6376361
123.7765707
-59.40252279
-224.298385
-344.6862686
-418.6800415
-462.0887875
-481.3506203
-496.35413
-492.1343115
-496.6949534
-499.2030007
-500.4292208
515.418814
513.2393338
508.6672638
501.5596284
506.0092479
491.4365935
470.2320342
450.3939469
407.6645187
352.7931681
281.3376495
194.810538
70.67392449
-62.23247417
-182.4446141
-274.9989881
-340.4276018
-386.7194745
-413.4262039
-433.8103381
-436.5235993
-444.06348
-448.6889668
-450.8720716
467.7079724
464.8945239
458.9606905
450.0082923
451.5596239
434.0110316
409.6604775
386.6421058
342.6906964
286.2390724
215.5276035
140.2966039
41.32253858
-57.65925633
-146.3695719
-220.9706942
-280.3259322
-325.5956435
-355.2420675
-378.2479947
-385.5436885
-394.9600316
-400.9858832
-403.8554612
422.1305711
418.9057185
412.0870174
401.9833871
401.4901969
382.3685786
356.5693079
332.7338721
290.2676791
238.4730925
176.9933489
112.4602324
32.79288056
-45.31479165
-117.6360768
-180.8672171
-233.4999754
-275.749196
-305.7483645
-329.4076615
-339.4150932
-349.817244
-356.6412248
-359.89197
379.1035781
375.664112
368.3860849
357.7223347
355.8844158
336.2735448
310.4111986
287.0593209
247.380163
200.9658022
148.0973834
92.30206693
27.5370258
-36.49316538
-96.50579624
-150.2225836
-196.3580819
-234.7161762
-263.6495341
-286.6874095
-298.0372782
-308.7436494
-315.8827869
-319.2891263
338.8723692
335.376511
327.9845159
317.2417721
314.5705427
295.278012
270.3540816
248.1504675
211.8755892
170.7078881
124.8987684
77.17114181
23.20373094
-30.0578185
-80.37690074
-126.1600417
-166.3653792
-200.6438949
-227.6644669
-249.3788761
-261.1127314
-271.6315468
-278.7318131
-282.1253752
301.5327149
298.0997033
290.8504493
280.3865479
277.2922274
258.8541631
235.5119445
214.8121088
182.1236296
145.8098009
106.1165155
65.11906267
19.65281798
-25.13907582
-67.66866404
-106.8092824
-141.7401732
-172.0907874
-196.7356171
-216.7675513
-228.2397809
-238.2455005
-245.0668253
-248.3315961
267.0627467
263.7791257
256.8541263
246.9168316
243.7087451
226.4686078
204.9807889
186.0550189
156.9023596
124.9919796
90.62747162
55.2853741
16.71445019
-21.23419861
-57.38269545
-90.91984441
-121.2059794
-147.8969224
-170.0278592
-188.1979566
-198.9930885
-208.2875123
-214.6760249
-217.7364355
235.3581372
232.2841182
225.8069767
216.5582168
213.4635163
197.6192525
178.1170217
161.067564
135.2819821
107.3450622
77.62005155
47.11555054
14.25388912
-18.04107118
-48.87003537
-77.63717933
-103.8434634
-127.1866238
-146.8214576
-163.0889787
-172.9585646
-181.43362
-187.2976896
-190.1080715
206.2594409
203.4339241
197.4834157
189.0207927
186.1968595
171.8422967
154.3535325
139.192069
116.5486196
92.19513253
66.53889309
40.22006802
12.16905445
-15.36791317
-41.69259914
-66.35944438
-88.97676867
-109.286564
-126.5279483
-140.933048
-149.7447078
-157.3543686
-162.647438
-165.184195
179.5681486
177.0134748
171.6341783
164.0082558
161.5671677
148.7274211
133.2174217
119.899
100.1570963
79.04095523
56.97083462
34.31658055
10.38220827
-13.08783019
-35.5458412
-56.65374497
-76.10232797
-93.67511617
-108.6661811
-121.2943431
-128.9870001
-135.7263022
-140.4332113
-142.688287
155.0604772
152.7870009
147.9988174
141.2275285
139.246918
127.9038946
114.3017848
102.7511978
85.6777741
67.49493493
48.60507191
29.19424854
8.832538653
-11.11308834
-30.20966055
-48.19804374
-64.83373647
-79.93787151
-92.83459244
-103.7925094
-110.350921
-116.2402096
-120.3661421
-122.3415672
132.5003892
130.5104937
126.3167593
120.3963249
118.9323149
109.0428428
97.26286514
87.38407401
72.76692337
57.25336652
41.20259931
24.69267525
7.471765746
-9.381071171
-25.52063844
-40.74758678
-54.86948544
-67.74193198
-78.69879283
-88.09896139
-93.53297487
-98.60692553
-102.1690798
-103.8728106
111.6483286
109.939195
106.3326925
101.2461173
100.3391524
91.84725817
81.83426409
73.48658403
61.14315784
48.0715346
34.57698482
20.68610132
6.260320425
-7.844858793
-21.35245572
-34.1097656
-45.96635683
-56.80750565
-65.9770697
-73.92613063
-78.25846696
-82.55809065
-85.57997105
-87.02319214
92.2586948
90.82562585
87.7939674
83.5138889
83.21099761
76.04514116
67.73568296
60.81381639
50.57505742
39.74935744
28.57783471
17.07242859
5.165332231
-6.468053527
-17.60488132
-28.13024066
-37.92753646
-46.89507669
-54.42354263
-61.02041281
-64.27264253
-67.84215563
-70.34928195
-71.54370097
74.11635452
72.95133946
70.48001544
66.97971177
67.28949866
61.39078273
54.6557203
49.16174777
40.86575663
32.11871949
23.07912411
13.76725571
4.158883968
-5.221597655
-14.19615352
-22.68243934
-30.59442467
-37.84797716
-43.79966509
-49.15160766
-51.36177007
-54.24105681
-56.25889401
-57.2177137
56.90374856
56.00921591
54.09260305
51.33344045
52.40586357
47.66258992
42.34786865
38.31392551
31.83383414
25.02872475
17.96760579
10.6980971
3.216517224
-4.081078746
-11.05631001
-17.65628347
-23.82395808
-29.51069413
-33.92468474
-38.11300176
-39.25463468
-41.49441571
-43.04128478
-43.76885042
40.71144307
40.0596932
38.6817222
36.70771775
38.07336149
34.65403395
30.7280275
28.07588122
23.31471268
18.3418702
13.14179074
7.80047196
2.316851618
-3.024931297
-8.123998165
-12.95387698
-17.48207123
-21.67841947
-24.65631802
-27.693806
-28.0096028
-29.59375451
-30.69092277
-31.21370295
24.18024375
23.86185249
23.04283685
21.85241471
24.42056938
22.19286526
19.59137808
18.28598761
15.15769259
11.92657877
8.504722515
5.015075503
1.442128683
-2.032296119
-5.343726071
-8.487450666
-11.45027726
-14.22275528
-15.81843202
-17.8108239
-16.70105282
-17.65168499
-18.29719864
-18.54794899
12.04061375
11.74687787
11.32287403
10.66728379
11.10749344
9.957372692
8.704893505
8.801547003
7.218324778
5.636807461
3.949041245
2.296636022
0.5820175374
-1.080275271
-2.664802295
-4.17905981
-5.620954989
-6.996438041
-7.177128246
-8.087635312
-8.178613072
-8.645526607
-8.952907185
-9.181402621
2039.84085
-4723.004257
-3203.280821
1728.293938
-4348.687272
-4764.916389
1518.45456
-3213.809649
-4227.689682
1356.477495
-2074.874639
-3065.138176
1164.720073
-770.3619611
-813.8206092
-1073.129085
-1940.764101
922.6557633
382.2073458
-722.4362654
244.0698211
-389.0352644
-961.8719006
2211.557264
736.7834678
-2831.364926
-974.3415048
-6409.463484
-4239.340284
-4343.176649
-2781.841877
-2254.473179
1576.105014
1711.350233
1951.576704
-6215.641342
-6654.024996
-4088.081139
-2862.440706
-2869.558292
1426.460982
1507.810913
1682.862876
1615.511916
1648.829847
1756.913679
-4487.133521
-5369.436016
-3086.999822
-2420.693008
-2786.591428
1273.944383
1342.809773
1485.895906
1435.52697
1473.106916
1538.850382
-2917.237842
-3578.212595
1107.346596
1160.300377
1322.140348
1262.231768
1321.792244
1396.925213
-1582.775641
-1554.471416
-2131.10848
917.8251142
923.1476453
1133.87711
1050.429086
1098.051535
1215.154704
633.3516698
377.9386208
395.5145314
2548.213018
2127.854627
3015.722893
2629.779673
-6673.823884
-6459.945752
-4354.693588
-6167.46737
-6501.038953
1771.745258
1881.402307
1826.516296
1885.785554
1775.167841
2088.597187
1904.216991
-5423.307166
-6176.341207
-4580.443968
-6042.821967
-5332.084141
-6484.709834
-6080.558481
-4620.700021
1549.473709
1634.501611
1589.636387
1642.064881
1550.886334
1767.390571
1649.970353
-3676.727351
-4425.40097
-3660.261896
-4319.015204
-3605.224159
-5279.165199
-4431.43696
-3807.764172
1402.07607
1469.201059
1415.886231
1472.601197
1406.373254
1545.21158
1476.276818
-2215.94953
-2826.661574
1222.076576
1316.462946
1250.321462
-1535.85735
1321.786382
1227.230384
1401.097877
1327.172423
-1577.455746
-976.0709362
-1475.45489
-1531.794585
1056.528115
1089.251765
1033.749362
6.310846066
1094.869335
964.2737543
1220.334418
1102.874955
-68.36990124
1695.348118
1992.599192
2139.007291
2233.908552
2577.507141
2864.990319
-8298.509029
-5452.928962
1863.23065
1900.239678
2087.955597
-3492.551278
-2029.64774
-1789.033732
-2270.275802
-1995.654216
-1948.661768
-2251.930406
-125.4524846
-450.7609693
-832.6771868
2126.011966
2507.983022
2191.635732
2254.281257
3897.969872
3452.089335
-4012.680085
-6036.686136
-4135.688495
-2301.816219
-2629.618261
-2489.412041
-2783.275963
-2190.946925
-3510.416762
-2871.113276
-2630.986746
-1123.566027
-240.2502461
-407.7660305
1127.610041
2106.29891
2964.168072
-3738.912959
-1203.293187
785.1328369
-8390.94682
-5853.091751
-8045.160152
-5172.305624
-7895.796934
-5521.684429
-6421.320217
-6453.04197
-4902.734091
-4962.620633
-3077.388519
-3415.418489
-3193.87125
-3396.957314
-3049.845259
-3834.312988
-3449.359306
-3288.488207
1357.114361
1327.3272
1294.770923
-1579.98534
-1856.573319
-1912.729782
1157.673176
1123.824855
1074.787248
1181.797926
1138.936256
1164.754677
2607.426696
2291.675074
2333.027007
2299.784917
2627.008266
2086.816536
2264.755289
2273.635717
2952.942852
3383.286104
3745.368916
2692.549431
3287.626452
2881.144272
3336.515789
2686.124451
-6689.538959
-6682.759096
1832.598609
1898.233566
1824.807183
1993.758497
1973.590525
2072.552895
1903.862029
1963.039348
1968.232367
-5774.41935
-5821.674769
-5721.110649
-5118.017366
-5301.178497
-4821.344144
-5048.9492
-5674.738431
-6318.670147
-5509.197844
-5551.081211
-5353.013036
-5479.332704
-6288.578406
1596.018629
1589.450465
1712.937118
1704.320535
-3985.255646
-3877.296573
-4039.436687
1442.550859
1437.859324
1509.617167
1505.100884
-2996.974826
-2656.862304
-2560.477261
-2675.815593
-3018.057779
1264.224402
1234.374599
1195.248331
1283.316098
1247.1002
1271.736791
-1173.902542
1275.873966
1267.87756
1365.60868
1361.24798
-1919.426752
-1177.090962
-1218.220834
-1488.941955
1056.777697
1001.093862
957.7882933
979.2202631
522.343716
234.0311364
1170.627474
-227.651655
192.3905554
-141.7926672
1164.21582
-317.1242697
-177.0893963
159.5253778
-6961.182846
-2152.006012
-2311.463042
719.1192016
667.215888
888.4009895
776.993531
801.1545001
1004.784639
275.5346463
-81.92374547
-273.8402344
4765.181596
-2344.462324
-2520.464113
-872.8573283
-1129.279499
-1128.146412
-96.47857759
-344.7223537
-54.04998295
1712.315784
2799.200185
3835.367284
-4794.98909
-1534.974966
782.3199101
-6314.077525
-7195.088429
-7059.479941
-6577.128341
-4662.881728
-4856.649364
-4650.857502
-5639.343151
-5459.490222
-5200.76187
1502.691819
1482.55687
1454.198611
1523.181158
1492.375034
1507.529171
1368.357632
1337.734122
1361.733124
1124.36176
1110.2717
1083.249406
911.4610628
699.1336073
434.1038131
-6692.348932
-7233.492864
-7247.452141
-6490.845001
-5407.944759
-5140.354394
-5546.304314
-5462.5378
-6492.391677
-5579.879726
-5865.659839
-5701.277819
-6036.733792
1583.004166
1567.812812
1533.922643
1557.402492
1572.057869
1566.520012
-4586.522148
-4394.615347
-4256.024161
-4000.276441
-3752.696101
-4023.482445
-4890.035049
-4479.465357
-4739.207925
-4114.988725
-4389.490147
-4832.663353
1434.293125
1407.47984
1378.348488
1444.948434
1417.001404
1438.935368
1461.010122
1474.744551
1482.815869
1418.988901
1438.97622
1421.27492
1529.706775
1535.047412
1552.040842
1485.132454
1494.120667
1487.761808
-2473.587825
-2610.45907
-2296.746766
-1367.892017
-1379.552766
1304.628995
1237.705633
1384.860623
1392.930066
1414.251131
1360.910557
1341.99514
-1714.213867
818.531072
984.8389656
945.6882173
1073.583993
1040.712551
1053.108884
201.1572075
431.8632607
197.80843
1061.003084
478.7795769
744.14448
559.6273076
606.1669556
1194.683619
1129.623026
-7619.24828
-6713.889808
-7257.317718
-3638.399215
-3705.259833
-1962.019161
-2103.814217
-2111.188112
2174.937008
2150.348024
3852.110509
4362.382429
4504.58366
4197.483256
3775.876511
-2703.626872
-2525.353084
-2485.677353
-2525.790452
-2721.183372
-1128.832737
-951.4529789
-970.0112705
-953.7793467
-1129.319567
-730.8111103
-904.8805525
-487.7539187
-519.1410583
-681.976393
-310.9183417
-466.2898901
-387.2248405
-8305.275035
-7213.853013
-6776.789171
-7504.385476
-7313.534433
-6594.266579
-5875.974195
-7087.199767
-6811.007637
-6698.037113
-6339.259176
-6547.865308
-7007.784276
-6858.791237
-5121.012535
-4924.189426
-4723.301983
-4982.552702
-5187.162467
-4712.983846
-4920.506191
-5253.431463
-5142.092646
-5401.87046
-5188.895926
-3219.686818
-3284.418558
-3253.929508
-3172.613069
-3316.898843
-3679.233225
-3569.993139
-3724.882528
-3365.103637
-3518.976061
-3622.387053
-1784.426885
-1765.704834
-1910.738577
1142.599809
1118.915587
1129.869756
1183.547449
1171.789851
1150.510395
2450.564585
2406.577248
2416.794721
2435.057028
2320.77981
2622.472473
2477.974478
2462.753466
2155.002262
2174.324014
2108.477773
2287.087404
2199.538944
2180.799854
2920.038873
2853.329287
2680.449316
3028.01348
2929.618936
-7330.843707
-7246.404265
-6695.556255
-7426.340199
-7558.869013
-7381.50733
-7560.061678
-7564.782342
-7612.150565
-7548.393188
-6624.367219
-7310.117805
-7361.639976
1863.240318
1862.631835
1842.444566
1895.579995
1870.720891
1873.087927
1813.388935
1795.561411
1837.135181
1819.139702
2010.339495
2024.639774
1984.905902
2089.892181
2039.544437
2023.544079
1929.91266
1931.680901
1903.969772
1973.117629
1941.610097
1940.223499
-6066.838405
-5918.325362
-5630.116241
-5980.953891
-6286.384035
-6108.97409
1620.635639
1602.24224
1649.308059
1626.080756
1573.403415
1559.833119
1595.337373
1577.753709
1754.174017
1727.033395
1788.7162
1763.201155
1681.901265
1656.351636
1718.000266
1691.047872
-3983.503813
-4155.332127
-3778.694813
-3933.529111
-4025.65026
-4444.527709
-4641.94467
-4209.569657
-4385.458262
1452.655775
1470.098019
1456.687997
1475.603403
1455.188255
1485.82892
1480.766737
1450.881536
1425.09808
1440.560455
1447.907243
1516.857465
1529.55034
1524.174699
1532.493848
1519.310129
1554.367395
1537.294244
1495.103751
1487.315465
1512.047696
1498.539434
1491.865459
1497.763357
1511.551494
-2723.991011
-2825.123455
-2889.590721
-2712.274214
-2942.488618
-2870.704707
-1139.068464
-1332.363701
-1355.87861
-1139.808155
1298.743287
1246.032566
1375.051992
1387.207484
1379.65917
1347.258092
1366.661096
1372.54875
-1801.135479
1036.095976
1028.457141
992.3187887
658.3801092
573.6086181
1045.951755
311.8188942
459.374966
361.2022336
1185.690516
-379.1026003
46.21098857
259.2492119
3.025674311
1128.807442
-2700.743094
-2018.786625
-1347.539253
-2294.855969
-2349.889745
-1096.104157
-1172.151844
-1627.714412
-2355.496933
-920.5353489
-903.8456881
-738.7716118
-2108.480424
-1584.045497
-1550.421651
1918.440642
3386.118612
4475.275023
-5679.865377
-1948.937482
833.9354105
-1831.969602
-1498.551116
-3594.821484
-6162.487799
-6973.918304
-7193.3144
1694.654065
1672.488421
1630.815363
1731.415996
1686.986089
1710.38933
-1572.142799
-1716.571169
-1721.997387
-2204.984236
-1931.674568
-1879.441214
1200.116863
1179.40339
1191.613473
-7247.314601
-7305.930453
-6606.911848
1617.509411
1579.761216
1595.092809
1621.607176
1625.608826
1647.945136
1655.262749
1679.829439
1672.330014
1236.748546
1225.80823
1207.170041
-1547.773611
-1500.814898
-1490.958863
1231.981646
1239.520999
1233.206775
-1649.474994
-1659.599591
-1559.284868
-1380.235036
-1376.745759
-1523.453444
1085.497391
1213.424508
1219.98605
1225.636211
1108.290809
-8205.211963
-3529.696108
-1977.662643
-2048.662508
-2053.536279
-2294.069515
-2143.934106
-2112.493799
2221.598064
-5010.141267
-4491.432581
-5419.392918
-2439.818338
-2492.371044
-2338.274614
-728.0646587
-742.2336645
-562.5052762
-568.9679369
-670.5888075
-2380.936896
-1889.79599
-4626.792141
-8204.584885
-7762.218496
-7610.99807
-8071.066916
-8074.862682
-3125.31015
-3157.949128
-3107.635419
-3431.24019
-3429.570973
-3402.044307
-2978.334048
-3121.473216
-3196.05224
-3796.957826
-3742.294251
-3796.049436
-1908.056322
-1886.251713
-1918.430529
2547.004216
2620.29149
2329.110896
2336.508787
2345.253386
2308.671662
2101.845319
2115.737498
2096.84967
2274.427539
2242.953421
2233.037555
3107.244286
2919.84101
3008.75826
3226.548911
3239.811477
3385.984375
2683.367375
2750.69988
2758.357793
1848.522487
1846.582633
1846.773037
1896.971345
1889.347628
1891.036406
1813.110932
1808.849998
1843.389064
1836.715916
1986.517715
1990.295985
1978.039931
2079.33101
2062.159339
2056.462302
1909.974574
1911.368871
1903.952208
1967.037067
1957.829564
1955.652001
1600.783086
1619.416722
1614.460854
1572.449414
1576.96846
1594.355872
1723.555371
1749.754653
1736.505445
1742.846313
1733.240415
1803.455984
1794.647715
1665.295622
1723.732354
1714.317235
1680.822873
1688.573466
1714.786173
-4159.878673
-4229.593932
-3850.544211
-3914.704636
-3938.971592
-4295.895992
-4311.461261
-4198.406922
-4336.159388
-4166.044409
1252.03129
1232.615725
1243.152292
1293.050994
1277.98374
1259.067728
1279.728151
1289.23781
1284.124131
1260.361282
1263.719646
1271.145533
-1920.159729
976.7862665
987.4921575
966.02833
708.6654975
984.9807262
401.9142827
524.5398346
639.0921181
1176.547427
1179.473911
1175.483517
-291.8385256
-134.3425231
-113.6044595
-129.4701544
1155.70644
1162.309353
1170.93515
-32.6838246
-115.8168337
-259.6062662
-2186.586999
-2231.663325
-2336.014748
-2287.859035
-2266.99084
4864.577972
5043.694692
4750.417771
-2402.557396
-2427.829885
-2343.859701
-2538.049282
-2481.925158
-2471.223328
-3105.499223
-2360.140213
-5388.831762
-6573.459765
-6583.626344
-6491.705167
-6537.0221
-7147.534729
-6971.738107
-7011.559098
-6894.342421
-6933.678771
-7104.395229
-5583.377998
-5498.74971
-5556.344785
-5375.539514
-5440.005739
-5524.882314
-7281.665918
-7079.205302
-7063.569979
-7049.684861
-7074.344422
-7284.260473
-5808.097223
-5721.159519
-5774.666412
-5614.069811
-5667.914147
-5756.730697
-6412.758305
-6451.968881
-6301.15106
-6359.242896
1477.981651
1473.298896
1469.622902
1424.151246
1420.663815
1415.1291
1431.976267
1426.863028
1431.308277
-1501.257914
-1555.446381
-1363.652216
-1446.303694
1319.227649
1316.380871
1329.042725
1322.81635
1240.510858
1235.772223
1241.896776
1235.604104
1400.005792
1397.378564
1391.056465
1409.88271
1403.965594
1407.784004
1340.819411
1337.137876
1353.651506
1337.361718
1344.637097
-1719.95147
-1714.370562
-1705.204573
-1559.728668
979.0267233
1011.551374
1112.972834
1067.10075
1060.609044
1047.021317
1074.850744
426.2118818
413.612927
1086.305265
973.0126638
756.3698268
1196.139818
1209.988159
1204.912723
1118.689716
-8059.176728
-8364.177723
-7942.119229
-7525.103069
-7132.94713
-6278.404049
-7919.779617
-7594.716737
-3577.173111
-3725.992435
-2110.382774
-2100.038658
-2106.49621
2196.859314
2122.405198
4473.637882
4286.41833
4195.454703
3702.148484
3560.690339
4047.386157
3857.442515
3993.790234
-2608.942984
-2538.108261
-2663.261108
-968.4094944
-964.1351799
-953.2199937
-1071.153173
-768.6928376
-745.2914022
-733.3917803
-892.9783265
-832.3621804
-832.560553
-495.6775943
-551.1585676
-546.3521039
-369.3361376
-376.7012732
-423.2454768
-7971.952668
-7876.082077
-8263.926612
-7444.556898
-7770.456275
-7811.62238
-8097.666247
-8078.529683
-6761.585279
-6645.261031
-6682.454339
-6597.863938
-6612.406262
-6717.665119
-6953.743144
-6807.115111
-6851.882155
-6722.790333
-6763.866278
-6905.375088
-5056.674448
-4981.934335
-5045.27486
-5047.81782
-5120.375443
-4762.880215
-4792.450382
-4760.93123
-4858.701402
-5325.699507
-5365.833845
-5321.459513
-5237.536166
-5307.298211
-5110.746396
-5175.935544
-5260.432705
-3258.734512
-3170.445646
-3162.573865
-3184.661978
-3120.324865
-3177.667841
-3352.111137
-3377.005516
-3311.665845
-3638.562094
-3682.90169
-3707.727265
2497.409449
2366.34744
2162.579381
2137.078963
2122.92897
2205.723243
2214.542474
2188.254124
3021.140645
3119.772065
3128.922172
3422.261456
3291.620986
2837.703361
2829.601561
2922.413606
-7295.54446
-7090.038929
-7107.041212
-7067.626686
-7075.438837
-7267.2923
-7469.726186
-7509.558717
-7589.224611
-7868.535384
-7810.773314
-7901.488687
-7915.348331
-7592.229752
-7622.735522
-7780.411366
-7778.013738
-7561.824674
1863.603128
1856.31624
1855.952894
1882.563555
1881.005847
1872.273817
1821.203256
1817.0544
1830.52773
1825.60373
2015.498074
2002.707366
1998.669704
2039.29183
2045.276502
2029.548658
1930.432472
1920.346387
1918.953524
1948.622862
1949.242453
1940.167154
-6021.844122
-5927.100674
-5972.51003
-5825.928793
-5877.010026
-5968.29304
-6228.818746
-6138.498
-6224.149386
-6017.164229
-6070.122961
-6163.70147
1615.064188
1616.64
1621.279609
1603.703557
1610.809734
1608.923772
1640.663738
1639.079807
1649.607887
1625.230121
1630.547697
1632.510946
1569.218702
1571.154541
1574.501609
1562.623452
1567.276735
1564.751472
1588.790304
1588.78497
1595.98119
1577.965375
1582.654776
1582.830118
1762.367391
1752.638928
1745.17095
1749.13425
1758.436936
1730.375003
1739.736504
1736.106819
1783.104432
1772.159987
1686.78096
1678.388342
1672.939371
1675.581007
1684.333161
1657.160062
1660.143406
1663.095861
1709.002593
1711.873465
1721.092645
1693.65665
1702.741349
1700.031485
1705.124745
1696.022649
-4071.725488
-4107.380826
-4006.160812
-3973.319243
-4001.239031
-4501.422733
-4532.961607
-4483.372274
-4680.783808
-4597.411408
-4566.086187
-4256.823155
-4289.908198
-4259.660435
-4430.134031
-4377.121974
-4321.081789
1457.881327
1454.556543
1449.388933
1465.189693
1459.997121
1464.0441
1467.901555
1460.596444
1484.585885
1483.076601
1448.043812
1438.818707
1433.868707
1434.282114
1433.517984
1444.36953
1439.977407
1444.609592
1520.239327
1524.539932
1535.271392
1522.759125
1548.561226
1550.632608
1556.874671
1539.760062
1544.978693
1542.926607
1491.930662
1489.297914
1506.122198
1502.038989
-2831.273342
-2814.912249
-2878.799282
-2706.430459
-2757.239725
-2791.878936
-3011.533246
-3057.057412
-2925.296147
-2930.655814
-2942.355463
-1290.824522
-1296.9966
-1351.831282
-1157.116237
-1221.645814
-1228.390312
1294.16562
1282.752458
1312.479232
1305.139736
1250.529729
1256.430123
1252.886776
1259.069126
1253.474642
1273.42061
1266.012211
1378.457238
1376.476292
1372.642446
1385.545898
1380.754769
1382.494305
1369.439815
1363.210592
1358.893241
1369.292229
1366.304973
1370.958766
-1861.850104
1031.036529
1013.332477
1016.935385
619.4648759
631.7935733
686.475965
577.0663615
583.0066001
568.2537578
1029.288725
405.430781
356.0638384
291.0992977
1179.789816
1181.376548
1185.664251
-358.2251799
134.4332689
77.93899215
243.138117
233.4402598
244.4485324
61.02038763
-71.03145864
-51.59983932
49.34998429
1140.805069
1154.471662
1147.453034
836.3532856
795.7882373
771.0071407
778.5770529
715.4782866
685.2347538
689.4333479
596.2205429
564.6392027
558.6881307
430.5508091
406.4342765
382.0660917
226.4620628
216.9471879
170.9362109
6.670876402
14.89880114
-47.82288242
-200.5998128
-179.0694673
-248.2908469
-376.1326583
-347.5641956
-414.2925017
-511.4771975
-482.1551803
-539.4057429
-608.9729614
-583.7511992
880.8392734
851.8894292
807.5126969
838.8877697
785.3319318
730.0343992
761.5061327
668.9197677
610.8283994
630.1475333
488.3597178
441.6084265
432.6119585
244.8870868
229.8180987
177.7490842
-26.24789536
0.5496407358
-91.52098119
-268.8372059
-213.1856719
-320.5920661
-452.5167969
-390.5188597
-489.3170881
-581.4771901
-525.7800233
-606.8843272
-668.5203382
-621.1815633
942.1703786
931.2278116
869.7642609
924.3494916
889.4961392
807.8541091
871.7951109
793.3337173
694.2350042
756.5335215
603.9789638
510.1484075
537.0655355
289.4422395
252.4146405
195.2603393
-90.52550039
-38.60415781
-178.8488195
-401.0321256
-294.5576648
-459.3488737
-592.0232584
-480.6182234
-625.0850877
-698.6662942
-605.4475941
-716.3549858
-755.9980698
-688.0402888
1012.798489
1027.872703
954.3244379
1031.026209
1033.085977
921.5777186
1029.436043
995.745577
835.5435876
973.2078321
840.0339499
648.1298389
763.2882549
402.4202283
308.7716898
245.1509842
-234.2419881
-115.0971791
-369.565126
-656.3607275
-449.4119074
-717.4746842
-826.0999163
-640.5245868
-843.353738
-867.2601965
-736.0856376
-869.5241816
-870.459021
-782.1451822
1080.486065
1125.458191
1053.005489
1141.850347
1196.663044
1073.050421
1217.253841
1284.075694
1061.528058
1305.218201
1324.312644
931.366565
1288.011106
664.7553629
451.4747824
464.3795971
-702.942382
-301.7468149
-904.6092409
-1166.214176
-753.0271996
-1185.760923
-1166.859232
-900.3801991
-1147.439743
-1081.520641
-917.5556497
-1059.96412
-1003.213056
-902.4022459
1130.540092
1201.083428
1147.500062
1228.815465
1331.517784
1235.548959
1374.913633
1551.354419
1360.333541
1633.67736
2099.453102
1499.32014
1810.284162
1866.434818
1341.182693
581.2449911
-840.8735532
-280.0249346
-1623.807981
-1575.683495
-1278.285985
-1894.437252
-1588.44961
-1268.352163
-1506.140213
-1307.373896
-1139.420253
-1254.99303
-1131.058421
-1036.749437
1150.304045
1233.141868
1213.611013
1265.5897
1384.101778
1353.402762
1432.801752
1617.269525