/*--------------------------------*- C++ -*----------------------------------*\
| =========                 |                                                 |
| \\      /  F ield         | OpenFOAM: The Open Source CFD Toolbox           |
|  \\    /   O peration     | Version:  v1912                                 |
|   \\  /    A nd           | Website:  www.openfoam.com                      |
|    \\/     M anipulation  |                                                 |
\*---------------------------------------------------------------------------*/
FoamFile
{
    version     2.0;
    format      ascii;
    class       volVectorField;
    location    "2.9";
    object      U;
}
// * * * * * * * * * * * * * * * * * * * * * * * * * * * * * * * * * * * * * //

dimensions      [0 1 -1 0 0 0 0];


internalField   nonuniform List<vector> 
12556
(
(99.99867846 0.003225794277 -4.348040472e-21)
(99.99821707 0.01090804968 1.480013828e-25)
(99.996973 0.02318562287 -4.340860123e-21)
(99.99490176 0.04308053823 -4.314387485e-21)
(99.99972035 0.03394937688 4.164804381e-21)
(99.99742084 0.05604526122 0)
(99.99606214 0.09030792105 0)
(99.9956634 0.1372547127 -7.314690781e-21)
(99.99449121 0.1988659555 8.530005297e-22)
(99.99374938 0.2728836584 -5.573123538e-21)
(99.99407409 0.3500130893 7.03103155e-22)
(99.99557958 0.4142314102 0)
(99.99880824 0.4470578 0)
(100.0034768 0.4367863054 9.295503347e-22)
(100.005034 0.3899755151 -1.494967967e-21)
(100.0059931 0.3222782561 9.083943513e-22)
(100.0057028 0.2505005966 0)
(100.0050723 0.1857650689 1.487792645e-21)
(100.0046678 0.1311198583 6.108968132e-21)
(100.0024897 0.09173316 -1.710588257e-21)
(100.0098621 0.1041467057 -1.484138849e-20)
(100.0067249 0.06407877114 0)
(100.00493 0.03406888223 -1.86159948e-21)
(100.0047451 0.01070300132 -1.310640601e-20)
(99.98803585 0.008557265205 1.741554274e-20)
(99.98280645 0.02939676799 4.35051393e-21)
(99.97112012 0.06329014443 3.039272513e-20)
(99.95124387 0.1185294008 -1.301724236e-20)
(99.95390168 0.1613221572 4.195866772e-21)
(99.92358972 0.2692810564 -4.908398324e-23)
(99.88404601 0.4340900231 0)
(99.86335338 0.5822885711 -7.367857131e-21)
(99.82079617 0.8533475711 -6.822975938e-21)
(99.78948551 1.188601179 -1.186880254e-20)
(99.78841601 1.549981357 -4.900444139e-21)
(99.83447924 1.858402856 -6.318602858e-21)
(99.92421233 2.029070526 6.361362089e-22)
(100.027053 2.001132134 8.425505224e-23)
(100.1096953 1.797916701 -5.083550584e-22)
(100.1506957 1.489958141 4.683910413e-21)
(100.1528654 1.156290412 -9.140982762e-21)
(100.1304047 0.8588841813 0)
(100.1348483 0.6400912959 -2.58997801e-20)
(100.0951565 0.4341478992 4.987072479e-20)
(100.0925784 0.2961040631 1.43698222e-20)
(100.0641525 0.1815072753 2.958783025e-20)
(100.0479049 0.09688090199 -2.96754757e-20)
(100.0417803 0.03051161595 1.49684547e-20)
(99.96809838 0.01063909459 -1.737674724e-20)
(99.95330567 0.03775723784 -3.489048751e-20)
(99.92123959 0.08454735339 -7.826007199e-20)
(99.86791416 0.1629488769 1.041371939e-19)
(99.84063261 0.2536844106 -8.606753378e-21)
(99.7492754 0.4374811851 -8.375909781e-21)
(99.62676761 0.7207689743 -1.453743e-20)
(99.55929069 1.029001452 0)
(99.42195511 1.547807685 2.826423877e-20)
(99.31964025 2.208480187 1.003679591e-19)
(99.33163407 2.936239236 0)
(99.50599115 3.606706467 2.883577636e-20)
(99.84915368 3.998580028 1.242794062e-20)
(100.2437257 3.944157935 0)
(100.5221721 3.488349244 6.820342062e-20)
(100.6335442 2.834587296 3.773403524e-21)
(100.6158351 2.163870344 -9.853074469e-21)
(100.5200295 1.567310938 -2.311933317e-20)
(100.4452634 1.087688769 -1.55545746e-19)
(100.3225896 0.7273452562 -3.448340076e-20)
(100.2547805 0.4461345533 -1.473049951e-20)
(100.1798567 0.2711586949 3.347355248e-20)
(100.1348805 0.1449144917 -3.760368122e-21)
(100.1152726 0.04540468631 0)
(99.94600099 0.007378638044 -8.756918354e-21)
(99.91757174 0.02940627685 6.131126688e-20)
(99.85684691 0.07623427149 -1.754201471e-20)
(99.75744413 0.1596053771 0)
(99.6788131 0.2867158807 0)
(99.4983202 0.5230595865 -6.774001106e-20)
(99.24853543 0.9005191827 -1.355617729e-19)
(99.05137908 1.35883854 3.192814135e-20)
(98.73172364 2.117215477 6.09406656e-20)
(98.48939942 3.119935002 2.252060396e-19)
(98.44859516 4.360101441 -1.51173129e-19)
(98.81832016 5.611694031 0)
(99.67857739 6.38688654 -6.30794562e-20)
(100.6874624 6.258924748 1.289556682e-20)
(101.3334034 5.358852362 -9.220823639e-20)
(101.5010512 4.172977636 0)
(101.3820733 3.061458407 8.281323028e-20)
(101.1531177 2.16154231 0)
(100.9200429 1.425394856 5.654563465e-20)
(100.6637574 0.9309925902 -4.364364448e-20)
(100.4803091 0.5294207369 -3.770929728e-20)
(100.3411648 0.3180997309 1.908570036e-20)
(100.2546982 0.1678141754 -3.829696837e-21)
(100.2152626 0.05211128758 0)
(99.93455906 -0.002577945597 0)
(99.89016501 -0.000104491704 0)
(99.7962923 0.03023090708 8.847896806e-21)
(99.6414968 0.09860082975 1.337574071e-20)
(99.49836596 0.2434567401 2.214504418e-20)
(99.2008312 0.495663227 0)
(98.78513715 0.905086578 0)
(98.3867742 1.479195822 3.355773826e-19)
(97.81402542 2.418475404 -1.36038006e-19)
(97.25240933 3.812216567 1.059524792e-18)
(96.95111008 5.753033087 0)
(97.47628505 8.040502393 -5.263666775e-19)
(99.33782335 9.642781037 1.167843538e-19)
(101.6340678 9.29728199 -1.346309987e-19)
(102.874304 7.479549586 2.618353501e-21)
(102.9792756 5.416771943 8.78798296e-20)
(102.5414479 3.754965621 4.178457886e-19)
(102.0104215 2.535547784 -4.662124231e-22)
(101.5296867 1.59094372 -9.34044829e-20)
(101.0886189 1.009854829 7.76607104e-21)
(100.7402905 0.5234875863 0)
(100.5212612 0.3091174738 3.904532243e-21)
(100.3845542 0.1585122505 -2.932269028e-21)
(100.3211061 0.04846881642 -9.724811042e-22)
(99.94830283 -0.01972471362 0)
(99.88748426 -0.05232428413 0)
(99.76049814 -0.05781186439 -1.773082794e-20)
(99.54760134 -0.02582006297 3.611566445e-20)
(99.32844494 0.1104393815 0)
(98.90394511 0.3306092361 0)
(98.29393731 0.7111920038 2.832925358e-20)
(97.67023244 1.307382299 -3.728655193e-20)
(96.72745114 2.308462502 1.085474722e-18)
(95.58554912 3.958950796 0)
(94.48374709 6.699227226 -9.359141711e-19)
(94.547559 10.94348893 -5.733722613e-19)
(98.40318389 14.86473207 0)
(103.8123869 13.65523633 -7.943889167e-20)
(105.7497251 9.659998548 -1.071521122e-19)
(105.2845346 6.31486046 -2.776148331e-19)
(104.1256004 4.056844564 5.563936421e-19)
(103.0540511 2.5937055 -6.576993901e-20)
(102.2149964 1.519460648 2.402261492e-20)
(101.5464685 0.9258572811 -1.606744665e-20)
(101.0001595 0.4154840222 0)
(100.6901117 0.2353990473 0)
(100.4992632 0.1126020637 -9.862633502e-22)
(100.4100772 0.03328827357 -2.959499792e-21)
(100.0013619 -0.04367957737 4.32957607e-21)
(99.9256305 -0.1256577833 -4.362283659e-21)
(99.76967588 -0.1853689707 8.905071474e-21)
(99.50509886 -0.2130186586 -3.259539426e-20)
(99.20450366 -0.1142757534 7.9744617e-23)
(98.66344665 0.02497766556 2.792040008e-20)
(97.87768935 0.3026278834 -1.464149233e-19)
(97.02887572 0.8048920207 0)
(95.65890485 1.682951515 0)
(93.72896432 3.216844489 3.867515685e-19)
(90.95322025 6.049315709 -1.662047901e-18)
(87.51716545 12.74735706 -2.257389583e-19)
(94.60239994 24.9513034 -1.87399428e-19)
(110.1205365 19.71499276 -5.361475805e-19)
(110.7505322 11.03488399 0)
(108.4109175 6.253969691 0)
(106.0108047 3.670543646 5.597561578e-20)
(104.1798437 2.2013975 9.306757643e-21)
(102.8673756 1.156842016 0)
(101.9739246 0.6480717326 8.762137393e-21)
(101.2140881 0.2056021305 2.59057837e-21)
(100.8143898 0.09248101916 -3.064665488e-21)
(100.5732555 0.02991492355 -3.488418012e-21)
(100.4592953 0.00668334301 8.400319716e-21)
(100.1059784 -0.07312919454 -4.330030337e-21)
(100.0187064 -0.215892519 4.363847335e-21)
(99.84124514 -0.3440728398 -5.539708675e-21)
(99.53859049 -0.4496791862 -3.728155406e-21)
(99.16759884 -0.4159353295 1.590199478e-20)
(98.53691289 -0.3979739516 9.480036461e-21)
(97.63647843 -0.2994401068 -8.477515885e-20)
(96.59670703 0.01142159629 -8.305503351e-20)
(94.90075353 0.5382583223 1.512137589e-18)
(92.36212613 1.412398855 8.316379772e-19)
(88.13264583 2.709642311 -5.760172542e-20)
(79.87391411 5.031008062 1.265315021e-18)
(125.586299 22.11321719 -1.405674782e-18)
(117.5491196 8.926626784 3.640409809e-18)
(111.7797532 4.439491267 0)
(107.7998799 2.368812491 -1.06439367e-18)
(105.1776955 1.285747979 0)
(103.3679308 0.4976189683 -4.654437006e-21)
(102.286382 0.1922165189 1.978729375e-20)
(101.3324713 -0.09931489393 -3.158702645e-21)
(100.8615342 -0.1094524187 2.584855526e-21)
(100.5815271 -0.08420565888 -4.92142662e-22)
(100.446993 -0.03009802971 -7.894889542e-21)
(100.2711793 -0.1060156727 -2.085597506e-21)
(100.1770864 -0.3166442356 -1.567107707e-21)
(99.98800615 -0.5217829888 -5.374446194e-22)
(99.66502209 -0.716152158 1.627236232e-21)
(99.24222989 -0.7669572612 -3.149950578e-23)
(98.56494615 -0.8937282815 0)
(97.62551005 -1.008786536 -1.581908476e-19)
(96.47965273 -0.9520590945 -1.742622349e-19)
(94.67051347 -0.8697972366 1.9557942e-18)
(92.07619693 -0.8027199866 1.098480797e-19)
(88.2120815 -1.222399966 1.991548777e-18)
(83.170782 -3.24166272 -2.068691794e-20)
(137.9537579 5.708840924 -2.488327953e-18)
(122.0740039 2.092594456 1.502384977e-18)
(113.9700429 0.7734371493 -2.024043312e-18)
(108.928894 0.2120856236 -3.822420818e-19)
(105.7704061 -0.06163518395 -8.14531811e-20)
(103.601979 -0.377862016 -4.75459052e-21)
(102.4019503 -0.4029095827 1.112605007e-20)
(101.3185996 -0.4692336284 1.085175255e-21)
(100.805865 -0.3521133647 0)
(100.5032924 -0.2199568817 3.982855133e-21)
(100.3557245 -0.07402841603 3.936531358e-21)
(100.5015239 -0.1398475418 4.108286572e-21)
(100.4059002 -0.4202320093 6.394672806e-23)
(100.2160802 -0.7041295496 0)
(99.89215705 -0.9901035097 2.104307042e-22)
(99.44060068 -1.135006615 -2.179735258e-21)
(98.76365247 -1.410659297 2.32424172e-21)
(97.85499762 -1.7359106 5.034376844e-21)
(96.70378153 -1.925634933 2.921720046e-18)
(94.9787666 -2.22718881 -3.93549961e-18)
(92.65389257 -2.708693621 -8.685117902e-19)
(89.60347166 -3.769787397 -1.83991397e-18)
(86.47463539 -5.61128846 1.155273334e-18)
(134.5938405 -10.51613842 2.252904015e-18)
(121.5637471 -5.744465163 -1.408568349e-18)
(113.9434523 -3.536838044 -1.044619933e-18)
(108.9329625 -2.284189018 -3.761502533e-19)
(105.7596305 -1.598815431 -8.474342143e-20)
(103.4916851 -1.347856254 4.026370981e-20)
(102.2788389 -1.060827228 0)
(101.1508962 -0.8636300335 -1.062514188e-21)
(100.6324687 -0.6106629977 -4.407131032e-21)
(100.326477 -0.3644058366 4.918998099e-22)
(100.1751435 -0.1209076636 0)
(100.796626 -0.1722031165 -2.022510925e-21)
(100.7044535 -0.5190397993 2.040230855e-21)
(100.5237962 -0.8769731092 1.988473354e-21)
(100.2186176 -1.250063935 -1.862113154e-21)
(99.75892687 -1.488445448 -2.147625987e-21)
(99.1240517 -1.898785986 0)
(98.29739445 -2.40521482 -2.22783555e-19)
(97.21082842 -2.802906716 2.583023798e-18)
(95.65818639 -3.377919017 -1.502723358e-18)
(93.65329303 -4.166040151 8.122006264e-19)
(91.13625437 -5.418572251 0)
(88.63630666 -6.944811453 0)
(125.4237599 -19.16918906 -1.198236552e-20)
(117.5430713 -11.35769618 -1.24737556e-18)
(111.9913119 -7.048507752 -4.348555866e-19)
(107.9212447 -4.495789101 -1.440499154e-18)
(105.1466803 -3.043342053 5.871002096e-19)
(103.0335578 -2.266095482 0)
(101.9183471 -1.694424817 -2.636830997e-20)
(100.8279332 -1.240087904 -1.332061347e-20)
(100.340227 -0.8584724004 1.004449045e-21)
(100.0495201 -0.5036736151 -3.184431672e-21)
(99.90356707 -0.1662928978 4.662406389e-22)
(101.1513671 -0.2009501419 7.407911939e-21)
(101.0670485 -0.6062775714 0)
(100.9031379 -1.026271396 -1.984573582e-21)
(100.6301879 -1.483562634 0)
(100.1768877 -1.801523569 0)
(99.6208966 -2.318937378 -6.37566892e-21)
(98.90952124 -2.965889875 -1.123697589e-20)
(97.93126279 -3.521903794 1.279108316e-18)
(96.58386247 -4.279938477 -1.44606512e-18)
(94.86914812 -5.256704772 1.444928032e-18)
(92.67602217 -6.651838591 1.420671278e-18)
(90.33428847 -8.166850863 -3.527065386e-19)
(115.9501497 -22.05616924 2.111346163e-18)
(112.2975035 -14.03914315 0)
(109.0277881 -9.139148748 1.072648234e-18)
(106.2004527 -6.031573378 1.215611038e-18)
(104.0709654 -4.164289244 -3.672064426e-20)
(102.2927849 -3.016492882 2.111044821e-21)
(101.3565433 -2.23336951 -3.215963429e-20)
(100.3709701 -1.56776392 7.881308364e-21)
(99.941871 -1.071837823 0)
(99.68087175 -0.6257205962 3.667413731e-21)
(99.54784842 -0.2062963036 0)
(101.5571238 -0.2253220285 7.398411888e-21)
(101.4832654 -0.6807591734 1.166999542e-19)
(101.3395783 -1.151858712 -2.350680997e-19)
(101.1024594 -1.673092673 -4.407342163e-22)
(100.6981361 -2.050662624 -1.860866338e-21)
(100.2242413 -2.646100427 0)
(99.64703802 -3.389198912 -2.553440783e-19)
(98.79651017 -4.0488763 1.172470326e-18)
(97.67316902 -4.918346844 1.30902324e-18)
(96.24794759 -6.024763874 7.302307421e-19)
(94.38179048 -7.628465161 6.130959076e-19)
(92.26523236 -9.412742134 -1.208171462e-20)
(103.2246327 -30.66541691 -7.041108903e-19)
(107.4742653 -20.21301534 1.304791493e-18)
(107.3662654 -14.22851511 -6.029315788e-19)
(105.9324121 -9.830120451 5.534775586e-19)
(104.230475 -6.807495362 -9.565346443e-20)
(102.7551725 -4.868441499 9.228741236e-21)
(101.3772011 -3.532154979 -6.441108592e-20)
(100.6511741 -2.6288127 0)
(99.81832584 -1.819863384 0)
(99.45979439 -1.236318034 1.149885764e-20)
(99.23670715 -0.7225857705 2.118648917e-21)
(99.1217056 -0.2381933333 -6.871917452e-21)
(102.00237 -0.2430347461 0)
(101.9406327 -0.7355509155 0)
(101.820964 -1.243083163 0)
(101.6224945 -1.801379293 0)
(101.2657279 -2.237417078 0)
(100.877344 -2.890138438 0)
(100.4248217 -3.690421527 0)
(99.72556704 -4.39705345 0)
(98.8261946 -5.313281913 0)
(97.70899209 -6.477258897 -4.831800447e-19)
(96.29194581 -8.210318241 0)
(94.82691994 -10.63461179 7.029702196e-19)
(96.74637741 -19.98032911 2.985649444e-19)
(102.4679187 -16.56721412 -1.457249789e-19)
(103.6522172 -12.84494252 1.632680972e-19)
(103.2717348 -9.498151415 0)
(102.3490733 -6.948441408 -9.230974381e-19)
(101.3860691 -5.175848899 -5.597515629e-20)
(100.3949255 -3.812521772 -8.980499236e-20)
(99.87008191 -2.87411241 -3.375451062e-20)
(99.20701645 -1.979618333 -1.872586313e-20)
(98.91954768 -1.349060482 1.84629451e-20)
(98.73768096 -0.7905314708 0)
(98.64303389 -0.2605462742 1.843061604e-20)
(102.4752807 -0.2540337096 0)
(102.4265705 -0.7697801759 0)
(102.3333745 -1.299650453 0)
(102.1756905 -1.872459933 0)
(101.8671527 -2.341411147 0)
(101.5732223 -3.01628583 0)
(101.2388105 -3.813131432 2.643214892e-20)
(100.6924397 -4.556134438 0)
(99.99818755 -5.465385922 9.572547615e-19)
(99.17740225 -6.564720304 0)
(98.29945111 -8.086097099 0)
(97.72024979 -10.40196844 -1.684192965e-21)
(98.37136876 -13.15996197 -2.897677596e-19)
(100.5122382 -12.78668226 1.509584364e-19)
(101.3262654 -10.88908279 9.822724827e-20)
(101.2421304 -8.629604875 2.760236056e-19)
(100.7262698 -6.667166465 0)
(100.1131681 -5.187002424 -2.412577186e-20)
(99.42156382 -3.894437785 0)
(99.0805918 -2.985259028 0)
(98.56779386 -2.054846525 -3.488062074e-20)
(98.34675717 -1.410248527 1.721180331e-20)
(98.20553427 -0.8286682132 7.20162824e-22)
(98.1310389 -0.2731393185 -1.269646248e-20)
(102.9633597 -0.2586332118 0)
(102.9269153 -0.7838522567 0)
(102.8586422 -1.322238834 0)
(102.7393955 -1.893396073 0)
(102.4764126 -2.376625158 0)
(102.2647304 -3.044400204 0)
(102.0243391 -3.805338108 0)
(101.6103051 -4.554316131 -3.720074281e-19)
(101.0712919 -5.423719019 7.788644524e-19)
(100.4586718 -6.389276948 -7.381256471e-19)
(99.87980048 -7.537831503 -6.080326188e-19)
(96.37134468 -8.363891789 -2.248181674e-19)
(99.38099339 -10.15076342 -1.304358769e-19)
(99.88836646 -10.09774946 4.002591135e-20)
(99.98198872 -9.065994486 -3.131078295e-19)
(99.77627337 -7.596413761 1.417481648e-20)
(99.40853334 -6.165277752 5.290054434e-21)
(98.99772507 -4.978935915 0)
(98.5222572 -3.822794331 -2.960410364e-20)
(98.31921099 -2.983934073 4.490236182e-20)
(97.92920441 -2.059776899 1.085759253e-20)
(97.76598131 -1.425723812 1.850580235e-20)
(97.66054486 -0.8398262842 -2.102232935e-20)
(97.603921 -0.2768402312 0)
(103.454869 -0.2576728311 0)
(103.4289677 -0.7803798256 0)
(103.3815313 -1.315114292 0)
(103.2948886 -1.871446621 0)
(103.0732937 -2.353677845 0)
(102.9271817 -2.992628882 0)
(102.7578068 -3.694102999 0)
(102.4292576 -4.408378369 1.841061131e-20)
(101.9878135 -5.209702636 0)
(101.4543746 -6.019846211 -1.352894505e-19)
(101.0745797 -6.891051991 -6.048258501e-20)
(93.24058611 -6.542352488 4.466926286e-19)
(99.90189596 -8.27085971 0)
(99.52423826 -8.219044732 0)
(99.10743334 -7.573300071 -3.958661043e-19)
(98.72017235 -6.603285062 0)
(98.36813817 -5.592106291 7.309808873e-21)
(98.05916598 -4.648834988 0)
(97.72678456 -3.653042182 0)
(97.60826069 -2.894797256 0)
(97.31379941 -2.00981602 3.757910295e-20)
(97.19677875 -1.403500827 -3.515631786e-20)
(97.11984286 -0.8281971376 -2.372764179e-21)
(97.07759191 -0.2733737676 2.380736007e-21)
(103.9396348 -0.2521751268 0)
(103.9222621 -0.7626784448 0)
(103.8909835 -1.283889831 0)
(103.8298592 -1.815252156 0)
(103.6427004 -2.283811735 0)
(103.5435431 -2.880346437 0)
(103.4186093 -3.512802895 0)
(103.1368325 -4.150485485 0)
(102.723947 -4.852363746 5.94631171e-20)
(102.175036 -5.529415321 8.203647259e-19)
(101.4659015 -6.182888998 2.356952203e-21)
(95.55711559 -6.296977622 -6.207980443e-20)
(99.9645885 -6.975705776 1.424106406e-19)
(99.15254874 -6.861964488 -1.69129341e-19)
(98.45512221 -6.401618724 0)
(97.94454671 -5.748534829 -6.297994969e-22)
(97.56220263 -5.013713488 0)
(97.28704325 -4.264572629 0)
(97.02967069 -3.415896663 0)
(96.95978483 -2.743306223 0)
(96.73458819 -1.918002011 0)
(96.65165046 -1.350452945 0)
(96.5964831 -0.7994826595 0)
(96.56505303 -0.2649184681 0)
(104.4097052 -0.2431601816 0)
(104.3988056 -0.7340528009 0)
(104.379084 -1.234311174 0)
(104.336286 -1.734254263 0)
(104.1752536 -2.180113133 0)
(104.1053176 -2.727680692 0)
(104.0014229 -3.291011113 0)
(103.7362828 -3.847661804 0)
(103.3198583 -4.426530633 0)
(102.7423854 -4.982417111 0)
(100.4954703 -5.33293578 0)
(98.79377558 -5.792563019 -1.779396542e-19)
(99.86182345 -5.94384638 -6.332219508e-20)
(98.83067023 -5.818668408 1.547158212e-21)
(97.99253089 -5.495414557 0)
(97.37472824 -5.02520342 0)
(96.93682795 -4.463467497 0)
(96.65558477 -3.863492317 0)
(96.42851645 -3.145006817 0)
(96.38043839 -2.556609075 0)
(96.19948808 -1.800310112 0)
(96.13911369 -1.277060145 0)
(96.09857606 -0.7579729775 0)
(96.07561489 -0.2517321272 0)
(104.8592738 -0.2316265749 0)
(104.8528408 -0.6977075419 0)
(104.8403341 -1.171897287 0)
(104.809137 -1.637254299 0)
(104.6664231 -2.054906668 0)
(104.6106684 -2.551786933 0)
(104.5093987 -3.052403425 0)
(104.2410646 -3.531447729 0)
(103.7999387 -4.008872382 0)
(103.1900353 -4.450073981 0)
(100.1729892 -4.628262113 0)
(99.74501331 -5.051446649 0)
(99.83022772 -5.116720461 0)
(98.63348497 -5.0100681 0)
(97.66082871 -4.761880386 0)
(96.94156001 -4.401357181 0)
(96.44340688 -3.960796741 0)
(96.13590462 -3.473454094 0)
(95.91330588 -2.864818141 0)
(95.86797863 -2.353820609 0)
(95.71174188 -1.669089342 0)
(95.66435449 -1.191695497 0)
(95.63239496 -0.7088623044 0)
(95.614822 -0.2358549864 0)
(105.2844681 -0.2184985526 0)
(105.280682 -0.6565944905 0)
(105.2715572 -1.101640608 0)
(105.2460714 -1.531564142 0)
(105.1152478 -1.918375407 0)
(105.0618729 -2.36634616 0)
(104.94938 -2.810654784 0)
(104.6665562 -3.220886304 0)
(104.1906228 -3.617750684 0)
(103.5288128 -3.97197663 0)
(99.91070295 -4.055313019 0)
(100.1931801 -4.429233254 0)
(99.80195412 -4.446608682 -3.691589455e-35)
(98.47822417 -4.350635076 0)
(97.40277263 -4.151101374 0)
(96.60176901 -3.865219796 0)
(96.04683627 -3.511532564 0)
(95.70468733 -3.1101585 0)
(95.47140893 -2.591909051 0)
(95.41666549 -2.148653521 0)
(95.27099926 -1.533381943 0)
(95.22907246 -1.100883276 0)
(95.20085758 -0.6560814266 0)
(95.18633523 -0.2187033994 0)
(105.6830741 -0.204560461 0)
(105.6804091 -0.6132093011 0)
(105.6715667 -1.027763473 0)
(105.6469662 -1.42284387 0)
(105.5230269 -1.778301321 0)
(105.4633878 -2.180988744 0)
(105.3303534 -2.574338047 0)
(105.0269833 -2.926920779 0)
(104.5131382 -3.260340949 0)
(103.7891928 -3.549487356 0)
(99.66294156 -3.571469052 0)
(100.4548325 -3.903109681 0)
(99.76273673 -3.894064646 0)
(98.3469099 -3.80460602 0)
(97.19444513 -3.638140667 0)
(96.32795264 -3.404781611 0)
(95.72235233 -3.114801694 0)
(95.34403791 -2.780393894 0)
(95.09055377 -2.33602529 0)
(95.01958091 -1.950131713 0)
(94.87478292 -1.399546 0)
(94.83277309 -1.009514549 0)
(94.80472374 -0.6025956549 0)
(94.79142111 -0.2012606037 0)
(106.0542777 -0.1904315675 0)
(106.0515218 -0.5694916745 0)
(106.0406396 -0.953552761 0)
(106.0132495 -1.31536105 0)
(105.8922114 -1.64031335 0)
(105.8204885 -2.001993504 0)
(105.6618028 -2.349235116 0)
(105.3342428 -2.655092876 0)
(104.7834493 -2.938457543 0)
(103.990845 -3.177748341 0)
(99.44740807 -3.160250935 0)
(100.6074836 -3.455185531 0)
(99.71625981 -3.431478339 -5.243447317e-35)
(98.23220685 -3.347069203 0)
(97.02111574 -3.204274189 0)
(96.10208905 -3.009084438 0)
(95.45238351 -2.766816736 0)
(95.03922257 -2.484450465 0)
(94.76073682 -2.10109478 0)
(94.66977888 -1.763604205 0)
(94.51948849 -1.271851535 0)
(94.47358573 -0.9210041562 0)
(94.44323126 -0.5504976748 0)
(94.42979444 -0.1842120232 0)
(106.398357 -0.1765800816 0)
(106.3945796 -0.5268697809 0)
(106.3800028 -0.8814000763 0)
(106.3471887 -1.212156885 0)
(106.2260342 -1.508257276 0)
(106.1384595 -1.833173286 0)
(105.9519596 -2.140239659 0)
(105.5984828 -2.407438 0)
(105.0134725 -2.651336527 0)
(104.1476214 -2.851653328 0)
(99.27391924 -2.810106109 0)
(100.695197 -3.072771128 0)
(99.66541404 -3.040300301 0)
(98.1298484 -2.960303962 0)
(96.87338372 -2.835259931 0)
(95.91197997 -2.668676266 0)
(95.22426813 -2.462899364 0)
(94.7786267 -2.221466489 0)
(94.47366957 -1.888573678 0)
(94.36087477 -1.591996027 0)
(94.20111079 -1.152950124 0)
(94.14886785 -0.8375739138 0)
(94.11459858 -0.5011796633 0)
(94.10006545 -0.16801854 0)
(106.7163499 -0.1633479652 0)
(106.7108589 -0.4863588909 0)
(106.6914588 -0.8129731889 0)
(106.651425 -1.115285805 0)
(106.5279193 -1.384641836 0)
(106.4222411 -1.67695851 0)
(106.2071863 -1.949548773 0)
(105.8279975 -2.18449925 0)
(105.211906 -2.397061676 0)
(104.2696487 -2.56641322 0)
(99.14572249 -2.511229682 0)
(100.7431833 -2.745698824 0)
(99.61217919 -2.707459994 1.898588644e-35)
(98.03717356 -2.63148127 0)
(96.74506635 -2.520258537 0)
(95.74920937 -2.375715932 0)
(95.02885947 -2.198403541 0)
(94.55349734 -1.989597604 0)
(94.2222214 -1.698594337 0)
(94.08717088 -1.436614319 0)
(93.91562974 -1.044302457 0)
(93.85559938 -0.7605672641 0)
(93.81644107 -0.4555125505 0)
(93.8001556 -0.1529744576 0)
(107.0098001 -0.1509736572 0)
(107.0021022 -0.4486486383 0)
(106.9771574 -0.7493777788 0)
(106.928752 -1.026026344 0)
(106.801314 -1.270952836 0)
(106.6763724 -1.5346134 0)
(106.4330597 -1.777783064 0)
(106.0294463 -1.985746681 0)
(105.3850646 -2.173126588 0)
(104.3646001 -2.3175557 0)
(99.06170549 -2.255921652 0)
(100.7659691 -2.46554086 0)
(99.55785789 -2.423290107 0)
(97.95236984 -2.351004451 0)
(96.63190752 -2.250858439 0)
(95.60779331 -2.123703496 0)
(94.85939569 -1.968985699 0)
(94.35711289 -1.786506573 0)
(94.00051554 -1.530432797 0)
(93.8436509 -1.297718355 0)
(93.65917896 -0.9465404185 0)
(93.59061968 -0.6906974417 0)
(93.546058 -0.4139844547 0)
(93.527599 -0.1392502357 0)
(107.2805954 -0.1396113889 0)
(107.2703564 -0.4141712372 0)
(107.2394535 -0.6912907952 0)
(107.1820021 -0.9450952134 0)
(107.0494892 -1.16798179 0)
(106.9048707 -1.406625723 0)
(106.634267 -1.62477713 0)
(106.2081007 -1.810123214 0)
(105.5376475 -1.977035588 0)
(104.4383694 -2.101283581 0)
(99.01804057 -2.038198857 0)
(100.7720872 -2.225585405 0)
(99.50331032 -2.180472692 0)
(97.87413461 -2.111580679 0)
(96.53087926 -2.020505671 0)
(95.48338533 -1.907324889 0)
(94.71080483 -1.770794173 0)
(94.18425277 -1.609761383 0)
(93.80373329 -1.382936255 0)
(93.62597721 -1.174962246 0)
(93.42811837 -0.8597560412 0)
(93.35076648 -0.6282372138 0)
(93.30060625 -0.376806999 0)
(93.27972538 -0.1269254835 0)
(107.530852 -0.1293510248 0)
(107.5178573 -0.383164921 0)
(107.4808029 -0.639070566 0)
(107.4139685 -0.8728047546 0)
(107.2755704 -1.076004875 0)
(107.1113547 -1.292953171 0)
(106.814833 -1.489900233 0)
(106.3681847 -1.656290644 0)
(105.6733621 -1.806441807 0)
(104.4955156 -1.914262772 0)
(99.00977807 -1.853221717 0)
(100.7666514 -2.020455296 0)
(99.44907317 -1.973307047 0)
(97.80146615 -1.907517259 0)
(96.43972431 -1.823987346 0)
(95.37270606 -1.722190681 0)
(94.57915918 -1.600445232 0)
(94.03074491 -1.45699451 0)
(93.62783061 -1.254722222 0)
(93.43033255 -1.067626982 0)
(93.2190631 -0.7836990453 0)
(93.13296051 -0.5731643968 0)
(93.07721269 -0.3440032269 0)
(93.05378136 -0.1160170766 0)
(107.7627631 -0.1202381402 0)
(107.7468845 -0.3557353634 0)
(107.7036337 -0.5928611835 0)
(107.6273083 -0.8092196042 0)
(107.4824485 -0.9949946956 0)
(107.2990283 -1.193269141 0)
(106.978134 -1.372271744 0)
(106.5130824 -1.522841876 0)
(105.795162 -1.659208738 0)
(104.5395149 -1.753567936 0)
(99.03177013 -1.696933344 0)
(100.7529391 -1.845845788 0)
(99.39547776 -1.797315119 0)
(97.73357467 -1.734354441 0)
(96.35671438 -1.657162955 0)
(95.2732241 -1.564715323 0)
(94.46136488 -1.455051156 0)
(93.89321579 -1.326041298 0)
(93.4694184 -1.1443814 0)
(93.25339123 -0.9748371723 0)
(93.02892654 -0.7179437977 0)
(92.93429519 -0.5252831872 0)
(92.87309334 -0.3154825994 0)
(92.84706292 -0.1065037211 0)
(107.9786356 -0.112286454 0)
(107.9597965 -0.3318968044 0)
(107.9103911 -0.5526623312 0)
(107.8246165 -0.754225111 0)
(107.6728066 -0.9247422363 0)
(107.4707735 -1.107112469 0)
(107.1269473 -1.270635686 0)
(106.6455468 -1.40848733 0)
(105.9054503 -1.533445212 0)
(104.5730974 -1.616730825 0)
(99.07901459 -1.566066968 0)
(100.7332042 -1.698271395 0)
(99.34272647 -1.648905872 0)
(97.66980503 -1.588522213 0)
(96.28046311 -1.516681807 0)
(95.18290698 -1.431934402 0)
(94.35490046 -1.332150836 0)
(93.76881738 -1.214956319 0)
(93.32561436 -1.050577914 0)
(93.0922183 -0.8956800831 0)
(92.85483004 -0.6619661182 0)
(92.75198796 -0.484301123 0)
(92.68552502 -0.2910875065 0)
(92.65689049 -0.09834029911 0)
(108.1804822 -0.1054983353 0)
(108.1586586 -0.311622836 0)
(108.1031957 -0.5183886113 0)
(108.0081092 -0.7076974308 0)
(107.8491085 -0.8649250716 0)
(107.629201 -1.033876491 0)
(107.2640741 -1.184011231 0)
(106.7677206 -1.311946548 0)
(106.0061938 -1.427473052 0)
(104.5984761 -1.501630579 0)
(99.14689271 -1.458019282 0)
(100.7090562 -1.574957831 0)
(99.29093712 -1.525206625 -3.436129322e-36)
(97.60960069 -1.467157872 0)
(96.20982703 -1.399831088 0)
(95.10008749 -1.321407572 0)
(94.25769765 -1.229684378 0)
(93.65521286 -1.122350412 0)
(93.19384464 -0.9722550725 0)
(92.94419429 -0.8292572427 0)
(92.69431273 -0.6152777629 0)
(92.58361359 -0.4498871964 0)
(92.51211029 -0.2706413341 0)
(92.48090703 -0.09147690407 0)
(108.3713223 -0.09984526069 0)
(108.3464399 -0.2948283089 0)
(108.2849711 -0.4899006839 0)
(108.1807103 -0.6692372029 0)
(108.0136736 -0.8151989936 0)
(107.7766286 -0.9728861183 0)
(107.3922001 -1.1123209 0)
(106.8814411 -1.231904939 0)
(106.0990642 -1.339802763 0)
(104.6175551 -1.406585965 0)
(99.23124145 -1.370754419 0)
(100.6816836 -1.473708303 0)
(99.24016659 -1.423938252 0)
(97.55247309 -1.367985028 0)
(96.14383304 -1.304429221 0)
(95.02336085 -1.231133739 0)
(94.16803418 -1.145891727 0)
(93.55063883 -1.04669832 0)
(93.0717352 -0.908356873 0)
(92.80696672 -0.7747715392 0)
(92.54444837 -0.5772422146 0)
(92.42624249 -0.4217052797 0)
(92.34987298 -0.2539367607 0)
(92.31608989 -0.08584413657 0)
(108.5502321 -0.09537545175 0)
(108.5224248 -0.2815681261 0)
(108.4551088 -0.4671257097 0)
(108.3419355 -0.6393348498 0)
(108.168596 -0.7750972983 0)
(107.9151235 -0.923596465 0)
(107.5129592 -1.055610458 0)
(106.9885984 -1.167218341 0)
(106.1855844 -1.26915488 0)
(104.6319489 -1.330134247 0)
(99.32840437 -1.302469431 0)
(100.6520203 -1.392754012 0)
(99.19043519 -1.34329546 0)
(97.49796153 -1.289202767 0)
(96.08160285 -1.228726709 0)
(94.95147585 -1.159478113 0)
(94.08433081 -1.079279322 0)
(93.45311322 -0.9860592708 0)
(92.95748865 -0.8574842452 0)
(92.67830341 -0.7312304148 0)
(92.40507551 -0.5479542346 0)
(92.27974388 -0.3994647578 0)
(92.19873882 -0.2408897199 0)
(92.1625345 -0.08144099742 0)
(108.7308445 -0.09188357612 0)
(108.6995645 -0.271476277 0)
(108.6260542 -0.4497826282 0)
(108.5027742 -0.6148211393 0)
(108.3168179 -0.7445615496 0)
(108.0464901 -0.8860754685 0)
(107.6275521 -1.012503315 0)
(107.0906546 -1.117264962 0)
(106.2670862 -1.214512147 0)
(104.6430425 -1.271066229 0)
(99.43523556 -1.251736189 0)
(100.620858 -1.330760188 0)
(99.14176039 -1.281921491 0)
(97.44561903 -1.229435976 0)
(96.02232442 -1.171361773 0)
(94.8833095 -1.105161586 0)
(94.00516861 -1.028736153 0)
(93.36079037 -0.9399765364 0)
(92.8494632 -0.818989327 0)
(92.55642622 -0.6989459348 0)
(92.26696493 -0.5246612119 0)
(92.13383043 -0.3827971326 0)
(92.04802866 -0.2311004044 0)
(92.00896779 -0.07806017602 0)
(108.8707276 -0.09002973832 0)
(108.8373266 -0.2656890682 0)
(108.7591031 -0.4393020487 0)
(108.6298067 -0.6036454271 0)
(108.4565568 -0.7228078859 0)
(108.1720821 -0.859504334 0)
(107.7373905 -0.9822896404 0)
(107.1887808 -1.081258758 0)
(106.3447357 -1.174971506 0)
(104.6520991 -1.228349604 0)
(99.54909445 -1.217576897 0)
(100.5889173 -1.28680988 0)
(99.09411598 -1.23884312 0)
(97.39496107 -1.187637616 0)
(95.9652103 -1.131271228 0)
(94.81783675 -1.067187025 0)
(93.92931737 -0.9933944722 0)
(93.27238624 -0.9077301131 0)
(92.7461021 -0.7923841704 0)
(92.43998255 -0.6768862189 0)
(92.15719064 -0.5133993542 0)
(92.01937148 -0.3726276688 0)
(91.92994947 -0.2254320628 0)
(91.88924078 -0.07624686161 0)
(109.1389072 -0.08777143671 0)
(109.100644 -0.260244328 0)
(109.0129665 -0.4300507077 0)
(108.8652419 -0.5864195449 0)
(108.586839 -0.7111255857 0)
(108.2873945 -0.8443907852 0)
(107.8389644 -0.9650012374 0)
(107.2838632 -1.05864814 0)
(106.4195054 -1.149730218 0)
(104.6603373 -1.201290574 0)
(99.66747221 -1.199580224 0)
(100.5568984 -1.260431906 0)
(99.04744059 -1.213399167 0)
(97.3454936 -1.163022725 0)