/*--------------------------------*- C++ -*----------------------------------*\
| =========                 |                                                 |
| \\      /  F ield         | OpenFOAM: The Open Source CFD Toolbox           |
|  \\    /   O peration     | Version:  v1912                                 |
|   \\  /    A nd           | Website:  www.openfoam.com                      |
|    \\/     M anipulation  |                                                 |
\*---------------------------------------------------------------------------*/
FoamFile
{
    version     2.0;
    format      ascii;
    class       volScalarField;
    location    "2.71";
    object      nut;
}
// * * * * * * * * * * * * * * * * * * * * * * * * * * * * * * * * * * * * * //

dimensions      [0 2 -1 0 0 0 0];


internalField   nonuniform List<scalar> 
12556
(
1.155889283
1.155859627
1.155828783
1.155803535
1.156028837
1.15602633
1.156041476
1.156079541
1.156152537
1.156277401
1.156442484
1.156653308
1.088765151
1.10011326
1.156599128
1.156421741
1.156267018
1.156162782
1.156083807
1.156051932
1.155826288
1.155834405
1.155857032
1.155883801
1.155145669
1.155058477
1.154972925
1.154911212
1.155122116
1.155144448
1.15523797
1.155499915
1.155842599
1.156424237
1.157264185
1.109026951
1.006221788
1.001923935
1.084782101
1.157378161
1.15656766
1.155958809
1.15548665
1.155270107
1.154952355
1.154984662
1.155053005
1.155133221
1.15437024
1.154222512
1.154082947
1.153998985
1.154234487
1.15432631
1.154554066
1.155067257
1.155904796
1.157286857
1.00762641
0.8554992519
0.7894144749
0.7924050897
0.864687471
1.009791187
1.157596519
1.156188434
1.155145196
1.154627293
1.154173235
1.154148123
1.154236704
1.154367616
1.153577961
1.153379204
1.153204768
1.153129035
1.153388631
1.15361388
1.154153411
1.155083915
1.156816353
0.9300273682
0.7116392655
0.5893178204
0.537899061
0.5486652749
0.6158475673
0.7380863545
0.9376521003
1.157327358
1.155293051
1.154247403
1.153430952
1.15335659
1.153438471
1.153605029
1.152762775
1.152512701
1.152312914
1.152267673
1.152620194
1.153061721
1.154093141
1.155747019
0.9711943532
0.6729541333
0.482099521
0.3678221908
0.3212869051
0.3394601221
0.4099720756
0.5232753468
0.6945684324
0.9631004294
1.15618648
1.154239097
1.152919285
1.152606218
1.152636781
1.152821967
1.15194437
1.151660501
1.151461463
1.151480046
1.151958274
1.152729742
1.154498847
1.14935018
0.7681984433
0.5037676726
0.3234730625
0.2064086814
0.160566502
0.1873946795
0.2625544934
0.3719460266
0.525865261
0.7556351352
1.117240113
1.15469644
1.152556291
1.151925045
1.151849673
1.152024727
1.15112474
1.150810142
1.150625939
1.150739112
1.151443137
1.152653294
1.155415977
0.9983560745
0.6458232274
0.4042115466
0.2298856868
0.1043565432
0.05880289083
0.09266334885
0.1710206141
0.2752444286
0.415900837
0.6145902449
0.9513749226
1.155719127
1.152380859
1.151302288
1.15105419
1.151193367
1.150336576
1.150010011
1.149872198
1.150155722
1.1510726
1.152864693
1.156738118
0.9056215848
0.5913578688
0.3731374073
0.211944064
0.08691978286
0.05265469758
0.1289242942
0.223895901
0.3523514992
0.5331486291
0.8377104329
1.157133457
1.152447892
1.150792601
1.150296073
1.150365932
1.149609145
1.149273405
1.14919621
1.149698076
1.150815477
1.153363025
1.158277184
0.8588711445
0.5872386977
0.4006723262
0.2745133485
0.1980329493
0.06362191199
0.1253907225
0.2083026989
0.3250665184
0.4895340021
0.7701366549
1.134975318
1.152749886
1.150409397
1.149606697
1.1495845
1.14898334
1.148655209
1.148663193
1.149389009
1.150767474
1.154115255
1.138945997
0.8535603721
0.6119894484
0.4545891189
0.3679574171
0.3732317177
0.08890819969
0.1418633518
0.2171185496
0.3255514777
0.47805333
0.7383912714
1.070135138
1.153320337
1.150251332
1.149086328
1.148943143
1.148460369
1.148144673
1.148255317
1.149255497
1.150948735
1.155065747
1.123907694
0.8637942169
0.6474167562
0.5088284314
0.4445623801
0.5050192924
0.1206684778
0.1708030194
0.2434402846
0.3469542019
0.4913686323
0.736269357
1.034003997
1.154122128
1.150306006
1.14877609
1.148503778
1.148087688
1.147792581
1.148007105
1.149269632
1.151288291
1.156149357
1.123914047
0.8873708449
0.6859238924
0.5510562731
0.4776094979
0.4744632164
0.1571774664
0.2115913833
0.2866331203
0.3893631439
0.528623877
0.7602436719
1.031308052
1.155179684
1.15065299
1.14874765
1.148335697
1.147806834
1.147536975
1.147900032
1.149460093
1.151731612
1.157250552
1.132762964
0.9270606242
0.7311352209
0.5892559398
0.4838258945
0.4262042799
0.060362955
0.2033559876
0.2720263298
0.3533816166
0.4555388149
0.5957213329
0.8055736036
1.045516577
1.156318077
1.151208595
1.148964816
1.148435448
1.147670023
1.147426559
1.14791665
1.149710682
1.152419826
1.158572113
1.166082352
0.976266607
0.7950344116
0.645972933
0.5187908781
0.2872339366
0.1189713867
0.2997851445
0.3792006652
0.4580726536
0.5538479111
0.683170161
0.8735983864
1.088353074
1.157518085
1.15196248
1.149415391
1.148775137
1.147571267
1.147345209
1.147948914
1.149979428
1.1530151
1.159659953
1.167413705
1.061434028
0.8927042725
0.7522271047
0.6209942173
0.09435141011
0.1663100773
0.4326495744
0.5755319774
0.6217248468
0.6949175483
0.8089947465
0.9787985565
1.166052985
1.15867062
1.152771366
1.150003658
1.149291792
1.147565847
1.147354756
1.148048656
1.150272479
1.153579594
1.160584418
1.168541515
1.168074231
1.042153636
0.9310342545
0.8453760115
0.0545978445
0.1850573651
0.4544146979
0.7279563797
0.8627266652
0.8896072329
0.9732027432
1.124205818
1.168402
1.159725378
1.153598857
1.150674619
1.149905408
1.147522664
1.147311876
1.148069271
1.150477074
1.15405511
1.161304746
1.169325039
1.168813227
1.148051547
1.075849596
0.760675531
0.03580311204
0.2105622613
0.479032825
0.7490319139
0.9568550343
1.079576226
1.140148818
1.167131038
1.16932433
1.160596903
1.154349889
1.151320013
1.150513595
1.147525371
1.147312365
1.148105676
1.150636795
1.154401362
1.161798797
1.169765427
1.169099427
1.145954237
1.05724937
0.6327717387
0.03009427056
0.2399821682
0.5040903561
0.7673533214
0.964016646
1.082098436
1.141704479
1.167944968
1.169894537
1.161258974
1.154991848
1.151934816
1.151105808
1.147435038
1.147207529
1.14801049
1.150649645
1.154600584
1.162066484
1.169888153
1.168917225
1.143955013
1.038324082
0.5141655162
0.03194543777
0.2619343205
0.5201343164
0.7760731311
0.9668647921
1.083265403
1.142299072
1.168210228
1.170122757
1.161679565
1.155456237
1.15240703
1.151567041
1.147374305
1.147136833
1.147931032
1.150612583
1.154649667
1.162124554
1.169733658
1.168372411
1.141402819
1.0211773
0.4587809023
0.03391784585
0.2690947749
0.5232441674
0.7785655222
0.9682570901
1.08348871
1.142206867
1.168049455
1.170062433
1.161948824
1.155839162
1.152817339
1.151966278
1.147192302
1.146940253
1.147712462
1.150429553
1.154565526
1.162001107
1.169354852
1.167555978
1.138394591
1.002065311
0.424661653
0.03596711896
0.2729861463
0.524817561
0.7782805879
0.9683898756
1.083016384
1.14162668
1.167560631
1.169775482
1.162019496
1.156044334
1.153059042
1.152199366
1.147048715
1.146793897
1.147542913
1.150243625
1.154372117
1.161731891
1.168803715
1.166539534
1.134985801
0.9798289685
0.4022129232
0.0381962875
0.2757295597
0.5254203388
0.7761533654
0.9671917017
1.081956067
1.1406857
1.166825788
1.169318474
1.162009529
1.156206734
1.153258837
1.152383986
1.146770988
1.146513255
1.147239357
1.149939513
1.154102651
1.161355972
1.168127254
1.165375622
1.131152662
0.953790328
0.3870357207
0.04057326287
0.2775650041
0.5252114371
0.7730434206
0.9647094446
1.080316312
1.139446017
1.165905403
1.168736762
1.161848835
1.156207225
1.153292301
1.152401231
1.146553786
1.146306413
1.147018344
1.149683199
1.153780366
1.160908871
1.167364353
1.16408746
1.126668931
0.9266855641
0.3768922955
0.04306549241
0.2786513608
0.524324277
0.7693813881
0.9612308654
1.078106253
1.137933923
1.164839882
1.168063747
1.161669011
1.156213128
1.153326378
1.15241162
1.146195654
1.145957666
1.1466587
1.149317485
1.153427284
1.160415625
1.166539657
1.162667728
1.121190736
0.9018425717
0.3704064047
0.04562959164
0.2790811837
0.5228713468
0.7653518782
0.9570818615
1.075388324
1.136171795
1.163657996
1.167323524
1.161362927
1.156066006
1.153200056
1.152260941
1.145924323
1.14570709
1.146407884
1.149032588
1.153049815
1.159891555
1.165666333
1.161088877
1.114576455
0.880475622
0.3666722307
0.04830127935
0.2789794231
0.5209493968
0.7610407506
0.9524938575
1.072255126
1.13418979
1.162383264
1.16653321
1.161084538
1.155970154
1.153121476
1.152152011
1.145508955
1.145308762
1.146009054
1.148629017
1.152659575
1.159345584
1.164751605
1.159321907
1.106937968
0.8624662591
0.3651021595
0.05105314452
0.2784690308
0.5186322387
0.7565043694
0.9476123098
1.068799673
1.132023246
1.161035938
1.165705677
1.160684206
1.155718994
1.152882076
1.151883401
1.145201813
1.145028314
1.145739439
1.148332309
1.15225458
1.158783572
1.163799116
1.157342273
1.098649524
0.8472529396
0.3650350248
0.0538830369
0.2776345581
0.5160064876
0.7517918476
0.9425302861
1.065100197
1.129705639
1.15963188
1.16485013
1.160350724
1.155560621
1.152733917
1.151701741
1.144755705
1.144602533
1.145318887
1.14790482
1.151845025
1.158210081
1.162811259
1.155137417
1.090094354
0.8343807326
0.3662286003
0.05691425199
0.2765581964
0.513155309
0.7469448158
0.9373110354
1.061217489
1.127264658
1.158182272
1.163972597
1.159888121
1.155239876
1.152421231
1.151358837
1.144421082
1.144297539
1.14503264
1.147602898
1.151426194
1.157629731
1.161790045
1.152715112
1.081583545
0.823489539
0.3684409564
0.06013937786
0.2752822639
0.5101429175
0.7419954804
0.9320007312
1.057197396
1.12472087
1.156693846
1.163077516
1.159522003
1.155040507
1.152230058
1.151133838
1.143975623
1.143872909
1.144616104
1.147171944
1.151009477
1.157046291
1.160737289
1.150103154
1.073340959
0.8143210575
0.3714719504
0.06365140881
0.2738251663
0.5069747945
0.7369807809
0.9266425406
1.053077391
1.122089757
1.155170077
1.1621655
1.159023949
1.154683892
1.151882462
1.150758228
1.143604165
1.143532685
1.144300084
1.146856836
1.15058859
1.156463424
1.159654163
1.147339996
1.065498351
0.8066514278
0.3752604416
0.06754620001
0.2722077806
0.5036842437
0.7319619839
0.9212882514
1.048891938
1.119383418
1.153612335
1.161239556
1.158621881
1.154440329
1.151649698
1.150493023
1.143203814
1.143151882
1.143929967
1.146463279
1.150174595
1.15588292
1.15854024
1.144459241
1.058081074
0.8001223092
0.3795638285
0.07182976539
0.2704521457
0.5003609779
0.7270253062
0.9159948812
1.044671891
1.11661175
1.152021546
1.160294976
1.158132689
1.154096931
1.151318263
1.150138683
1.142759906
1.142740743
1.143545996
1.146092377
1.149763072
1.155308951
1.157394098
1.141482293
1.051034889
0.7944096129
0.3839869921
0.07635782107
0.2686143855
0.4971199891
0.7222574142
0.9108100666
1.040442361
1.113785493
1.150402794
1.159341699
1.157642124
1.153768408
1.151007466
1.149796704
1.142470199
1.142468266
1.143287944
1.145822952
1.14936814
1.154751186
1.156225341
1.138422039
1.044295554
0.7892269859
0.3882725477
0.08111351371
0.2668826577
0.4940865771
0.7177198196
0.9057618242
1.036220856
1.110913158
1.148775903
1.158379945
1.157270578
1.153520363
1.150774024
1.149548217
1.141888245
1.141927506
1.142785018
1.145335151
1.149026926
1.154249061
1.155099782
1.135292883
1.03783469
0.784456208
0.3923000884
0.08611472244
0.2653967321
0.4913638844
0.7134715307
0.9008799399
1.032028365
1.108004312
1.14721614
1.157483612
1.156575009
1.153051233
1.150340196
1.149082299
0.1758120053
0.05668115275
0.04552955798
0.3559940998
0.08134431098
0.05958508549
0.4924469231
0.1140464481
0.08520690565
0.4816339226
0.1441457369
0.1188516556
0.4308552919
0.04493458233
0.05651143032
0.1791531762
0.1479742547
0.3337269832
0.08888253584
0.04619851083
0.1130642698
0.2427075547
0.1821959364
0.0843847266
0.05908206025
0.04704148762
0.08793259957
0.02893494932
0.01956730226
0.06114463335
0.106417493
0.1092800739
0.3447475664
0.3451723944
0.2034520512
0.03260464129
0.04793475139
0.08557845614
0.1215927956
0.1086968031
0.4290002521
0.4730935043
0.3619579759
0.4218355291
0.2113748783
0.2404323864
0.05675275288
0.04061515682
0.116603662
0.1491173216
0.1275779636
0.4730939243
0.5014939587
0.4857998654
0.515313444
0.1344415533
0.1765871537
0.1041879834
0.07700038187
0.4795488085
0.4436143892
0.4966491933
0.462727592
0.07774044505
0.1036224397
0.01919416459
0.1351853256
0.1304364717
0.5068846424
0.3919020153
0.4349180225
0.3925775693
0.02984467466
0.04948702014
0.282990502
0.1213111995
0.09093503277
0.06902690659
0.1649951328
0.0328870808
0.06260021151
0.04798407303
0.03015816337
0.04875506755
0.03199567979
0.04698390984
0.2444489501
0.2737464644
0.2941559767
0.2119288403
0.194800885
0.1901743627
0.2153203669
0.04020958494
0.03243909291
0.07094066217
0.04761987429
0.05402228407
0.04828864741
0.04784604426
0.06950932913
0.1795952543
0.2071101631
0.4396700659
0.1601965056
0.1338466587
0.1928220776
0.1623929726
0.07338846663
0.05812814259
0.1017234443
0.07876975591
0.1006664666
0.05455372598
0.07593713507
0.09739946011
0.1050984477
0.1326873081
0.5073023777
0.105827563
0.07949803451
0.1323420067
0.1072504309
0.1294547633
0.1083884802
0.05046780776
0.0759238054
0.4608705179
0.01370402122
0.05283672572
0.0315113153
0.0784024335
0.0544223846
0.01240840952
0.1414089042
0.1369068265
0.02173644788
0.004697447717
0.02953567464
0.3875426918
0.07226231023
0.01852332897
0.01059046492
0.03116268079
0.01885185655
0.0692521803
0.2534474194
0.1833717976
0.1011807573
0.1094056863
0.06840122181
0.03870129851
0.01826071584
0.008432179686
0.2708475316
0.277526321
0.181651087
0.009153465295
0.1502597454
0.1851829207
0.1573327356
0.01055659897
0.06240003407
0.05420713365
0.08583667379
0.1573865022
0.1451366585
0.1636834116
0.07622441883
0.1226303328
0.04179358139
0.01335497152
0.02309096002
0.02243265295
0.0303091835
0.04724392782
0.05253593362
0.03775047275
0.1331297532
0.1238822501
0.1316502168
0.1041856234
0.1226698988
0.1299980631
0.03096683624
0.01194144617
0.05473877831
0.02332746734
0.03986132522
0.03208223607
0.01976249087
0.03060375445
0.02218951957
0.01681498069
0.02310252738
0.0208018952
0.01002784983
0.01671092835
0.0218641889
0.04132293001
0.04198447929
0.04877922757
0.04764438293
0.0191333885
0.009983657027
0.09209006
0.01613263336
0.02946491552
0.009315317482
0.01367414563
0.08809202746
0.09236222383
0.2646750833
0.251193557
0.0791656082
0.06670411259
0.01040912935
0.04452116304
0.1925294758
0.1793519848
0.210746006
0.197870546
0.04487795874
0.05098151778
0.04214595363
0.1019846955
0.0671397564
0.05952814426
0.04012008896
0.06661825075
0.115156203
0.03994312054
0.02407241044
0.01522668634
0.05405885132
0.02685872353
0.04422427893
0.0257181217
0.061593753
0.03883022367
0.03818660143
0.2083166642
0.03091896564
0.2075556665
0.2327841244
0.03475294346
0.03905843106
0.03135018562
0.03423825059
0.2284573149
0.03845402423
0.03814743939
0.05130740077
0.06827942505
0.0637190293
0.07466046139
0.06989143386
0.05161745521
0.0569364071
0.05606828607
0.05098682231
0.06207500809
0.05747543916
0.05588641569
0.1472677167
0.1455657832
0.1788363708
0.1769417134
0.06931678695
0.009148389634
0.06795756026
0.09604449887
0.09416007274
0.1192052316
0.1175092342
0.03142273985
0.04645577505
0.1204250085
0.03514792015
0.02058731028
0.06673391912
0.2288125015
0.2154317845
0.2466352912
0.2332470765
0.0680706286
0.02818960316
0.04831635299
0.04730006031
0.07113864404
0.07026792471
0.006988315111
0.0371077194
0.09642834444
0.0835399436
0.1742173004
0.1645518232
0.02364762858
0.01191039577
0.02222067716
0.01477598595
0.02971503487
0.0117637203
0.01402847666
0.01203305333
0.02975150232
0.05863079014
0.01218274781
0.01869935334
0.00346393589
0.02002528561
0.01504197245
0.583530531
0.3856149606
0.380181835
0.2586460267
0.008364046909
0.005310511262
0.1607531179
0.3598818281
0.2726407533
0.005887810341
0.01330220502
0.01069595996
0.1132211556
0.1010429045
0.03991176226
0.1947725027
0.1635315053
0.08923719863
0.009658599896
0.01638460584
0.01308677007
0.008660686178
0.01282288953
0.009037601987
0.03515507431
0.01503706042
0.01408856718
0.04487586732
0.05289175736
0.01559740087
0.02133887267
0.01014974252
0.01020988817
0.04247524395
0.1493629576
0.333846053
0.3209580315
0.3509461534
0.3381333152
0.152791899
0.2821675917
0.268933774
0.09369549395
0.03283545937
0.09647959975
0.09110012475
0.01132142831
0.01610815205
0.09857286651
0.04524108243
0.01705997885
0.0151535481
0.03759128553
0.04299019243
0.03876939198
0.04938755194
0.04448626243
0.03899358128
0.03932158103
0.0104508169
0.01019848957
0.03389940554
0.1913310756
0.3677684987
0.3551459076
0.05979349861
0.06179500184
0.1388456405
0.02264179159
0.02473720258
0.06198114577
0.08752663768
0.101723849
0.09410438914
0.06114587201
0.08216470909
0.07652805328
0.09133057963
0.08438637574
0.06233153241
0.1190135526
0.2994992337
0.2864739825
0.3166742245
0.3038229789
0.1208946158
0.1017172157
0.03646549993
0.03719736835
0.02106820168
0.02189280964
0.08401207143
0.126936193
0.05553051272
0.05938067688
0.03750599468
0.03819353835
0.1115246215
0.1245480466
0.04890820616
0.06619753213
0.007469354452
0.0191049231
0.05049333734
0.03849585957
0.07524704907
0.0204375322
0.02092416163
0.02002613146
0.06378713674
0.01087016085
0.004392476956
0.1255891066
0.1076871761
0.08926187436
0.08491094236
0.02917242694
0.02021503438
0.03294606326
0.08143496574
0.01829760034
0.0114316435
0.01988924837
0.02639402784
0.002853582777
0.0306863555
0.01988359445
0.01215663823
0.006257281665
0.01192113615
0.009217544789
0.009064504571
0.02931317662
0.02246757905
0.006846864753
0.0386255181
0.04035569058
0.01550445047
0.01115577399
0.00726655757
0.01164235517
0.01685955276
0.01066911816
0.01382046563
0.04432191238
0.01006403665
0.00968629696
0.01108552872
0.01287824903
0.03692289337
0.01128642995
0.01116533732
0.01307869281
0.01112694304
0.01175727346
0.01953885824
0.0142548246
0.02830552071
0.02197467233
0.01161737879
0.01660484705
0.02165622363
0.01831257557
0.02930164295
0.02297991127
0.01790758407
0.01606168595
0.01253269226
0.01294009288
0.01011630294
0.03717655941
0.04416019527
0.01382745923
0.01304453702
0.01461018153
0.01513218788
0.05157908258
0.009483218639
0.009614977969
0.01226099701
0.009651228047
0.009666579829
0.04369511048
0.009848825716
0.01433127689
0.01320436685
0.01194261802
0.02129842303
0.0552978465
0.05011230568
0.01096475498
0.04099993281
0.03504623702
0.04822646384
0.04313821805
0.01146207536
0.01163608026
0.03842990834
0.03193552915
0.1051255192
0.09839726691
0.03661572773
0.0470537722
0.1125547099
0.1069630472
0.04565503555
0.0447330877
0.06949916212
0.08208635506
0.1011557064
0.06153184132
0.0768921448
0.07051440948
0.06108659568
0.1446523199
0.1323597041
0.1104148793
0.1484516842
0.06099880791
0.03973821429
0.0452239351
0.05632290693
0.03443319363
0.03864104964
0.02384675934
0.02261200745
0.04380728923
0.01627606874
0.01640632607
0.01293683418
0.02375568082
0.02808109743
0.01706919985
0.02396965213
0.0343064563
0.0326905493
0.02501243304
0.02905968621
0.09689806714
0.08449552283
0.1036922736
0.09950158653
0.03020884201
0.07567611006
0.07335088499
0.08096536008
0.07652127501
0.03632808981
0.1214376296
0.1165826173
0.1293678326
0.1231708724
0.03693733047
0.03250511894
0.1092003429
0.1051432438
0.1150364919
0.1106158511
0.03286342344
0.01084957309
0.01055649433
0.03907367046
0.03533882299
0.01054348441
0.01097301907
0.04302705744
0.04224080563
0.04524335291
0.04329736171
0.04080048566
0.03973430145
0.04198126521
0.0410751396
0.06982389968
0.06778154402
0.07262919196
0.07053683814
0.06211808009
0.04800532485
0.06692649832
0.06475874586
0.02559391796
0.02169181707
0.03332162696
0.02773804264
0.007046501157
0.01382351653
0.01294068471
0.02024782015
0.01425614977
0.03549617612
0.03610627687
0.1003141783
0.02101491138
0.02081062713
0.02166375915
0.02120060301
0.0201641518
0.08642802502
0.0225127201
0.03336666729
0.04036657787
0.05361795129
0.125060491
0.03693000934
0.02378137295
0.03959502773
0.03660629451
0.02243106493
0.02189911254
0.02334815596
0.02265256443
0.1129761495
0.03842820731
0.03932795398
0.006527294141
0.02896108838
0.009556321127
0.009964819659
0.009528273605
0.02692286923
0.007773983037
0.02146401711
0.01093796251
0.01116652486
0.04983674075
0.04336854907
0.01983571788
0.02032915581
0.07427980975
0.0660079809
0.01895171133
0.01977093782
0.01048812509
0.02808730829
0.08223967623
0.07368340296
0.01275146444
0.01220512277
0.01750844383
0.01180093685
0.01288965716
0.01774740577
0.03057517609
0.008261992456
0.01281260851
0.01159762817
0.01217143498
0.0207171712
0.05411437213
0.1148922655
0.1488516177
0.01014917611
0.01003507201
0.1859228278
0.2368828044
0.1961842891
0.006730377885
0.03885965012
0.01395361228
0.01909737989
0.1359239921
0.1415853256
0.1586624982
0.004842389178
0.007532261277
0.005579431555
0.004863170857
0.005840641298
0.004568620956
0.05785987973
0.03618932996
0.02273475586
0.02579100983
0.02311984239
0.02703503072
0.224065505
0.4005124337
0.3882922433
0.3914755323
0.4046595744
0.2281774719
0.04703987235
0.0407252969
0.01283105951
0.07034246401
0.08281651957
0.1332031712
0.1200025366
0.11433269
0.04754417336
0.02847448515
0.03385890573
0.03291079651
0.3842638429
0.3719033289
0.1951167482
0.1543694622
0.06762644804
0.07154477312
0.07470621143
0.08580885201
0.1690147099
0.05818460832
0.1285012093
0.1219739492
0.010800028
0.01087614361
0.01514215467
0.01963334932
0.01992641146
0.0323532265
0.01144398603
0.01077774488
0.01062208627
0.02867048609
0.05674911875
0.04883311009
0.0184761907
0.03095099855
0.01920284835
0.0193724827
0.0188695919
0.0154426202
0.009387183069
0.011629425
0.01092516362
0.01050560072
0.0245110409
0.03047839189
0.06204782945
0.04056745686
0.03743927135
0.03421920091
0.02521395455
0.04647668953
0.01593916758
0.02220034372
0.01142742967
0.008137936441
0.008251827668
0.01158964716
0.01156800391
0.0235138825
0.01487531527
0.01014216489
0.01966432974
0.01966364616
0.01802320176
0.01589722298
0.0194866601
0.01750401277
0.0106366258
0.01132060075
0.006546103183
0.009232286085
0.01076925477
0.06245914096
0.05699329158
0.02317065066
0.00912773857
0.01411570716
0.01278354766
0.01081074081
0.01479194749
0.01306303567
0.04878351782
0.03743718842
0.04301803003
0.06801955075
0.09688051878
0.09533098537
0.04172467051
0.06828994978
0.06447237571
0.09422352828
0.0922627772
0.0651025142
0.03420618932
0.04102960811
0.03605698215
0.02770262029
0.02850643784
0.02345812772
0.04773900763
0.04628685453
0.05175725144
0.02328995969
0.03370375372
0.03204371149
0.05253138122
0.05214241261
0.0306602543
0.02831947916
0.02789900913
0.03099566323
0.03027694159
0.03530943432
0.05891685781
0.05826908855
0.06275904767
0.06194800752
0.03827211264
0.0316912398
0.05381690798
0.05327753323
0.05760383831
0.05694917693
0.0337624887
0.06492955449
0.06689892318
0.1525461993
0.1404469015
0.06239568129
0.06430516416
0.09296393348
0.09628026744
0.1847909334
0.0262794148
0.02613645284
0.02765641695
0.02743526014
0.02000447284
0.02586161535
0.02575884672
0.1710160959
0.08811679928
0.09172716928
0.009170947738
0.009197183337
0.01234924202
0.01180464875
0.009155459411
0.009097949153
0.007483824996
0.06332017241
0.025747518
0.03169469009
0.136957722
0.1306781515
0.0614428372
0.07107272826
0.144489209
0.1388313003
0.03166404798
0.0317285611
0.04867407444
0.0469781667
0.03126775718
0.03122995993
0.01053045121
0.02240313419
0.0355340812
0.03515971684
0.008408855782
0.01425695081
0.01964099237
0.01298324859
0.01226223374
0.01830198398
0.01854572545
0.03016632642
0.01181183903
0.008599905144
0.01171746824
0.0118045392
0.02819312243
0.01780901319
0.0183932026
0.01420255854
0.03619312373
0.03060300444
0.01030478545
0.01030934354
0.01060309865
0.0109960738
0.01652518962
0.006444232828
0.004198061715
0.007774656925
0.0119191939
0.009914168471
0.01038326817
0.009867656445
0.01007526888
0.01093003094
0.01023569311
0.006786718077
0.005306436564
0.01293272677
0.01331078809
0.01252092622
0.0126231301
0.0146003624
0.02233321224
0.02264290062
0.02190110922
0.02216533578
0.01446728581
0.01004450768
0.01713662088
0.01711187821
0.01770459132
0.01727127074
0.009881719908
0.01618683693
0.02507935858
0.02785716939
0.02293562804
0.02367504855
0.0156963268
0.01042126074
0.01710661489
0.0170994404
0.01706346538
0.01710491422
0.01028618749
0.01208062055
0.0123143167
0.01164519819
0.01224644582
0.03662714969
0.05592516965
0.05545105649
0.02131282434
0.03530593512
0.03505950553
0.03661104013
0.03566044429
0.02152104222
0.01100922179
0.01073450006
0.01081624178
0.01106499061
0.01990369325
0.01971181183
0.02032984541
0.02011438945
0.01550996961
0.03441960538
0.02051791605
0.02143690684
0.02061807079
0.03458647282
0.03436901744
0.034908996
0.0347301724
0.02074684521
0.02122576094
0.02063333403
0.03101609431
0.02218519171
0.01591863381
0.007275664651
0.01070131018
0.01088111828
0.007218875706
0.04194517132
0.02907151027
0.003011027224
0.0291784225
0.0447363826
0.04438008882
0.01825841014
0.01137154448
0.008335212675
0.003659999591
0.01257615182
0.01274056387
0.01897278016
0.01913441839
0.03087935854
0.01929513821
0.01027367538
0.009954104715
0.01499258521
0.004163782857
0.009096778102
0.007092609498
0.005731865766
0.006912507932
0.00922341263
0.006715057587
0.01034413996
0.01062964479
0.01031190289
0.04031776253
0.03097688258
0.008415059589
0.01046619995
0.01168576034
0.01859749544
0.02090979161
0.0124182999
0.01525693651
0.01466725776
0.009912865384
0.006588832895
0.009909325449
0.01109538147
0.007717423105
0.01111991572
0.011376936
0.01203381325
0.01151610642
0.01124907579
0.01153703886
0.01142344909
0.01154996935
0.01161832092
0.01154502523
0.01156699425
0.01176505849
0.01250498109
0.01204271313
0.02058978136
0.02091385628
0.0205952964
0.02677897054
0.02552137041
0.01992603444
0.01861472525
0.01992099941
0.01235596939
0.01976344623
0.02096463758
0.01429689393
0.01979878356
0.01321161465
0.01356118462
0.02147351893
0.02172210401
0.02099464218
0.02134426497
0.01337009083
0.01478003214
0.02563209098
0.02517953745
0.009557096766
0.009577427569
0.01075145684
0.00860933582
0.009244769569
0.009401064915
0.009575539115
0.009256459421
0.01166158889
0.02118497742
0.01895778718
0.02447683513
0.02321635679
0.01346215684
0.009249841413
0.01001855875
0.01535943148
0.006473370731
0.009391998432
0.009363630834
0.01152935974
0.009256072677
0.009460283928
0.01853118058
0.01648328015
0.009910532608
0.04694121397
0.04364087143
0.08461964055
0.07554801328
0.0437412886
0.06482023199
0.09131481945
0.08755190999
0.03535908875
0.03238106567
0.03121959146
0.02300664494
0.0289707099
0.04457564849
0.04504983953
0.03888392433
0.02377407627
0.0340214126
0.03452063282
0.0309510206
0.03199788953
0.02240844719
0.01546944579
0.01661073986
0.02532510409
0.01804118792
0.01715342103
0.01921054793
0.01822857106
0.02569880267
0.01752599963
0.01820718164
0.01445128019
0.01876546415
0.04793875382
0.04814075485
0.03053283289
0.03017933456
0.05111444164
0.05110690206
0.02902521772
0.02862299646
0.02981427358
0.02938220154
0.06010822129
0.05948623695
0.03572641705
0.03758841937
0.06132462098
0.06072083416
0.05507813066
0.05450109246
0.0321460509
0.03326683462
0.05628259671
0.05567600879
0.0107481751
0.01713527328
0.01715282679
0.0171315045
0.01715366618
0.01070401097
0.01099522769
0.01589831938
0.01381712643
0.0170577391
0.01675701098
0.0109933708
0.04275222226
0.02498644893
0.02525617879
0.02456659287
0.02477094217
0.04250252308
0.04410920917
0.02619274669
0.0266714991
0.02551991952
0.02582977729
0.04362265166
0.04041263076
0.02335200983
0.02359264095
0.02298657819
0.02321771065
0.04017878706
0.04169690066
0.02417569703
0.02436504942
0.02375470634
0.02398950057
0.04142066953
0.02672145514
0.02653823304
0.06915209751
0.0460009246
0.04632905528
0.04528416696
0.04556943129
0.06840409418
0.02717172604
0.02696567449
0.02462552041
0.02588732001
0.05999143627
0.04147854444
0.04116702246
0.02756439306
0.02896810798
0.05342844737
0.06643293284
0.04456642726
0.0447684421
0.04383197072
0.04377868672
0.06515149243
0.02542691957
0.02547575358
0.009124526788
0.009340188143
0.009011341693
0.01126056502
0.01005870759
0.01347673067
0.009310539381
0.009260875009
0.009286085976
0.009295792224
0.01332528519
0.01812621722
0.01027920139
0.01166814775
0.009422503413
0.009207471078
0.01567884296
0.03541942991
0.05333104544
0.05302429872
0.05474895649
0.05438710831
0.03600826746
0.02097324545
0.02073569113
0.02154357775
0.02127137013
0.02129365828
0.01674304988
0.02364045928
0.04359130187
0.03892313562
0.0508299458
0.04903617855
0.03351103336
0.0258355366
0.01793952544
0.02309516866
0.02454478047
0.03891054887
0.02263726391
0.02292486297
0.02197012619
0.02269382512
0.03898056736
0.02226867113
0.0220434406
0.02308569222
0.02284230594
0.009757411391
0.01162615051
0.01118727083
0.01470757387
0.01265160439
0.009735028028
0.009402901748
0.00959262583
0.01062359532
0.01006838116
0.006468495369
0.01121852885
0.01095186821
0.01100540384
0.01222848084
0.01146129597
0.01111895524
0.01926475062
0.01921987962
0.01951109954
0.01944844704
0.02961660844
0.02958966651
0.04497716822
0.0184603227
0.01949149805
0.01899141467
0.01905712299
0.02005246694
0.03380003017
0.03344612255
0.034216496
0.03394071258
0.02013244915
0.01949853696
0.03276349785
0.03094101856
0.03332375924
0.0327500223
0.01948571762
0.01068880796
0.04276037213
0.04219410594
0.0278857464
0.01285238904
0.01060055162
0.01050885404
0.007932195892
0.01092476872
0.01233510115
0.01809174062
0.0123011782
0.01272900202
0.01260384202
0.03028546618
0.01865368232
0.01885737003
0.01151116829
0.01180108413
0.01173074674
0.01220736506
0.01222171586
0.008514787918
0.00858513775
0.01213628403
0.01185565283
0.01213215656
0.01512431193
0.01866720747
0.02824702611
1.155140331
1.155619499
1.155740546
1.155825824
1.156641998
1.156259605
1.156963285
1.134869406
1.157041408
1.087627427
0.9501164912
1.127078814
0.9240607354
0.8562746499
1.01246863
0.852611685
0.8444336851
0.9984337312
0.8516044408
0.9041429111
1.06915728
0.9258000658
1.038086866
1.157633173
1.077957822
1.157586705
1.156746506
1.157212358
1.156296267
1.156087599
1.155025468
1.156037096
1.155648758
1.156485745
1.083879006
1.156889409
1.009087597
0.8263264716
1.059317268