/*--------------------------------*- C++ -*----------------------------------*\
| =========                 |                                                 |
| \\      /  F ield         | OpenFOAM: The Open Source CFD Toolbox           |
|  \\    /   O peration     | Version:  v1912                                 |
|   \\  /    A nd           | Website:  www.openfoam.com                      |
|    \\/     M anipulation  |                                                 |
\*---------------------------------------------------------------------------*/
FoamFile
{
    version     2.0;
    format      ascii;
    class       surfaceScalarField;
    location    "2.28";
    object      meshPhi;
}
// * * * * * * * * * * * * * * * * * * * * * * * * * * * * * * * * * * * * * //

dimensions      [0 3 -1 0 0 0 0];
oriented        oriented;


internalField   nonuniform List<scalar> 
25162
(
0
0
0
0
0
0
0
0
0
0
0
0
0
0
0
0
0
0
0
0
0
0
0
0
0
0
0
0
0
0
0
0
0
0
0
0
0
0
0
0
0
0
0
0
0
0
0
0
0
0
0
0
0
0
0
0
0
0
0
0
0
0
0
0
0
0
0
0
0
0
0
0
0
0
0
0
0
0
0
0
0
0
0
0
0
0
0
0
0
0
0
0
0
0
0
0
0
0
0
0
0
0
0
0
-5.813443558e-09
-8.644569727e-08
9.680086639e-07
0
1.033930262e-08
-8.229084133e-07
0
0
0
0
0
0
0
0
0
0
0
0
0
0
0
0
0
0
0
0
0
0
0
0
0
0
0
0
0
0
0
0
0
0
0
0
0
0
0
0
0
0
0
0
0
0
0
0
0
0
0
0
0
0
0
0
0
0
0
0
0
0
0
0
0
0
2.704220455e-08
1.500977231e-06
-2.460958034e-06
-9.504993805e-06
9.486810972e-06
8.400512582e-05
-2.17463803e-05
-0.0001187687174
1.187518645e-05
0.0002197402876
-1.98138011e-05
-0.0002458482724
-2.513966262e-06
0.0002834017368
5.458156838e-06
-0.0002801036644
-1.282582083e-05
0.0002243847285
2.372727305e-05
-0.0001933943544
-5.950816283e-06
8.662353844e-05
1.62414101e-05
-5.412799632e-05
0
1.618177365e-06
3.750301754e-07
0
0
0
0
0
0
0
0
0
0
0
0
0
0
0
0
0
0
0
0
0
0
0
0
0
0
0
0
0
0
0
0
0
0
0
0
0
0
0
0
0
0
0
0
0
0
0
0
0
0
0
1.308944178e-06
3.369628021e-06
-6.661539059e-06
-2.406506053e-05
4.633872926e-05
0.0002102297338
-7.15603504e-05
-0.0003005822524
8.024515724e-05
0.0006003869694
-0.0001034664439
-0.0006976881581
4.463302046e-05
0.0009405896936
-5.060921314e-05
-0.0009980978751
-2.724592937e-05
0.001081535694
3.956994447e-05
-0.001077402895
-7.713179435e-05
0.000967993515
0.0001013274628
-0.0009010608806
-7.358241808e-05
0.0006301388921
0.0001000209362
-0.0005253551585
-2.842042302e-05
0.0002207950151
4.714321889e-05
-0.0001375731378
0
3.447219933e-06
1.061749767e-06
0
0
0
0
0
0
0
0
0
0
0
0
0
0
0
0
0
0
0
0
0
0
0
0
0
0
0
0
0
0
0
0
0
0
0
0
0
0
0
0
0
0
0
0
0
-4.354014749e-07
-1.338576064e-06
5.383027926e-05
0.0001629487625
-7.880577486e-05
-0.0002785884108
0.0001643607576
0.0007360313671
-0.0001970442003
-0.000906694772
0.0001690948387
0.001396957032
-0.0001869509503
-0.00153860975
5.64620422e-05
0.001860590577
-5.482668617e-05
-0.001930182171
-8.67809329e-05
0.002027429975
0.0001028452473
-0.002024020348
-0.0001851997662
0.00190304689
0.0002137144156
-0.001823258871
-0.0001930714745
0.001462197043
0.0002263092126
-0.001305663563
-0.0001383613768
0.0008082935983
0.0001713181375
-0.0006378273756
-2.914239305e-05
0.0001925110954
4.514015751e-05
-9.589702645e-05
0
0
0
0
0
0
0
0
0
0
0
0
0
0
0
0
0
0
0
0
0
0
0
0
0
0
0
0
0
0
0
0
0
0
0
0
0
0
0
0
0
0
1.329911925e-05
1.97574809e-05
-2.169931437e-05
-8.524575231e-05
0.0001639573025
0.0005162954539
-0.0001919409971
-0.0007171094267
0.0003067058626
0.001410197978
-0.0003211830583
-0.001644971687
0.0002292302001
0.002195385164
-0.0002561503742
-0.002311470565
4.708165957e-05
0.0025472438
-4.916064973e-05
-0.002578030392
-0.000136119928
0.002607248335
0.0001391753637
-0.002606442624
-0.0002939640837
0.002572624631
0.0003107008342
-0.002527730143
-0.0003863462702
0.002294392733
0.0004082268795
-0.002125473599
-0.0002408219027
0.001478974267
0.0002685187629
-0.001247362436
-0.0001012158033
0.0005705349845
0.0001204960756
-0.0003809846923
2.619730269e-05
-3.06240681e-06
5.343685285e-06
-4.012406056e-07
0
0
0
0
0
0
0
0
0
0
0
0
0
0
0
0
0
0
0
0
0
0
0
0
0
0
0
0
0
0
0
0
0
0
0
-3.835704245e-07
-1.520157913e-08
-5.819347127e-07
4.956181568e-05
0.000102649167
-5.988778332e-05
-0.0002310619299
0.0002657890522
0.0008525627453
-0.0002798294372
-0.001125583923
0.0003633402127
0.001927719052
-0.0003757313829
-0.002163529494
0.0002643726816
0.002686917877
-0.0002414155034
-0.002793807359
9.024986192e-05
0.002887908694
-0.0001059230892
-5.079464534e-05
-0.001388421474
-0.001433019347
0.001380126233
-6.386241114e-05
6.410884277e-05
-0.001380372664
0.001422849404
-0.0003914632015
-0.002866726744
0.001455981569
0.0001801637686
0.0001991952038
0.002705672751
-0.0004205916468
0.0004386898952
-0.002598066079
-0.00034606734
0.002034687439
0.00036544036
-0.001781292757
-0.0001713592474
0.0009515991892
0.0001869282323
-0.0006999176674
0.0001406104489
-2.329505401e-05
3.002681784e-05
-4.469956906e-05
0
0
0
0
0
0
0
0
0
0
0
0
0
0
0
0
0
0
0
0
0
0
0
0
0
0
0
0
0
0
0
0
0
1.604892736e-06
0
-3.425397467e-06
-5.451955266e-06
-8.39972212e-06
8.122213389e-05
0.0001776788402
-8.3801121e-05
-0.0003476013879
0.0003190382497
0.00110146404
-0.0003237958277
-0.001399022257
0.0003930950273
0.002261609361
-0.0003931236574
-0.002501561091
0.0002238790906
0.002944532808
-0.0002190231125
-0.002977808667
3.188420331e-05
0.001504593109
-3.436715753e-05
-0.001502110155
0.001490327803
-0.0001610236478
0.000158760548
-0.001488064703
0.002951577494
-0.0004670097446
0.000472548609
-0.002890321336
-0.0004011032752
0.002377170427
0.0004080333118
-0.00212004736
-0.0002214174482
0.001234437455
0.0002281664134
-0.0009434567926
0.0002563405994
-4.546583173e-05
5.217706769e-05
-0.0001124228355
0
0
0
0
0
0
0
0
0
0
0
0
0
0
0
0
0
0
0
0
0
0
0
0
0
0
0
0
0
0
0
0
0
4.43608966e-06
0
-5.596377649e-06
-1.538595712e-05
-1.746625749e-05
9.69058369e-05
0.0002294391653
-9.969448665e-05
-0.0004227168434
0.0003405732867
0.001244630286
-0.0003439288424
-0.00156100763
0.0003970412395
0.002455646322
-0.0003978556416
-0.002694070508
0.0002136915213
0.003093196283
-0.0002131360896
-0.003106601487
2.595535063e-05
0.001549701762
-2.59497067e-05
-0.001549707406
0.00155876522
-0.0001541378616
0.000153331064
-0.001557958422
0.003118993798
-0.0004749370954
0.0004748821043
-0.00308052604
-0.0004290736538
0.002606697007
0.0004330843991
-0.002349772633
-0.0002465036702
0.001428412255
0.0002506915049
-0.001114044511
0.0003316701821
-6.05156475e-05
6.322884497e-05
-0.0001612899571
0
0
0
0
0
0
0
0
0
0
0
0
0
0
0
0
0
0
0
0
0
0
0
0
0
0
0
0
0
0
0
0
0
6.730135934e-06
0
-8.285938592e-06
-2.403713528e-05
-2.695507956e-05
0.0001066157152
0.0002682218913
-0.0001094089839
-0.0004790041678
0.0003523064942
0.001354547878
-0.0003555882344
-0.001686596616
0.0004000797564
0.002612550269
-0.0004009051428
-0.00285465044
0.0002120877038
0.003242251094
-0.0002119017236
-0.003249926315
2.572778138e-05
0.001619431109
-2.62430539e-05
-0.000807937546
-0.0008109782904
0.001629214741
-0.0001509338999
0.0001503488407
-0.001628629682
0.003258738295
-0.0004713808492
0.0004695715624
-0.003214995603
-0.0004292274399
0.002710614543
0.0004268330344
-0.002440655825
-0.0002474395694
0.001477627658
0.0002458018693
-0.001151265651
0.0003409261236
-6.130250639e-05
6.044711054e-05
-0.0001649094745
0
0
0
0
0
0
0
0
0
0
0
0
0
0
0
0
0
0
0
0
0
0
0
0
0
0
0
0
0
0
0
0
0
9.977040547e-06
0
-1.191665163e-05
-3.691075863e-05
-4.072889653e-05
0.0001181214461
0.0003162244432
-0.0001211802994
-0.0005467513706
0.0003655030157
0.001480518671
-0.0003689026655
-0.001828914195
0.0004032810729
0.002785347878
-0.0004040527749
-0.003029868525
0.0002109597534
0.003400249345
-0.0002107214458
-0.003403398242
2.591428243e-05
0.001696731249
-2.605298124e-05
-0.00084703365
-0.0008495588999
0.001702907614
-0.0001485463693
0.0001479625297
-0.001702323775
0.003396029036
-0.0004590864667
0.0004543210221
-0.003317783874
-0.0004064149099
0.002706471685
0.0004005953189
-0.002421425521
-0.0002257948025
0.001408600552
0.0002198881305
-0.001076168396
0.000281381969
-4.825931832e-05
4.546084676e-05
-0.0001208680066
0
0
0
0
0
0
0
0
0
0
0
0
0
0
0
0
0
0
0
0
0
0
0
0
0
0
0
0
0
0
0
0
0
1.426611285e-05
0
-1.514027164e-05
-5.483178322e-05
-5.700964293e-05
0.0001311387046
0.0003730761567
-0.0001350185355
-0.0006246545147
0.0003796084543
0.001617566913
-0.0003836624968
-0.001981593719
0.0004063479647
0.002963695767
-0.0004071403981
-0.003208448291
0.0002101208946
0.003554046494
-0.000210276736
-0.003554168262
2.630760631e-05
0.001772336515
-2.628343284e-05
-0.0008846671301
-0.0008876935589
0.001772817249
-0.000145858137
0.0001456954186
-0.00177265453
0.00348510591
-0.0004385087901
0.0004313498725
-0.003352775907
-0.0003700032774
0.002619940035
0.0003552673918
-0.002297098988
-0.0001919053225
0.001239977517
0.000177883843
-0.0009116076671
0.000189849932
-3.075494735e-05
2.635233246e-05
-6.185907215e-05
0
0
0
0
0
0
0
0
0
0
0
0
0
0
0
0
0
0
0
0
0
0
0
0
0
0
0
0
0
0
0
0
0
2.123909685e-05
0
-2.821247852e-05
-8.684884624e-05
-9.96549345e-05
0.000146576186
0.0004522194207
-0.0001565783726
-0.0007248836404
0.0003971387921
0.001782356531
-0.0004017593697
-0.002159769415
0.000409388233
0.003155832019
-0.0004124677628
-0.003399394523
0.0002099909943
0.003705615608
-0.0002111365815
-0.001847574941
-0.00185689508
1.445804295e-05
0.0009216711784
-1.471131235e-05
-0.000921417909
-2.108856832e-05
0.0004593476321
2.027692353e-05
-0.0009186545449
0.0004601185575
0.001839761217
-0.0001449253726
0.0003013481005
-0.003689747118
0.001848590512
-0.0001550273385
-0.0004114444795
0.003498618182
0.0003953918241
-0.003297333228
-0.0003155049859
0.002432848123
0.000302471047
-0.002078115423
-0.0001452091228
0.001007388701
0.0001363563599
-0.0006970003581
7.914139081e-05
-1.084362981e-05
8.52843682e-06
-7.798703209e-06
0
0
0
0
0
0
0
0
0
0
0
0
0
0
0
0
0
0
0
0
0
0
0
0
0
0
0
0
0
0
0
0
0
3.134862723e-05
0
-2.582175736e-05
-0.0001192659111
-0.000109829049
0.0001716273959
0.0005369781586
-0.000166497042
-0.0008390289826
0.0004161116859
0.001960635582
-0.0004100439182
-0.002353452011
0.0004072948529
0.003361405599
-0.0004061251646
-0.003593756832
0.0002048830717
0.003858433671
-0.0002048830717
-0.001924926745
-0.001933506926
1.228193187e-05
0.001924926745
-2.187866174e-05
9.596729858e-06
-0.0009608312325
-0.0009640955123
-6.4052351e-05
0.0009608312816
6.405227741e-05
-0.001924926745
0.0009640955369
0.003858433671
-0.0003102813679
0.000308637767
-0.003848422992
-0.0003637429484
0.003403671785
0.0003540939916
-0.00314737397
-0.000261252605
0.002125774904
0.000245040428
-0.001759359024
-0.0001008576953
0.0007151713781
9.005070945e-05
-0.0004562118829
1.103719556e-05
-1.675683245e-06
7.61407833e-07
0
0
0
0
0
0
0
0
0
0
0
0
0
0
0
0
0
0
0
0
0
0
0
0
0
0
0
0
0
0
0
0
0
0
1.610263345e-05
0
-5.911136784e-06
-5.592932838e-05
-3.520319234e-05
0.0001303579087
0.0003919278813
-0.0001130481117
-0.0006595597957
0.0003637162679
0.001720442183
-0.0003392551733
-0.002110834882
0.0003918379114
0.003177577599
-0.0003812999003
-0.003454918552
0.0002116427923
0.00394712507
-0.0002164928465
-0.003998113642
2.187866172e-05
0.004011010367
-3.30167671e-05
-0.004011010367
1.113810532e-05
-0.0001388456481
0.004011010367
0.0001388456481
-0.004011010367
-0.0002948671746
0.003940267872
0.0002846954452
-0.003831237378
-0.0003088337954
0.003165015505
0.0002906770889
-0.00284476965
-0.000192770296
0.001732170483
0.0001778909275
-0.001356289143
-5.568246918e-05
0.000414937492
4.501813238e-05
-0.0002170804573
0
0
0
0
0
0
0
0
0
0
0
0
0
0
0
0
0
0
0
0
0
0
0
0
0
0
0
0
0
0
0
0
0
0
0
0
0
1.443133955e-07
0
0
-3.142611312e-07
0
5.599374293e-05
0.0001357477556
-3.843654287e-05
-0.0003047073004
0.0002441437144
0.001120877566
-0.0002077125659
-0.001457613715
0.0003248204196
0.002481987908
-0.0002973215233
-0.002789299346
0.0002167143497
0.003499546119
-0.0002102927571
-0.003656646776
3.886259929e-05
0.003915946821
-4.284109367e-05
-0.003946246611
-0.0001274142564
0.003906677367
0.0001160685317
-0.003846073727
-0.0002332027618
0.003469702421
0.0002099003017
-0.003269371476
-0.0002210668114
0.002455630834
0.0001945590487
-0.002131557643
-0.0001232844413
0.001129074416
0.0001033295697
-0.0008229177527
-1.89059027e-05
0.0001503661659
1.133449205e-05
-4.114650679e-05
0
0
0
0
0
0
0
0
0
0
0
0
0
0
0
0
0
0
0
0
0
0
0
0
0
0
0
0
0
0
0
0
0
0
0
0
0
0
0
0
0
0
3.990612946e-06
3.142958952e-07
-6.543138342e-07
-2.362338976e-05
9.991330607e-05
0.000406236764
-6.88993284e-05
-0.0006179576891
0.0001956775786
0.00137382123
-0.0001589361434
-0.001633165478
0.0001689978529
0.002317406658
-0.0001487249476
-0.002495281645
5.214186885e-05
0.00283720885
-5.22178853e-05
-0.002884332027
-6.946664022e-05
0.002824695832
5.35287816e-05
-0.002738598222
-0.0001322463078
0.002292306566
0.000107031892
-0.002087762731
-0.0001142866074
0.001365901208
8.952173238e-05
-0.00111102928
-4.611732889e-05
0.0004201970343
3.010426542e-05
-0.0002450474167
-1.651955071e-07
1.043294043e-06
0
0
0
0
0
0
0
0
0
0
0
0
0
0
0
0
0
0
0
0
0
0
0
0
0
0
0
0
0
0
0
0
0
0
0
0
0
0
0
0
0
0
0
0
0
0
0
0
7.903494338e-06
1.073989176e-05
-1.225743145e-06
-4.976432936e-05
5.951155227e-05
0.0003442142412
-3.471715226e-05
-0.0004785366437
7.871383284e-05
0.0008924841642
-5.611265046e-05
-0.001013908698
3.922263032e-05
0.001266069097
-3.136810438e-05
-0.001303788871
-1.718455571e-05
0.001263640592
1.008406866e-05
-0.00120087371
-4.447396798e-05
0.0008925159812
2.940146659e-05
-0.0007614610256
-2.945078496e-05
0.0003533036483
1.584154025e-05
-0.0002329057062
-1.521562979e-06
1.332734981e-05
4.273677144e-09
-1.434181718e-07
0
0
0
0
0
0
0
0
0
0
0
0
0
0
0
0
0
0
0
0
0
0
0
0
0
0
0
0
0
0
0
0
0
0
0
0
0
0
0
0
0
0
0
0
0
0
0
0
0
0
0
0
0
0
1.884340198e-07
0
0
-1.806556879e-06
7.684048427e-06
4.933974317e-05
-1.214318419e-06
-7.641224996e-05
7.611537922e-06
0.0001488730504
-2.595551638e-06
-0.0001616933566
-8.953851759e-07
0.0001503975215
2.124436004e-07
-0.0001312114076
-2.913298984e-06
5.214393873e-05
2.426858231e-07
-2.87255543e-05
0
0
0
0
0
0
0
0
0
0
0
0
0
0
0
0
0
0
0
0
0
0
0
0
0
0
0
0
0
0
0
0
0
0
0
0
0
0
0
0
0
0
0
0
0
0
0
0
0
0
0
0
0
0
0
0
0
0
0
0
0
0
0
0
0
0
0
0
0
0
0
0
0
0
0
0
0
0
0
0
0
0
0
0
0
0
0
0
0
0
0
0
0
0
0
0
0
0
0
0
0
0
0
0
0
0
0
0
0
0
0
0
0
0
0
0
0
0
0
0
0
0
0
0
0
0
0
0
0
0
0
0
0
0
0
0
0
0
0
0
0
0
0
0
0
0
0
0
0
0
0
0
0
0
0
0
0
0
0
0
0
0
0
0
0
0
0
0
0
0
0
0
0
0
0
0
0
0
0
0
0
0
0
0
0
0
0
0
0
0
0
0
0
0
0
0
0
0
0
0
0
0
0
0
0
0
0
0
0
0
0
0
0
0
0
0
0
0
0
0
0
0
0
0
0
0
0
0
0
0
0
0
0
0
0
0
0
0
0
0
0
0
0
0
0
0
0
0
0
0
0
0
0
0
0
0
0
0
0
0
0
0
0
0
0
0
0
0
0
0
0
0
0
0
0
0
0
0
0
0
0
0
0
0
0
0
0
0
0
0
0
0
0
0
0
0
0
0
0
0
0
0
0
0
0
0
0
0
0
0
0
0
0
0
0
0
0
0
0
0
0
0
0
0
0
0
0
0
0
0
0
0
0
0
0
0
0
0
0
0
0
0
0
0
0
0
0
0
0
0
0
0
0
0
0
0
0
0
0
0
0
0
0
0
0
0
0
0
0
0
0
0
0
0
0
0
0
0
0
0
0
0
0
0
0
0
0
0
0
0
0
0
0
0
0
0
0
0
0
0
0
0
0
0
0
0
0
0
0
0
0
0
0
0
0
0
0
0
0
0
0
0
0
0
0
0
0
0
0
0
0
0
0
0
0
0
0
0
0
0
0
0
0
0
0
0
0
0
0
0
0
0
0
0
0
0
0
0
0
0
0
0
0
0
0
0
0
0
0
0
0
0
0
0
0
0
0
0
0
0
0
0
0
0
0
0
0
0
0
0
0
0
0
0
0
0
0
0
0
0
0
0
0
0
0
0
0
0
0
0
0
0
0
0
0
0
0
0
0
0
0
0
0
0
0
0
0
0
0
0
0
0
0
0
0
0
0
0
0
0
0
0
0
0
0
0
0
0
0
0
0
0
0
0
0
0
0
0
0
0
0
0
0
0
0
0
0
0
0
0
0
0
0
0
0
0
0
0
0
0
0
0
0
0
0
0
0
0
0
0
0
0
0
0
0
0
0
0
0
0
0
0
0
0
0
0
0
0
0
0
0
0
0
0
0
0
0
0
0
0
0
0
0
0
0
0
0
0
0
0
0
0
0
0
0
0
0
0
0
0
0
0
0
0
0
0
0
0
0
0
0
0
0
0
0
0
0
0
0
0
0
0
0
0
0
0
0
0
0
0
0
0
0
0
0
0
0
0
0
0
0
0
0
0
0
0
0
0
0
0
0
0
0
0
0
0
0
0
0
0
0
0
0
0
0
0
0
0
0
0
0
0
0
0
0
0
0
0
0
0
0
0
0
0
0
0
0
0
0
0
0
0
0
0
0
0
0
0
0
0
0
0
0
0
0
0
0
0
0
0
0
0
0
0
0
0
0
0
0
0
0
0
0
0
0
0
0
0
0
0
0
0
0
0
0
0
0
0
0
0
0
0
0
0
0
0
0
0
0
0
0
0
0
0
0
0
0
0
0
0
0
0
0
0
0
0
0
0
0
0
0
0
0
0
0
0
0
0
0
0
0
0
0
0
0
0
0
0
0
0
0
0
0
0
0
0
0
0
0
0
0
0
0
0
0
0
0
0
0
0
0
0
0
0
0
0
0
0
0
0
0
0
0
0
0
0
0
0
0
0
0
0
0
0
0
0
0
0
0
0
0
0
0
0
0
0
0
0
0
0
0
0
0
0
0
0
0
0
0
0
0
0
0
0
0
0
0
0
0
0
0
0
0
0
0
0
0
0
0
0
0
0
0
0
0
0
0
0
0
0
0
0
0
0
0
0
0
0
0
0
0
0
0
0
0
0
0
0
0
0
0
0
0
0
0
0
0
0
0
0
0
0
0
0
0
0
0
0
0
0
0
0
0
0
0
0
0
0
0
0
0
0
0
0
0
0
0
0
0
0
0
0
0
0
0
0
0
0
0
0
0
0
0
0
0
0
0
0
0
0
0
0
0
0
0
0
0
0
0
0
0
0
0
0
0
0
0
0
0
0
0
0
0
0
0
0
0
0
0
0
0
0
0
0
0
0
0
0
0
0
0
0
0
0
0
0
0
0
0
0
0
0
0
0
0
0
0
0
0
0
0
0
0
0
0
0
0
0
0
0
0
0
0
0
0
0
0
0
0
0
0
0
0
0
0
0
0
0
0
0
0
0
0
0
0
0
0
0
0
0
0
0
0
0
0
0
0
0
0
0
0
0
0
0
0
0
0
0
0
0
0
0
0
0
0
0
0
0
0
0
0
0
0
0
0
0
0
0
0
0
0
0
0
0
0
0
0
0
0
0
0
0
0
0
0
0
0
0
0
0
0
0
0
0
0
0
0
0
0
0
0
0
0
0
0
0
0
0
0
0
0
0
0
0
0
0
0
0
0
0
0
0
0
0
0
0
0
0
0
0
0
0
0
0
0
0
0
0
0
0
0
0
0
0
0
0
0
0
0
0
0
0
0
0
0
0
0
0
0
0
0
0
0
0
0
0
0
0
0
0
0
0
0
0
0
0
0
0
0
0
0
0
0
0
0
0
0
0
0
0
0
0
0
0
0
0
0
0
0
0
0
0
0
0
0
0
0
0
0
0
0
0
0
0
0
0
0
0
0
0
0
0
0
0
0
0
0
0
0
0
0
0
0
0
0
0
0
0
0
0
0
0
0
0
0
0
0
0
0
0
0
0
0
0
0
0
0
0
0
0
0
0
0
0
0
0
0
0
0
0
0
0
0
0
0
0
0
0
0
0
0
0
0
0
0
0
0
0
0
0
0
0
0
0
0
0
0
0
0
0
0
0
0
0
0
0
0
0
0
0
0
0
0
0
0
0
0
0
0
0
0
0
0
0
0
0
0
0
0
0
0
0
0
0
0
0
0
0
0
0.001542523563
-0.001542597999
2.602978699e-05
0.0001455220669
-0.001546728686
-0.0001463782226
0.0007763332748
0.0007712515673
-0.0001593571211
0.001496650664
0.0001530342601
0.001610047775
2.536797031e-05
-0.000804111396
-0.0008055765684
0.0001395344995
-0.001621610061
-0.000140343149
0.0008122884864
0.0008101302237
0.0001429013416
0.0007820042001
0.000779381745
0.001687101976
2.569738109e-05
-0.0008424546183
-0.0008444304565
0.0001378681117
-0.001691959382
-0.0001367766063
0.0008462945878
0.0008445732883
0.000138953815
0.0008150433418
0.0008147520835
0.001762375132
2.600409492e-05
-0.0008799350238
-0.0008821365971
0.0001336685988
-0.001762598365
-0.0001348585155
0.001763788282
0.001703712525
0.0001370632007
0.0009201618946
-0.0009201664767
1.446262507e-05
-0.0004596120922
9.808885195e-06
-9.940521727e-06
0.0004597437288
0.000459011085
-0.000917573781
-2.213796447e-05
0.0001327893611
-0.001832556766
-0.0001327397333
0.001832507139
0.001773213911
0.0001332719362
0.0009593528843
-0.0009593528843
1.228193187e-05
-0.0009593530207
2.799834909e-05
-2.799867794e-05
0.0009593533496
0.000459859287
9.297230359e-06
-0.001915445892
0.0008766393695
1.627957083e-05
-8.78419733e-07
0.0002328121111
-0.003775042478
0.001910076833
0.001889656178
-0.0001245255836
-0.0001329770609
0.001839682942
0.000132867636
0.001494633756
-0.001493931675
3.118212274e-05
-5.213347592e-05
0.001380583296
5.167641237e-05
-0.00148793527
-0.0001568776798
0.001485455828
-0.0001686460994
0.001411534035
0.0001799614681
2.613041827e-05
-0.0003825895383
-2.631474577e-05
0.0003827738658
-0.0007550765514
-6.221629189e-05
0.0007571369888
6.015585457e-05
-0.001546119104
-0.0001547474437
0.0004457201453
-0.003075438391
-0.0004498528409
0.003080418412
-0.0004567667547
0.002970965412
0.0004489605562
0.003203391081
-0.003212361334
0.0002123176807
-3.63840642e-05
3.632433411e-05
0.001610107506
3.655182817e-05
0.00154955112
-3.640118607e-05
2.89699246e-05
-0.0003972032082
-2.868921776e-05
0.0003969225014
-2.544369516e-05
-0.0003893974057
0.0003891696063
2.567149453e-05
-0.001621189303
-0.0001513546575
0.0004406411273
-0.003227624959
-0.0004420046144
0.003229157531
0.003120956751
0.0004440554924
0.003361591011
-0.003365733767
0.0002112213201
-3.639682285e-05
3.63377617e-05
0.001687161037
0.001619489916
-3.644287136e-05
-2.60542519e-05
0.001649890519
2.599220242e-05
-0.0008235754285
-0.0008262530414
4.016009343e-06
-0.000413473043
-3.993268665e-06
0.0008262628992
-0.0004128125969
-4.150693791e-06
-0.0004030741335
0.0008076424091
3.844936101e-06
-0.0004042625179
2.493496545e-05
-0.0004158045078
-2.507698016e-05
0.0004159465225
-2.720342713e-05
-0.0004067281397
0.0004059330155
2.799855136e-05
-0.001692075491
-0.0001484302594
0.0004328875569
-0.003360855244
-0.0004359697168
0.003370353164
0.003260752592
0.0004391863382
0.00351504704
-0.003515775864
0.0002100280478
-3.652970216e-05
3.64741255e-05
0.001762430709
0.001696709415
-3.637498879e-05
-2.551140563e-05
0.001725233507
2.58546494e-05
-0.000861724039
-0.0008638527123
2.452254143e-06
-0.0004321741363
-2.54243392e-06
0.0004322643161
-3.633602784e-06
-0.0004231393134
0.0008470424853
3.70676485e-06
-0.000423976334
4.700228388e-05
-0.0008649176531
-4.732130267e-05
0.0008652366719
-4.861612929e-05
-0.0008506014859
4.678365446e-05
0.00042694034
0.0004254936207
0.003667980436
0.0002104009501
-0.00182946474
-0.001838925652
-3.685875948e-05
-0.0009185594744
3.660538675e-05
0.001838974742
0.001772393845
-3.65870317e-05
-1.441863516e-05
0.0009020585327
-0.0009021491856
1.450928805e-05
4.350628104e-06
-0.0004521181321
-3.893744918e-06
0.0004516612489
-3.388381125e-06
-0.0004413113749
0.0004414983782
3.201377822e-06
0.0004545685712
1.329713145e-05
-0.0004532489752
-1.46167274e-05
4.51373272e-05
-0.0009014704564
-4.488324761e-05
0.0009012163768
-4.632542168e-05
-0.000885565843
0.000885575751
4.631551369e-05
0.003754666968
0.0002026817019
-0.001837019706
-0.001915445892
-3.262112759e-05
-0.000956093008
3.262112759e-05
0.001915445892
-0.0009258467496
0.00184750509
-3.68459215e-05
-1.443785964e-05
0.0009392121288
-0.0009391262071
1.435193794e-05
2.684704716e-06
-0.000466748191
-3.912717741e-06
0.000467976204
-5.099034739e-06
-0.0004581833945
0.0004587557492
4.526679962e-06
0.001991283905
-0.001991283905
2.187866175e-05
-0.001991283905
5.331080257e-05
-5.331080259e-05
0.001991283905
0.0009608314651
2.799816551e-05
-6.742036578e-06
0.0007580247224
6.133972396e-06
-0.0003779562706
-0.0003794603876
7.283619852e-06
0.000771856258
-7.188400228e-06
-0.000386224491
-0.0003857269867
0.0007558306853
7.337465854e-06
-8.944460913e-06
-0.0007542236902
0.0007577578286
-0.0007583361223
-6.163742937e-06
-0.0003890534624
-2.522755251e-05
0.0003888373197
-0.0003820925753
0.0003824239602
2.579903336e-05
-0.0001490085687
-0.001524585554
0.0001473795333
0.0007657124963
0.0007605020929
-5.763830107e-05
0.000381646149
5.6279531e-05
-0.0007623799543
2.643716591e-05
-0.0003891637729
-2.632685542e-05
-0.0004023331121
-4.528534677e-06
0.0008052831919
-0.0004025722389
-0.0007900545761
-4.214160965e-06
0.000790129851
4.138886061e-06
2.570270027e-05
0.001583563804
-2.57657841e-05
-0.001583500721
-6.970654247e-06
6.446062515e-06
-0.0003945737968
-0.0003949561876
3.193886472e-06
-0.000402330461
-3.196537575e-06
0.0007732326483
6.923799853e-06
-0.0003860449542
-0.0003868278741
0.0007884890708
-6.836840354e-06
-0.0003942679327
-0.000394354952
-0.0004054348104
-2.632926476e-05
0.000404560648
-0.0003989618755
0.0003984070482
2.952475191e-05
-7.223116379e-05
-0.0007973062574
0.0007974691072
7.206831398e-05
-2.923155779e-05
2.938787281e-05
-0.0003991181905
2.722069986e-05
-0.0004059503026
-2.670520765e-05
2.652631565e-05
-0.0003894865554
-0.0003974604707
-2.897429538e-05
-0.0007938180662
-7.223996683e-05
0.0007938268692
-0.0004223135694
-3.959365719e-06
0.0008442024214
-0.0004215630891
-0.0004144567344
0.0008293250744
4.332777944e-06
-0.0004151851087
0.001659989263
-2.565473004e-05
-0.0008291618837
-0.0008312269011
-3.478017135e-06
3.565343899e-06
-0.0004145440611
2.73046612e-06
-0.0004222232856
-2.820749978e-06
3.113399503e-06
-0.0004029936466
-0.000413656422
-3.294638111e-06
-0.000847137647
-4.843363911e-05
0.000423773268
0.0004231818888
-0.0004162495408
0.0004161400264
2.504447979e-05
-0.0001368734845
-0.001664086076
0.0001370877299
0.0008324659783
0.000831405852
-5.197970376e-05
0.0004156448811
5.132732334e-05
-0.0008312420415
5.110625078e-05
-0.0008470274524
-5.121644533e-05
2.772841886e-05
-0.0004072358587
0.0004146142379
-0.0008296669429
-2.579387525e-05
-2.693763139e-05
-0.001655399635
-0.000138330856
0.0008294492518
0.0008274077549
-0.000440727546
-3.488965496e-06
0.0004408281304
-0.0004326859422
0.0004326965984
2.44159795e-06
0.001733412994
-2.605220184e-05
-0.000865657902
-0.0008672142955
-3.388256275e-06
3.122352553e-06
-0.0004324200385
4.844981408e-06
-0.0004404405662
-5.131961252e-06
2.723379054e-06
-0.0004231322263
-0.0004320694736
-3.492918996e-06
-0.0008838058178
-4.639625609e-05
0.0008838766523
-0.0008678597004
0.0008678654955
4.699648871e-05
-0.0004595454344
-5.469587737e-06
0.0004599159874
-0.0004518888163
0.0004520616977
4.17774675e-06
0.0009041773071
-1.441274806e-05
-0.0009041831942
-9.945296566e-06
-0.0004519892356
0.0004504923812
1.144215094e-05
-5.849686118e-06
5.570018246e-06
-0.0004516091485
5.292229042e-06
-0.0004587796557
-6.058007661e-06
4.469424528e-06
-0.0004409358181
-0.0004524218161
-5.546002109e-06
-1.245180996e-05
0.0004570750846
8.794709926e-05
-0.001831734462
-8.760623108e-05
0.0009162966091
0.0009150969844
-0.000903025348
0.0009027359796
4.542669558e-05
1.32866772e-05
-0.0004519787813
-0.0009673608949
3.824207736e-06
0.0009628944957
1.531875808e-06
-8.896843622e-07
-0.0004673237988
0.0004680207697
1.987733788e-06
0.0009412339769
-1.461386389e-05
-0.0009410579727
-1.175087141e-05
-0.0009296048076
0.0009302142854
1.114139368e-05
-1.283735006e-06
8.692741556e-07
-0.0004669093379
9.170114617e-06
-0.0009674310974
-1.525317603e-06
-7.574594521e-06
4.512869701e-06
-0.0004574040351
-2.163619446e-06
-0.0004658683065
-0.0009279623726
-1.291995503e-05
0.0009291314563
0.003056234945
-0.003072538477
0.0002149668853
3.67001821e-05
0.001542375209
4.19936144e-05
0.001502540523
-3.994102765e-05
-2.779141516e-05
0.001514245483
-0.00151410944
2.765537235e-05
3.802505054e-06
-3.704850549e-06
0.0007576601741
1.903855881e-07
0.0007580506542
-2.41035454e-06
6.290934748e-05
-0.0003732220239
1.254813614e-06
0.0003090578628
-0.0003878506305
-2.990996825e-05
0.0003932642478
2.449635097e-05
0.001574958071
-0.001575114949
2.585957879e-05
-4.218174453e-06
0.0007884930843
-4.173118863e-06
0.0007732335188
4.172248337e-06
0.0001305387443
-0.0004324237615
-5.39040359e-05
0.0003557890531
-0.00176205558
-0.0001464009222
0.0004234711293
-0.003470285523
-0.0004271524552
0.003516578825
0.003408370027
0.0004323877972
0.0001283204202
-0.0004482909752
-4.838424506e-05
0.0003683548
3.448942378e-05
-0.0008924510736
-3.503643432e-05
0.0004467361327
0.0004462619514
-1.804340492e-05
-0.0004425941126
0.0004425185378
1.811897976e-05
1.777122236e-05
-0.0009274022144
-1.833138058e-05
9.651969303e-05
-0.001862541249
-9.268519118e-05
0.001858706747
-0.001839275883
8.844074512e-05
0.0009201681799
0.0009186140571
-4.169409915e-06
0.000771852549
0.0007580646663
3.762561168e-06
0.001514445787
-2.680386067e-05
-0.001515433342
-6.322153912e-06
0.0003823399117
7.054000226e-06
-0.000383071758
0.0003899762272
6.692916346e-06
-1.413902457e-06
-0.0003952552411
0.0003802564808
3.494771619e-06
-0.0003807885862
-2.962666219e-06
-6.941867282e-05
6.321739404e-05
-0.0007488752727
0.0003806928548
-0.0007616685996
-5.925209454e-05
-0.001514204081
-0.0001461665376
0.0007572794423
0.0007540826071
-0.0004427767583
-1.839460069e-05
0.0004431279541
-2.28730199e-05
-0.0004390117359
0.0004402637132
2.162104254e-05
-0.0001361789076
-0.001735378407
0.001735981141
0.0001355761737
-5.025662152e-05
4.994863171e-05
-0.0008675517106
4.930938342e-05
-0.0008835862399
-4.952896138e-05
5.053872757e-05
-0.0008500339627
-0.0008649206346
-5.025364002e-05
-0.001728483879
-0.0001363742541
0.001728679225
-1.455144644e-05
-0.0004571538293
0.0004587355171
1.29697587e-05
0.0004605478847
1.254253269e-05
-0.0004605218112
-1.25686062e-05
1.463535192e-05
-0.0009232513706
-1.495243285e-05
0.0004615636503
0.0004620048012
-0.0007081653462
-2.334819644e-05
0.0007081472403
2.336630238e-05
0.001525236941
1.854960881e-05
-3.114860537e-05
-1.343085403e-05
-0.0007424606058
-0.0007567464848
0.000746769343
-0.0007621380105
2.270613336e-05
-0.000751031222
-6.326421985e-05
0.00075207915
-0.001490897841
-0.0001497588294
0.0007481516401
0.0007174033211
7.584251065e-05
9.925919834e-05
-4.002663479e-05
4.09709733e-05
-0.0007091096847
-0.0004764663124
0.0005393756598
-5.625754082e-05
-0.0007594999553
5.469482143e-05
0.0003805262141
0.0003805364605
-2.946923366e-05
-6.29836843e-05
-0.0003840133944
-2.639413969e-05
2.366436231e-05
-0.0003851208531
-0.0003824791094
-2.021214812e-05
-0.0007545342759
-5.397634597e-05
0.0003769618578
0.0003752912233
-2.57611595e-05
-0.0003935867002
0.0003936443956
2.570346408e-05
-0.0003935373036
-2.584304334e-05
0.0003936191874
-2.4502056e-05
-0.0004126057182
0.0004124735896
2.463418457e-05
-0.0004132156462
-2.506803663e-05
0.0004137816268
-0.0004321617942
2.284587918e-05
-1.988007982e-05
0.0004291959949
-0.0004393825327
0.0005570964762
1.282480076e-05
-4.782122965e-05
-0.0008576440277
0.0008576380859
4.782717143e-05
-2.717738796e-05
2.132790951e-05
-0.0004335330542
2.332592908e-05
-0.0004329806442
-2.250707915e-05
-2.441933035e-05
5.33299648e-05
-0.0004208014669
0.0003918908325
-0.0004300929517
-2.950819773e-05
-0.0008559794093
-4.791885351e-05
0.0004281908613
0.0004278861719
-0.0004467895623
-1.622785717e-06
0.0004469774882
1.434859745e-06
4.222780993e-06
0.0008940649456
-4.301754417e-06
-0.0008939859721
-4.290555497e-06
0.0009019987984
-0.0009020866199
4.378376969e-06
3.298511832e-05
-0.0009010459514
-3.324942736e-05
0.0009013102605
-0.0008944696093
3.38828967e-05
0.0004479666396
0.0004471094968
0.0005770778748
7.46438615e-06
-0.0004562218408
4.553419784e-07
-0.0004644716188
0.0004651330448
-1.116767986e-06
4.75402772e-06
0.0009316731527
-4.839363035e-06
-0.0009315878173
-4.839835242e-06
0.0009390404869
4.403252013e-06
-0.0004689618243
-0.0004696420794
4.5112808e-06
0.0009212626869
-4.764045557e-06
-0.0009210099221
0.0009292222835
-0.0009291391197
4.670863992e-06
-0.0004625397649
-3.909280671e-07
0.0004633860349
0.0003888345135
-2.995044465e-06
0.0001034960206
-0.0004893354896
0.0003801379461
-6.651522844e-06
-0.0003798085772
6.381227025e-06
0.0007643970212
-6.676424285e-06
-0.0003811875398
-0.0003829142841
7.058362611e-06
-7.810859407e-06
0.0003808904429
-7.26427475e-06
0.0003849603398
1.113844843e-05
1.203484804e-05
-3.510770708e-05
0.0003867613714
-0.0003636885124
0.0003828740932
6.524181105e-06
0.0007674370016
7.221850881e-06
-0.000384295385
-0.0003839822405
4.400009236e-06
0.0007627715374
-0.0007632712593
-3.90028738e-06
5.728433773e-06
-6.157577484e-06
0.0003806856245
1.554785761e-05
0.0003780718465
-3.643476886e-06
-0.0003840300969
-5.813976424e-06
0.0003825797986
-0.0003802754202
0.0003803379414
5.665912577e-06
0.0007590080598
4.891214003e-06
-0.0007594992646
5.914015441e-06
-0.000382694664
-0.0003834702231
-3.554918253e-06
-2.674959734e-05
-0.0003861963825
0.0003853002004
2.764577946e-05
-0.0003846712718
-2.681982395e-05