/*--------------------------------*- C++ -*----------------------------------*\
| =========                 |                                                 |
| \\      /  F ield         | OpenFOAM: The Open Source CFD Toolbox           |
|  \\    /   O peration     | Version:  v1912                                 |
|   \\  /    A nd           | Website:  www.openfoam.com                      |
|    \\/     M anipulation  |                                                 |
\*---------------------------------------------------------------------------*/
FoamFile
{
    version     2.0;
    format      ascii;
    class       volScalarField;
    location    "2.28";
    object      omega;
}
// * * * * * * * * * * * * * * * * * * * * * * * * * * * * * * * * * * * * * //

dimensions      [0 0 -1 0 0 0 0];


internalField   nonuniform List<scalar> 
12556
(
31.93121202
31.93209855
31.93301847
31.9338095
31.96677768
31.96755935
31.96839681
31.97005588
31.9732422
31.97831107
31.98495801
31.99134776
31.99532982
31.9927189
31.98709136
31.98046428
31.97499461
31.97082455
31.96912133
31.96762588
31.93379809
31.93269968
31.9316713
31.9307141
31.79527522
31.79791578
31.80051699
31.80276585
31.83645755
31.83932843
31.84391857
31.86644893
31.88086926
31.90430153
31.9356508
31.96632898
31.98373318
31.97785875
31.95284249
31.92172004
31.89446731
31.87550927
31.84829998
31.84077868
31.80386417
31.80024855
31.79706821
31.79423889
31.66123889
31.66580451
31.67024389
31.67382848
31.70833656
31.7145024
31.72513973
31.75680411
31.79064904
31.84392376
31.91249921
31.9775775
32.01696434
32.00426053
31.95249032
31.88431466
31.82405063
31.77973206
31.73535781
31.71872656
31.67674305
31.67068652
31.66513689
31.66039656
31.52854022
31.53457873
31.5405142
31.54587473
31.58251491
31.5942311
31.61619089
31.66599016
31.73412102
31.83851351
31.97475224
32.11550956
32.20196111
32.1698822
32.05515239
31.91802266
31.79637167
31.70959258
31.63702193
31.60518349
31.55426299
31.54403727
31.53566597
31.52882767
31.39803273
31.40574607
31.41349488
31.42134634
31.46072271
31.48075286
31.52187494
31.60087824
31.72791519
31.93594546
32.23907089
32.61760107
32.87027631
32.77248618
32.44255028
32.11271135
31.84585629
31.68025733
31.56115604
31.50275949
31.4362069
31.42052864
31.40867515
31.3994336
31.26845288
31.2775558
31.28710991
31.29835871
31.34368927
31.37681994
31.44785461
31.56702683
31.79201556
32.20834724
32.96835117
34.34729196
35.52263374
34.94778551
33.59549845
32.65619674
32.04448561
31.70756233
31.51048953
31.41442243
31.32451335
31.29946047
31.2830708
31.27113899
31.14110416
31.15202015
31.16435155
31.18017212
31.23211207
31.28285344
31.39198245
31.57193636
31.95429278
32.748248
34.70373915
41.29948161
48.26041459
44.90309623
36.79591198
33.85830124
32.47234265
31.82358201
31.48855618
31.34220306
31.21896199
31.18161323
31.15922535
31.14413156
31.01555899
31.02810876
31.04329141
31.06495551
31.12753658
31.1996245
31.35345019
31.61457431
32.20269869
33.5412863
37.62096901
58.77540678
76.5097361
44.16409701
36.03483237
33.18468149
32.03802651
31.49886127
31.28436433
31.12059482
31.0671014
31.03705826
31.01834367
30.89402759
30.90897146
30.92843539
30.95835022
31.02957148
31.12698691
31.33055628
31.68495275
32.49082295
34.34775302
40.10764465
71.64044067
147.0565365
54.87200311
39.02742055
34.14366937
32.33583818
31.53887
31.23900431
31.02979696
30.95746947
30.91819194
30.8953512
30.77641396
30.79344543
30.81698839
30.85546377
30.93857751
31.06351922
31.3189629
31.76851571
32.76719284
34.99401614
41.54233317
77.75983819
183.7582183
64.1319263
42.03159164
35.15554006
32.67055831
31.60087834
31.20451422
30.94700887
30.85379224
30.80411835
30.77659165
30.66533185
30.68531329
30.71428066
30.76327698
30.8551204
31.00752882
31.31492686
31.85250459
33.00750522
35.49314665
42.59546473
87.40383754
183.2747985
69.36737389
44.24894455
36.00966284
32.98718279
31.66930983
31.17847853
30.87210356
30.75782873
30.69699145
30.66436436
30.55920002
30.58150808
30.61498943
30.67377239
30.77797027
30.95679066
31.31483309
31.92955796
33.2148827
35.91292904
43.65416526
98.53308393
169.1206297
71.01632572
45.45990209
36.59809599
33.24460628
31.73007177
31.15677874
30.80479078
30.66900337
30.59724999
30.55926159
30.46045119
30.48579584
30.52545974
30.59482773
30.7054176
30.90872222
31.30792165
31.99743216
33.38905468
36.28634237
44.97034948
108.0428874
776.1724966
145.02309
70.32992969
45.82058085
36.8772812
33.41531701
31.77248387
31.13462207
30.74174877
30.58785974
30.50481236
30.46159485
30.36518905
30.39312522
30.43819102
30.5160455
30.64219085
30.87703668
31.32654364
32.08095875
33.58748418
36.75134033
46.96513206
153.6024335
482.8884451
135.2128242
68.73201567
45.50996605
36.92678705
33.50972547
31.79291769
31.10753978
30.67932068
30.51081521
30.41788768
30.36970655
30.27500446
30.30552684
30.3553587
30.4402444
30.57515074
30.83103416
31.3192874
32.15099618
33.80238554
37.23654426
48.90710228
411.28205
346.5948879
125.1730457
65.75627818
44.78482085
36.80925861
33.53779691
31.78473988
31.07223084
30.61768306
30.43678169
30.33417735
30.28172549
30.18480931
30.21770344
30.27174865
30.3634971
30.50743176
30.78015369
31.30118849
32.22631838
34.11261176
38.08583858
53.3536052
698.9054425
292.1148626
113.0222743
61.97437764
43.74137507
36.5940811
33.49893635
31.75111607
31.0265379
30.55107501
30.36067862
30.25112139
30.19478128
30.09702868
30.13230895
30.18977034
30.28637645
30.4369642
30.7225989
31.26942127
32.27325586
34.49577515
39.62186447
66.50433165
949.0425205
225.1927314
98.73285462
57.79720603
42.64913648
36.39716904
33.42438991
31.69618182
30.97017644
30.48084265
30.28357295
30.16749007
30.10776917
30.00569743
30.04306623
30.10352793
30.20494823
30.36243229
30.65728995
31.22394942
32.2629769
34.78978455
41.84002972
107.7702787
802.0666911
177.1868361
86.64426324
54.50896514
41.91763103
36.21691097
33.32446057
31.62197405
30.89983817
30.40169022
30.19941531
30.07958822
30.01720628
29.91527949
29.95466744
30.01756396
30.12177599
30.28306792
30.58411067
31.16540126
32.23064887
34.86383518
43.72810017
159.7399318
628.2989541
152.3768036
80.15938095
53.0418875
41.53747379
36.02642341
33.20678023
31.53430026
30.81879287
30.31649009
30.11135489
29.98875642
29.924796
29.81895479
29.85989339
29.92503874
30.03265071
30.19877839
30.50363958
31.09549169
32.18132401
34.90895456
44.96137041
169.8648279
536.0905935
144.4054612
78.56426713
52.35018641
41.19877467
35.83761726
33.07960808
31.43683165
30.72849262
30.22301086
30.01567395
29.89125067
29.8263537
29.72389293
29.76614476
29.83301088
29.94203623
30.10961173
30.41677924
31.01619361
32.1187129
34.94320017
46.4270903
173.1056164
473.171138
139.2527311
77.33953445
51.84283091
40.90446225
35.65692623
32.94851128
31.33232781
30.63051126
30.12484544
29.91696533
29.79159737
29.72621032
29.62156743
29.66455074
29.73297924
29.8445946
30.01598265
30.32447427
30.92936447
32.04592124
34.97426503
48.13571623
173.2843277
423.6651886
134.97997
76.29988189
51.4864874
40.66140993
35.48864894
32.81736543
31.2229738
30.52646431
30.01938048
29.81063927
29.6847398
29.6193288
29.52248939
29.56593554
29.63527433
29.7471195
29.91814885
30.22755267
30.83657875
31.96586035
35.01687508
49.77432077
171.2984376
384.2662193
131.3480259
75.40333039
51.22709325
40.47230512
35.33656722
32.68913755
31.1107873
30.41786238
29.91196515
29.7038056
29.57791803
29.51272485
29.41490736
29.45832214
29.52851321
29.64234905
29.81684025
30.12680923
30.73926641
31.88174566
35.09541454
51.10301092
167.7971536
352.2940913
128.1975058
74.62378362
51.0276843
40.33067683
35.20291734
32.56605212
30.99753795
30.30614607
29.79831816
29.58947142
29.4635557
29.3988244
29.31376009
29.35698932
29.42736102
29.54030006
29.71251949
30.02308173
30.63891629
31.79729169
35.22456806
52.09384464
163.2496654
325.9698073
125.4206005
73.94267351
50.87014828
40.22589777
35.08752756
32.44946816
30.88459006
30.1924894
29.68593478
29.47805552
29.35250171
29.28830542
29.20199071
29.24469849
29.31540989
29.4301037
29.60617633
29.91719984
30.53689086
31.71606246
35.3940321
52.79967295
158.1169225
304.024373
122.9448036
73.34439608
50.74465652
40.14850657
34.98856384
32.33984928
30.77285566
30.07791144
29.56730557
29.35816967
29.23261173
29.16902597
29.1010594
29.14322445
29.21363739
29.32650674
29.49812705
29.80992353
30.43430107
31.6407897
35.57886739
53.26826498
152.6155574
285.4971921
120.7107228
72.81382616
50.64437923
40.09161833
34.90369475
32.23707797
30.66291316
29.9630972
29.45363976
29.24558282
29.12041279
29.05741023
28.98567398
29.02707206
29.09752279
29.21229883
29.38937781
29.70186665
30.33199432
31.57297692
35.7572876
53.54368922
146.975462
269.6525136
118.6667121
72.33727331
50.56389726
40.05039653
34.83071708
32.14073992
30.55508333
29.84869628
29.33184152
29.1215334
28.99615197
28.93370802
28.88726418
28.92798103
28.99788612
29.11009171
29.2798159
29.593515
30.23063512
31.51276404
35.91610371
53.66188663
141.3562662
255.9180982
116.7718833
71.90298594
50.49857327
40.02128896
34.76774444
32.05033859
30.44955075
29.73498523
29.22001162
29.01088948
28.8857695
28.82381095
28.76796312
28.8078147
28.87756472
28.99202947
29.17053801
29.48525067
30.13073411
31.45920024
36.0493146
53.65336303
135.8692308
243.8972031
114.996092
71.50082501
50.44433605
40.00150293
34.71316307
31.96536079
30.34641097
29.62244426
29.09525076
28.8826603
28.75705201
28.69550849
28.67456878
28.71373395
28.78287668
28.89426915
29.06090786
29.37739176
30.03268658
31.41077259
36.15549521
53.54351783
130.5993031
233.2663201
113.3134578
71.12198739
50.39762453
39.98874542
34.66559006
31.88531975
30.24571981
29.51106092
28.98850774
28.77723605
28.65167349
28.59045865
28.5500169
28.58828908
28.65709859
28.7709294
28.95239568
29.27024461
29.93679966
31.36585105
36.23532796
53.35417524
125.5988346
223.7710124
111.7037496
70.7588227
50.35530649
39.98107398
34.62382829
31.80973938
30.14750725
29.40135915
28.85908629
28.6432055
28.51689764
28.45592979
28.4647036
28.50236125
28.57065714
28.6815563
28.84372399
29.16412653
29.84332048
31.32295031
36.29043945
53.1017436
120.8900155
215.1940091
110.1525185
70.40477397
50.31457316
39.97678253
34.58681341
31.73816001
30.05183587
29.29309228
28.76195549
28.54717576
28.42061012
28.35980122
28.33227597
28.36903242
28.43679489
28.54931363
28.73733448
29.05951894
29.75251486
31.28088977
36.32300279
52.80002242
116.4858104
207.37412
108.6495357
70.05438778
50.27288012
39.974322
34.55358805
31.67019117
29.95892671
29.18724991
28.62324502
28.40365246
28.27614578
28.21541728
28.2590346
28.29531033
28.36273377
28.47427864
28.63143665
28.95723299
29.66501958
31.23883017
36.33577971
52.46292792
112.4135833
200.1827778
107.1876526
69.70329591
50.22791041
39.97225374
34.52326205
31.60540326
29.86942272
29.0838539
28.54331321
28.32283573
28.19473006
28.13398076
28.09002382
28.12524443
28.19197399
28.30452147
28.53116782
28.85899736
29.58273583
31.19646178
36.33145128
52.1048336
108.6708888
193.5190959
105.7668106
69.35048982
50.17792023
39.96925102
34.49510706
31.54352792
29.78510734
28.98617459
28.36558136
28.13922622
28.0095064
27.94859863
70.95312347
173.8286947
86.61222701
76.87182209
221.5509765
180.4825222
86.10206483
217.5553716
223.1544484
97.22502606
195.7682294
214.8429145
106.9880383
947.960647
810.5582878
175.8689881
192.7229311
134.1462434
595.1381968
929.0198155
504.044586
171.1999236
173.9477643
55.93278372
47.76637021
78.92019151
44.58535395
537.4111667
182.9351678
139.0805578
60.23865189
48.52330922
41.25649935
65.86459029
62.11518355
1826.295795
1296.969098
181.6831581
74.02182428
64.12751703
42.37572691
71.67101331
66.44077708
80.88689612
232.2289744
209.2567032
1013.133426
1409.351072
184.5871553
81.53497949
76.52286978
43.45406129
79.9991583
72.61261204
91.34134354
332.8605201
266.72793
563.4819749
752.3937075
44.71785383
90.44626272
81.01140511
100.4315974
506.5876577
406.2228719
2182.543389
363.7495789
423.6415797
46.65501842
110.8191931
92.00911408
116.2302648
1093.483519
722.8005952
150.7268398
453.6287781
586.3135308
176.0933671
206.4698242
109.2452912
170.0538125
1262.347701
567.2878313
136.1438948
454.7232683
880.8695487
206.4524218
187.7626612
74.29363382
245.6109047
258.8533739
212.4476231
242.6329341
1426.607638
1827.379431
203.7900631
1267.792077
1091.971822
910.7871217
1264.634643
201.1150523
263.5097904
236.0279574
82.11376387
301.8570734
345.1073839
260.9559453
298.617475
787.3348261
990.5200064
222.6180997
750.9136142
588.3055801
1079.874448
778.8542589
223.7173934
401.9573013
336.1864804
92.68611897
410.7731549
511.1209766
347.9521267
406.7994984
436.3750923
542.3083419
712.1029205
516.1069196
100.7463372
3154.769866
700.4093731
1060.972171
516.2291167
684.3133539
3575.642102
333.4078585
357.5553334
1911.082832
8588.044803
1102.632163
117.5681241
681.6698657
1717.012847
7670.37427
1069.670815
1688.71768
700.130929
39.61881524
61.46857186
52.06627764
65.99122381
139.4067536
94.91189886
3261.343234
570.1833088
73.80246151
185.6151269
164.0436547
5829.127021
171.3601668
83.68615327
82.49642932
5881.671276
809.2310045
899.5298641
615.5145021
294.9069806
321.8030582
161.2079973
142.9058734
67.58731237
1395.091071
251.5483036
587.2428419
152.8932125
402.3827396
125.6150639
918.6423881
1173.615073
203.8104018
448.4447153
381.2420905
568.5580579
460.9970384
206.8997266
1323.349331
4524.022498
820.6152083
79.13704182
62.89101409
99.65231625
159.9149283
74.82845699
80.60148991
4513.501798
376.564014
3193.460468
423.0687482
2337.534388
339.069314
1486.698532
1467.358976
1174.404297
1202.102229
2244.821737
4938.435863
634.512968
2706.861136
1475.816664
5538.555055
3207.519317
662.1431734
442.3514183
172.8865242
180.4707643
680.3696084
771.7059926
5281.005177
779.6308137
224.1642882
237.3892464
208.3161801
219.1834667
776.5887122
1247.459205
1396.111426
189.2769336
889.2135644
723.0766588
1349.557961
890.0538959
193.0540451
140.2311505
430.2970468
204.2511425
640.3092373
461.4157434
150.1914773
615.6185756
913.0283439
886.014588
838.8805032
246.2747505
1482.453302
246.6980016
227.0537549
1430.523449
1369.612268
1476.396546
1437.671775
230.9635153
1519.689434
1536.225258
1163.897201
393.3719974
383.7718153
394.9336612
394.8836156
1154.835544
1075.887439
350.2170607
320.9791602
378.8267577
358.8065504
1095.380774
321.6138603
324.4142341
276.884338
279.1989923
837.1805465
5729.780953
852.8995819
440.9089525
447.6671071
376.6828314
380.7183065
1393.8917
1020.401335
489.7492717
1243.885257
2077.760464
568.3701401
194.8199882
204.6038672
183.2134552
191.7898514
559.7014424
1455.224581
745.8359197
758.4752748
553.2310579
557.8561035
6079.586505
1111.576624
582.8855245
652.8808941
243.0895737
253.9542841
1353.195081
2737.251022
1776.102477
2835.529759
1105.479706
6668.648106
3104.10569
5725.668394
1101.552458
781.555005
4128.091228
2243.607717
3992.904357
2085.503011
2833.739852
48.29497392
115.3978882
113.4673546
167.4838587
4233.210834
7928.136658
362.1718537
156.8325416
167.6711767
1209.065067
3253.394084
4485.708061
509.3308445
560.6571825
1044.222036
270.2805724
286.2052383
599.0809427
154.274989
112.053256
231.335971
449.7015983
141.9432315
167.333466
1719.751053
4286.927087
4450.08779
1383.779313
1083.874994
3018.827174
2202.594978
5081.806098
4995.298702
1342.88948
306.5146881
142.8296983
147.5538482
137.0320883
141.3291213
300.7593086
164.053306
170.6502614
437.7280166
1008.934194
405.7250367
424.3898695
6518.465081
3396.440537
544.6356917
1095.769922
3897.915302
4281.973596
609.7519294
257.8924412
216.2791649
309.0709644
272.0650695
638.3210229
1469.356047
5027.156942
5091.509362
1734.790627
250.9811918
131.740559
135.6799467
699.6358605
686.2655265
335.9189952
2080.91546
1908.980476
931.3507566
676.1486231
351.8393221
365.9965795
960.8843419
386.45804
393.6184806
370.9670509
382.7709927
942.3558145
364.9753828
156.210435
162.0300053
149.197559
154.3773801
360.607712
422.7344026
1009.381278
999.5595664
1595.833212
1549.098581
490.2003916
359.0007758
736.6805636
701.8748843
995.3136327
988.3957388
395.4544787
473.9591823
982.9561934
796.5344753
6146.236899
2195.472084
723.6851467
897.049217
531.5616153
1629.037607
1603.249849
1635.695189
601.0367508
5139.635833
8729.496847
320.4279249
363.9614065
431.3415223
448.0598071
1110.367429
2047.156192
1240.084148
631.4608209
1733.982202
8298.689665
1859.148754
1667.844053
15974.42659
1080.018304
1607.791296
1984.225235
2415.907896
1792.542842
5787.515917
5863.974151
1412.74761
1851.73387
6097.785477
1447.118456
1383.34089
392.7794516
1465.26124
582.5583966
1454.234131
428.8519886
4461.991672
3125.621142
1036.539654
5187.18511
6019.129996
4752.902176
3431.278816
1115.544301
4899.89895
6006.038142
3394.867337
4662.753509
6374.619522
2163.3834
3031.319002
1473.928303
1915.779782
5728.791683
4602.847966
1318.399086
806.2034047
2151.756812
1452.570665
725.3376298
455.1651668
1321.483735
4620.030445
5842.442952
1635.491355
1403.75365
4499.218575
4630.206256
3318.850288
3128.807842
1110.5444
5363.164367
5265.927955
3897.665219
5213.366568
5225.062659
1306.186965
5138.896835
3413.41254
3317.296509
3730.495147
2024.603028
953.3088936
1030.442444
4237.873298
1204.27768
1363.886304
1061.901115
1157.386974
3965.282674
3901.090199
1097.842038
1299.005599
378.8372104
399.3128388
918.2470124
749.1167877
359.1300246
373.7383046
1353.413507
1365.809023
878.6254616
322.992513
344.258269
296.9890665
316.7359643
871.3592232
938.3821723
387.9461568
421.8028055
351.9686277
378.2359844
945.099288
576.3919598
271.1765508
291.1432728
829.5246646
861.8845558
2785.444072
2901.210196
1038.634706
4152.413531
4200.599382
5301.86884
2859.838826
2387.295342
4065.483521
2824.613539
704.3184951
1996.955071
2661.112018
1522.121695
525.8146849
589.8543747
501.1808233
515.0382812
1486.732721
639.1482803
649.7411948
610.8636993
635.2910379
1409.959802
451.191893
464.0934121
430.1282215
446.6474424
1401.297975
1460.066794
484.7061139
496.6033912
468.3023409
480.6472379
1457.024996
4927.488618
4984.137613
1482.810327
1664.07345
5228.823346
4909.804253
957.0745206
961.9370512
931.3428965
955.5312094
974.5283525
987.1828606
963.7578527
971.8970905
666.5188542
676.9343684
653.0653097
662.9777322
717.5618925
888.509936
681.9970023
694.7497405
1786.03589
2094.303326
1421.423362
1660.930521
5962.195369
3325.659052
3653.724407
2240.601189
3205.785823
1022.966298
1015.306733
427.0638831
1624.766381
1629.657181
1592.008209
1615.205848
1675.048224
479.2476559
1513.010398
1076.431249
958.3368379
757.3963184
363.0963052
1035.915614
1495.872408
987.9499194
1045.876012
1556.201035
1580.051817
1515.663548
1546.198806
391.7690905
986.2815276
976.5871048
6092.152984
1479.748491
5983.90611
5154.326588
5962.133664
1586.623355
6345.362567
1935.903405
6088.639008
5289.776449
730.4936956
811.9902749
1662.94067
1634.316627
536.3662378
585.0386227
1727.931103
1665.687753
6011.347539
1150.916928
459.9177398
502.6711849
6194.721565
7013.669034
1807.762948
7604.711566
5536.617281
2321.206007
1081.649835
6639.389929
3917.211517
7381.335034
4354.544512
1549.908808
70.56776361
45.15547586
37.98763417
6025.995642
6001.494769
159.4356012
82.71998195
83.64582046
6272.475595
1066.861973
3100.546717
2200.502061
371.5465369
309.5366615
185.269011
372.5429253
252.0639154
595.1540616
2150.770173
363.8196654
401.8069018
57.83594726
68.73498387
138.7059636
469.0094527
936.0471426
1383.729499
221.5876136
122.1531333
125.7060967
117.2915638
120.9580762
218.3554541
940.9353929
1047.72504
3398.115113
760.4839921
668.5282629
395.9605664
341.5765846
354.7698758
744.0239686
1504.674337
1921.106402
662.4766728
126.8468976
130.4859568
247.2500682
310.492241
652.812231
627.3565734
605.7536525
540.6669462
289.3532559
633.7582192
323.5921493
337.2109642
4772.168862
4480.792399
2814.636686
1644.523124
1622.730819
1038.540156
4079.982627
5973.076782
5374.871938
1431.528904
831.2089024
917.7983309
1720.008807
1074.778214
1678.035588
1665.055606
1688.369864
3496.56646
5648.780282
3860.160656
4288.271167
5814.73311
1704.096464
1369.284734
820.3082365
1414.765879
201.5861813
159.0228305
287.8397691
1001.636801
2685.252438
1887.501775
6154.505825
6487.87346
6622.566999
5502.480655
6322.757365
104.3949272
134.9922151
353.545651
3665.2431
2398.763161
1849.311297
4783.194114
3707.670976
2467.404361
4401.196523
4022.525335
6164.612229
5850.249084
4320.026802
864.8748681
931.572861
1859.715184
5692.480175
3150.55804
3489.442678
4625.930604
2875.789541
3327.046716
1295.193158
1704.5963
1386.539811
884.9136899
610.4314974
618.1425712
1314.167842
825.608453
866.6845229
623.2289015
633.0533041
902.0376899
240.4212879
265.2492219
549.8167232
692.4091162
1222.756209
898.2941568
1372.775155
1423.183309
918.6680785
1816.334685
1332.068705
1382.362123
937.8926271
939.6248917
1486.102834
1478.698258
1490.964383
1412.914923
1433.067941
1422.048117
899.8316697
903.0879191
883.237645
888.131161
1381.961603
1471.302232
928.862587
932.1295265
906.6620401
910.3284477
1444.341835
667.7825118
656.8681823
313.3029868
333.1004199
682.6052953
671.3047003
510.9906239
499.5841127
269.8548248
1522.997953
1525.009516
1495.442037
1499.645089
1868.430311
1531.672419
1532.536886
286.6913176
529.6830121
515.6171152
5657.458813
5596.798261
3665.240121
3870.24949
5690.05762
5642.682327
5848.303186
912.6808824
1838.828922
1534.704037
307.7325988
319.3064405
606.2224852
542.3814025
295.1954097
304.4846877
1066.831265
1066.815552
742.7201683
760.8727051
1074.317095
1078.597972
6030.046443
1430.086365
938.4777022
925.8802527
12371.57436
2241.57119
2128.299916
4993.326806
4166.723585
1744.41266
1723.672282
1091.423984
6434.444474
7013.110605
6704.109452
5284.033452
1158.467608
1788.544438
1733.885637
3132.294367
1152.102547
1359.09969
5913.571564
5825.024081
4591.533817
4268.965449
2560.667012
1442.092951
2036.558305
1612.734287
3728.344095
5963.236398
5119.143822
6033.789558
5778.31338
4203.737236
231.0019816
331.3441952
1134.641018
4434.125202
4343.134783
4517.130195
4507.990647
4376.127096
2830.341457
2809.699321
2847.71736
2832.871102
4374.337016
5118.653298
2901.523796
2924.838968
2781.063538
2863.692678
5203.486226
4065.282826
2574.933025
2319.723693
2790.670609
2718.211597
4164.626481
5004.42778
2983.748306
3006.240725
2951.368001
2964.270603
5050.445033
4611.328483
4534.106777
4706.852414
4491.490891
1007.695094
706.6331258
710.1018583
1581.985646
1014.697334
1018.415838
988.7687662
1008.584559
1570.851514
5872.631058
6087.560614
5367.464177
5944.372053
1644.190074
1657.396429
1616.465572
1630.826699
2082.552651
985.8354971
1579.117865
1518.343668
1619.251329
1023.816306
1027.156774
1019.988592
1022.314394
1612.742143
1555.13651
1595.628958
1097.971815
1495.665617
2057.128843
6318.125734
5921.467434
4584.861281
6132.689349
833.3998786
1163.869872
13034.09511
1112.418181
769.0683529
772.0310708
1738.209595
7944.673291
8218.336635
9505.812228
6157.6326
5816.641563
1693.305671
1681.935374
1075.503007
1653.903593
2949.895709
4245.960959
2970.244535
3929.081011
2944.752072
1202.113813
4017.397666
3007.12539
5846.099581
6054.398657
6044.600438
4619.505987
5254.559346
1412.864899
1729.160118
1328.059262
666.8974199
872.1264529
1314.847042
1406.050915
900.9189205
1286.310257
1675.137975
5845.488359
6116.392692
5756.279982
5496.915443
6251.331423
6204.751418
6068.893712
3823.744083
5377.828829
4917.895161
6020.843722
6226.728268
4240.724835
4533.025291
4976.229628
6281.014949
5150.949177
3754.701733
4077.919132
3456.256845
2479.451763
3464.885697
1826.167467
2660.604069
3574.602925
3921.498822
3616.80933
4780.525154
3020.696363
2868.445448
4105.41658
2978.243338
4423.631195
4537.322344
2864.396115
2851.49335
2887.993375
2860.616009
4563.796628
3252.923289
1943.631669
1978.390419
5302.998663
5294.912018
4544.755099
5677.776098
5485.975988
5346.158201
5305.570312
5533.716077
4283.953144
2325.824057
2594.681366
2031.542172
2133.442344
3667.680875
5877.70743
4978.561156
2832.07606
6210.268367
5945.848044
5925.222205
3934.590575
5873.070446
5683.45829
2370.44997
2677.289178
4914.965612
1332.331368
1381.586112
679.8430043
753.9143222
1268.883774
900.1711827
636.9906655
660.1096701
1332.224796
1299.486157
784.6628292
1358.289387
1694.150425
864.4113339
1375.307655
1363.671749
2784.010462
1897.136339
1868.095274
2084.262731
2016.917704
2940.587873
4403.277918
4119.794084
2677.697883
3977.90841
4175.35891
3733.799257
3937.849442
2632.656111
3973.730312
3893.250758
5059.647552
3719.619568
993.7971707
985.9728318
1448.771957
1493.760614
949.7309685
946.1974117
1462.189797
1472.395668
1444.062886
1454.438807
895.1685707
897.7974007
1418.899521
1391.907904
890.5689701
892.766515
920.8666762
924.2037181
1464.512884
1451.811315
914.2582385
917.6446761
4961.216501
3064.932887
3084.674808
3021.122712
3039.729548
4940.799439
4963.541234
3395.457288
3927.869735
3124.810054
3202.782141
4939.104552
958.8113699
1507.835034
1498.622343
1520.974508
1514.811385
960.2526607
948.0325059
1466.927071
1450.140112
1489.842095
1479.452512
953.1775723
979.1229523
1561.166752
1552.225931
1574.214753
1565.503647
981.3537147
965.9832809
1532.885091
1527.50721
1546.975739
1538.870716
968.3302605
1513.929972
1517.221267
669.8554318
952.9245686
950.8074359
958.2441159
956.5233355
673.8309749
1505.26084
1509.035304
1572.349403
1493.281498
737.6914005
1009.480034
1018.812196
1416.900869
1366.282337
812.6024481
684.1521953
964.119962
963.349976
970.4368481
974.1484163
693.3734576
1541.940069
1535.165684
5598.465074
5462.33924
5769.451382
4143.898807
4814.121735
3442.764775
5488.091241
5555.010332
5474.027766
5486.292585
3511.879485
2502.00887
4721.499769
4030.68332
5384.04243
5520.259297
2898.18357
1027.073227
728.8868697
730.5116609
716.1013849
718.473083
1015.78685
1625.173173
1638.067831
1597.267633
1612.6376
1584.180576
2001.271979
1452.069205
857.0007539
941.1078107
755.5332497
777.1433855
1065.93321
1406.356041
1929.823095
1535.910847
1461.40599
998.8682532
1586.765701
1574.721678
1620.689134
1579.585011
995.0685417
1563.110217
1573.803646
1527.261684
1538.038315
5752.699596
3851.513365
4092.399464
2934.006418
3457.075637
5851.193953
5929.568663
5741.70418
4447.902641
5036.231312
6261.94379
5904.797018
4514.607227
4770.799689
3642.680092
4100.39702
6081.192427
1687.514619
1688.583928
1671.445979
1674.735184
1118.197948
1129.632186
788.8760365
1746.831484
1653.206178
1705.424733
1696.50219
1649.301563
1035.568805
1042.829024
1028.93948
1033.925277
1645.774297
1683.008385
1055.213283
1109.481866
1044.26197
1058.050924
1686.224472
5814.557187
798.0573762
802.66008
1153.317599
6038.995634
8893.792868
9234.351183
8808.79647
8773.302824
6660.142089
1757.290182
6625.935674
4799.498528
5183.483395
1089.393727
1715.639798
1700.615426
6598.714251
7249.149565
7001.154258
5740.822584
6248.533308
7688.298692
7308.522044
4735.459216
6914.47881
5979.399983
2115.691341
1704.733825
1147.561355
31.78285767
31.80260191
31.87601908
31.81055337
31.84317665
31.89677287
31.85497106
31.89754188
31.92643215
31.91146322
31.95659948
31.95830989
31.96797836
31.99497717
31.98110052
31.99853818
31.99665319
31.98179028
31.9909621
31.95915705
31.96132166
31.94714638
31.90204759
31.93051806
31.88964054
31.84949339
31.90128881
31.83848737
31.80887353
31.87987183
31.686647
31.72732525
31.7807954
31.74453017
31.80785785
31.82966154
31.83325385
31.91671158
31.89517836
31.94617343
32.03683215
31.9635512
32.05720913
32.11121073
32.01225542
32.11975987
32.12480037
32.01036087
32.10909681
32.04205226
31.9667519
32.01708471
31.926695
31.90166772
31.89839674
31.82093099
31.83732486
31.7967699
31.73994187
31.78834398
31.61499706
31.69050339
31.71421933
31.7242248
31.8468901
31.80961261
31.89721867
32.07668231
31.93921101
32.14400459
32.36619598
32.07591923
32.40472759
32.55367436
32.19039292
32.57653803
32.5981729
32.17964128
32.5410423
32.38229768
32.09039025
32.31726091
32.10268375
31.95234758
32.03661935
31.86785488
31.82367023
31.82165585
31.71293599
31.72790421
31.57215253
31.70640673
31.68892484
31.76647365
32.01054639
31.8746269
32.11799586
32.54065245
32.15540948
32.72088597
33.4369308
32.49195406
33.58864455
34.24687628
32.82517022
34.31401727
34.30782248
32.78640584
34.00557064
33.43743733
32.5287726
33.21120084
32.62367538
32.1931999
32.4604015
32.07542753
31.90287334
31.97597389
31.75099006
31.715089
31.56722315
31.79740544
31.72195888
31.90377909
32.36413157
32.07972489
32.58525619
33.60291395
32.73359633
34.13253877
37.05846411
33.83975972
38.23143098
45.21192862
35.30143172
45.19547859
42.44781701
35.06392346
40.00973784
36.60027052
33.87651581
35.7132048
33.87637711
32.86158091
33.45239984
32.54966704
32.16842007
32.33821975
31.8880192
31.77424827
31.59988079
31.95968446
31.83233027
32.13125413
32.9169738
32.48793803
33.32362374
35.49640931
34.00748422
36.85034186
50.0263913
38.40928318
45.93483743
53.08847572
43.39518765
67.23532296
64.82253635
48.1054166
51.51201037
44.9810096
41.93484251
41.86737453
36.39443291
34.39192471
35.35374075
33.39470393
32.73021969
32.9798491
32.1507195
31.94223373
31.66482122
32.17371977
32.01208757
32.41851575
33.55913176
33.08221059
34.16019253
37.48600341
36.04419493
38.36860614
41.07970831
40.07157606
61.50632065
70.54959183
66.6941492
103.5694372
72.28327106
59.85296522
52.15099946
40.21047594
37.28586097
38.17456413
34.59168831
33.67284589
33.8844124
32.53153717
32.23750491
31.74783609
32.39445742
32.2294651
32.70204731
34.11545149
33.70656664
34.85015507
38.80677355
37.87180332
40.54636776
43.9857238
43.42258984
72.44305246
86.31901911
85.06777631
166.4031571
101.3505876
90.94381364
62.17153641
44.28204594
41.31138183
41.23102048
35.92963711
34.94254745
34.9042912
32.97479846
32.6399897
31.83388566
32.59676067
32.44623752
32.95357412
34.56051065
34.23481567
35.38085419
39.7104093
39.05022565
41.84297397
45.65770209
45.26127546
78.71964693
105.0110979
101.8222454
186.5425324
116.8955856
112.8571536
68.45096693
47.45034952
45.25747162
43.72314391
37.09630726
36.27072845
35.81506439
33.3983845
33.08360528
31.91623684
32.77451086
32.6404917
33.17028535
34.92835655
34.65496524
35.81778899
40.49963507
39.89795843
42.9017908
47.16746326
46.70199661
88.70280548
121.0106235
117.8032842
178.8759246