/*--------------------------------*- C++ -*----------------------------------*\
| =========                 |                                                 |
| \\      /  F ield         | OpenFOAM: The Open Source CFD Toolbox           |
|  \\    /   O peration     | Version:  v1912                                 |
|   \\  /    A nd           | Website:  www.openfoam.com                      |
|    \\/     M anipulation  |                                                 |
\*---------------------------------------------------------------------------*/
FoamFile
{
    version     2.0;
    format      ascii;
    class       volScalarField;
    location    "1.24";
    object      nut;
}
// * * * * * * * * * * * * * * * * * * * * * * * * * * * * * * * * * * * * * //

dimensions      [0 2 -1 0 0 0 0];


internalField   nonuniform List<scalar> 
12556
(
1.155905913
1.155877343
1.155846317
1.155816804
1.156031015
1.156021331
1.156023932
1.156038855
1.156072148
1.156136421
1.156241912
1.156377976
1.156509165
1.156545278
1.156520652
1.156410964
1.156280875
1.156183202
1.156095316
1.156061731
1.155815424
1.15582112
1.15584137
1.155866799
1.155191424
1.155109637
1.155019195
1.154938903
1.155125994
1.155106472
1.155135786
1.155313169
1.155472488
1.155773875
1.156265704
1.156919251
1.157553813
1.157882588
1.157746763
1.157218448
1.156592416
1.156038959
1.155556036
1.155316309
1.154971603
1.154958557
1.155006111
1.155084791
1.154455738
1.154310718
1.154156057
1.154030477
1.154217562
1.154216401
1.154302998
1.154592746
1.154997785
1.155741518
1.15697996
1.068569874
0.9672663266
0.9090663203
0.9449377874
1.052180845
1.157568413
1.15632134
1.155290332
1.154732989
1.154191256
1.154122814
1.154176848
1.154294774
1.153697439
1.1534986
1.153292144
1.153140976
1.153316479
1.153369324
1.153568433
1.154080205
1.154940499
1.156707655
0.938080619
0.7379558594
0.629327286
0.6245485439
0.6720546532
0.7667106449
0.9285726776
1.15753107
1.155574827
1.154449205
1.153545553
1.153361089
1.15337643
1.153517503
1.152920521
1.15266179
1.152403409
1.152240285
1.152450449
1.152593352
1.153001551
1.153856574
1.155671883
0.927129225
0.6159104061
0.4431276287
0.3743353859
0.3849893096
0.4474835086
0.5397053196
0.6761145795
0.906018272
1.156772906
1.154602306
1.153110787
1.152664221
1.15259699
1.152740264
1.152144723
1.151835191
1.151544076
1.151388649
1.151632477
1.151917417
1.152684283
1.154076783
1.117189559
0.677380006
0.4012736302
0.2446584903
0.1862310236
0.2136041631
0.2883754008
0.3831061456
0.5050582217
0.6956274586
1.013930957
1.155308058
1.15287761
1.152050415
1.151836797
1.151947557
1.15136386
1.151003352
1.150680869
1.150546394
1.150876063
1.151358687
1.152576593
1.154829433
0.937920506
0.533825189
0.2830727853
0.1233670141
0.06687305223
0.1047095162
0.1894283871
0.2851928868
0.3960890509
0.557723864
0.8541918711
1.156619443
1.152854862
1.151497287
1.151063517
1.151108343
1.150601535
1.150204498
1.14987426
1.149786896
1.150204456
1.150942053
1.152741408
1.155974352
0.8482668085
0.4930918471
0.2690930304
0.1065961825
0.05778693568
0.1410959672
0.2325893112
0.3351539554
0.4763612177
0.7437442416
1.11331086
1.153084109
1.151053615
1.150311951
1.150252973
1.149871924
1.149436156
1.149097522
1.149064022
1.149645045
1.150680972
1.153147846
1.157315738
0.8305030649
0.5308406834
0.366894605
0.2744205443
0.06736398284
0.1355253456
0.2159820841
0.3097148647
0.4378293645
0.6846067377
1.027471031
1.153524571
1.150718838
1.149608804
1.149422125
1.149202996
1.148746355
1.148417215
1.148476991
1.149204219
1.150572876
1.153739552
1.158695914
0.8492528698
0.5997008129
0.5027027134
0.572508913
0.09263975717
0.151255709
0.2239052937
0.3106385966
0.4286477276
0.6603776238
0.9756915161
1.15420921
1.15059251
1.149058164
1.148713575
1.14858697
1.148097309
1.147788585
1.147988077
1.148820733
1.150601687
1.154458929
1.160048684
0.8786124563
0.6592392536
0.5964656471
0.5778247083
0.1258475194
0.1804383409
0.2484907013
0.3311994758
0.4441208174
0.6663341729
0.9529975457
1.155046438
1.150664096
1.1487032
1.148195055
1.148062262
1.1475595
1.147274629
1.147597481
1.148519932
1.150733815
1.15523847
1.161313483
0.9086126505
0.6929596244
0.6099901494
0.496890701
0.1635838357
0.2215290155
0.290066147
0.3703917272
0.4836725603
0.6988253057
0.9621270425
1.156082515
1.151001001
1.14862727
1.14794987
1.147576631
1.147056529
1.146819709
1.147290745
1.148316907
1.150921738
1.156006602
1.162507838
0.9443819453
0.7132003336
0.5732319863
0.4360321009
0.075113851
0.2107616932
0.2824321659
0.3556717616
0.4359682898
0.5555094651
0.7547246474
0.9970137031
1.157163539
1.151517317
1.148776985
1.147955051
1.147190868
1.146659159
1.146464973
1.147040644
1.148264225
1.151344187
1.15699734
1.163597952
1.002803861
0.7565567659
0.5714388003
0.2769559473
0.1397138725
0.312144971
0.3919105316
0.4624213363
0.5368632125
0.6527871009
0.8372244088
1.05315651
1.158265333
1.152217272
1.149155971
1.148211468
1.146825522
1.146277019
1.146120384
1.146811167
1.148216893
1.151635127
1.157633308
1.164207661
1.125035477
0.8730121959
0.6746429909
0.07247937678
0.1936219862
0.4709152187
0.6058800731
0.641458242
0.6974852891
0.7960546224
0.9619375823
1.150060326
1.159271954
1.152932205
1.149636447
1.148608911
1.146542574
1.145979324
1.145847453
1.14662593
1.14818152
1.151878484
1.1581499
1.164443966
1.160466259
1.093134049
0.8756557768
0.05125137529
0.2018580955
0.4630795019
0.6986224167
0.8879497621
0.9286652704
0.9878673155
1.13360443
1.166364746
1.160152488
1.153646845
1.150190626
1.149103001
1.146239774
1.145654982
1.145533806
1.146402922
1.148124434
1.152040786
1.15849891
1.164423922
1.160886016
1.120346315
0.9070722193
0.09641228647
0.1645480255
0.4279294596
0.6702116378
0.8774778042
1.030421303
1.116482402
1.158654022
1.167019701
1.160823965
1.15425242
1.150695837
1.149578019
1.145998017
1.145395297
1.145269915
1.146188273
1.148020261
1.152100447
1.158639178
1.164150803
1.16000094
1.12287699
0.9410817738
0.1834627666
0.1125598993
0.3864223462
0.6460973622
0.875156157
1.0333961
1.117967312
1.159229633
1.167329178
1.161278539
1.15473773
1.151170194
1.150041477
1.145700343
1.145075714
1.144934207
1.145900347
1.147855803
1.152047872
1.158567811
1.163529732
1.157677612
1.118155099
0.9393059617
0.2312599632
0.0892191206
0.3674647146
0.6439732391
0.87988783
1.035305046
1.118627868
1.159316067
1.167315094
1.161488854
1.155039799
1.151502248
1.150379609
1.145456415
1.144818149
1.144652924
1.145621979
1.147627016
1.151885378
1.158298674
1.162598425
1.154797774
1.108731177
0.8958090935
0.196538836
0.09946966397
0.3748016734
0.6484973991
0.8835666887
1.036484712
1.118746707
1.159042605
1.167048457
1.161563539
1.155275773
1.151792214
1.150675828
1.145131711
1.144480228
1.144289338
1.145269549
1.147344555
1.151625582
1.157854195
1.161405217
1.151472051
1.097700341
0.8408391149
0.1669793669
0.1129375976
0.3821969412
0.6517721424
0.8858697917
1.037120268
1.118509617
1.158516231
1.166598889
1.16145865
1.155350464
1.151933146
1.150825439
1.144866338
1.144213298
1.143999976
1.144956782
1.147022535
1.151289935
1.157263717
1.159995007
1.147748974
1.084997379
0.7795875643
0.1456219576
0.1256530784
0.3890290815
0.6545351513
0.8866719926
1.037231224
1.118016221
1.157818882
1.166026404
1.161309396
1.155417454
1.152066543
1.150958469
1.144502533
1.143849867
1.143620353
1.14457893
1.146680814
1.150903727
1.156560759
1.158406488
1.143626496
1.069936969
0.7227288144
0.1296052603
0.1371727214
0.3953554626
0.6570420625
0.8863727823
1.036753181
1.117295976
1.157002464
1.165376996
1.161039473
1.155348084
1.152059039
1.150948253
1.144212829
1.143571957
1.143334517
1.144269112
1.146329813
1.150488069
1.155774106
1.156663828
1.139026937
1.051179707
0.6743202332
0.1177883901
0.1474479338
0.4013098955
0.659349326
0.8854860267
1.035704464
1.116348418
1.156094729
1.164681514
1.160794104
1.155325343
1.15209023
1.150966393
1.143812048
1.143183296
1.142944758
1.143888696
1.145980603
1.15005562
1.154921515
1.154771168
1.133781364
1.028301682
0.6330830922
0.1089037116
0.1565250152
0.4069235598
0.661465826
0.8843401794
1.034213448
1.115185627
1.155113198
1.163959975
1.160449941
1.155171742
1.151982553
1.150844139
1.143504229
1.142897367
1.14266651
1.143595804
1.145632416
1.149611522
1.154009916
1.152713767
1.127649095
1.002636362
0.5974676934
0.1021840173
0.1645897796
0.4121986759
0.6634069774
0.8830949742
1.032431997
1.113841621
1.154074422
1.16322532
1.160175983
1.155110062
1.15195963
1.150798373
1.143077085
1.142489921
1.142269916
1.143216738
1.145290552
1.149156138
1.153038976
1.150465007
1.120404998
0.9759863874
0.5664642658
0.09708332985
0.1719010597
0.417162134
0.6652032775
0.881826747
1.030482623
1.112360898
1.152995692
1.162487041
1.159798705
1.154905966
1.15178838
1.150605297
1.142757807
1.142199152
1.141999524
1.142942724
1.144949305
1.148687924
1.152003953
1.147988836
1.111938985
0.949525081
0.5392618225
0.09338981104
0.1787169018
0.4218562187
0.6668823794
0.8805717595
1.028450348
1.110786525
1.151892844
1.161751953
1.159529495
1.154834086
1.1517446
1.150533583
1.14232056
1.141785575
1.141604152
1.142566977
1.144614065
1.148204627
1.150897804
1.14523719
1.102295809
0.9238438522
0.5152503612
0.09079400848
0.1851948787
0.4263333735
0.668464972
0.8793496698
1.026392186
1.109154792
1.150779127
1.16102507
1.159139028
1.154600938
1.151537036
1.150301688
1.141990231
1.141487989
1.1413368
1.142308761
1.144277429
1.147704205
1.149711116
1.142166854
1.091636938
0.8992356329
0.4939498449
0.08900114376
0.1914130402
0.4306101371
0.6699705556
0.8781765252
1.024347171
1.107494362
1.149664915
1.160310432
1.158889767
1.154531689
1.151490164
1.150225497
1.141567983
1.141090546
1.140961223
1.141946496
1.143946029
1.147183904
1.148431868
1.138731185
1.080172984
0.8758319059
0.4749680622
0.08795011447
0.1974163961
0.4347081649
0.6714184991
0.877066924
1.022342821
1.105827969
1.148558211
1.159609517
1.158502616
1.15429158
1.151272602
1.149984619
1.141213387
1.140771684
1.140679973
1.141689728
1.143611329
1.146641021
1.147045381
1.134901611
1.068112613
0.8536351883
0.4579431154
0.08753911375
0.2032193812
0.4386620643
0.6728363794
0.876036273
1.020400041
1.104174083
1.147465179
1.158925907
1.158268126
1.154217283
1.151219039
1.149902236
1.14084702
1.140428888
1.14036054
1.141370487
1.143279995
1.14607165
1.145534764
1.130664342
1.055632614
0.8325862518
0.4425277446
0.08757145363
0.20885212
0.4425208001
0.6742574966
0.8751020331
1.018535895
1.10254704
1.146390549
1.158256438
1.157918122
1.154007671
1.151029722
1.149693294
1.140432328
1.140052823
1.14002718
1.141072218
1.14294595
1.145474726
1.14388656
1.126014216
1.042878807
0.8126249761
0.4284990472
0.08797052505
0.2143364595
0.4463253591
0.6757112451
0.8742805344
1.016765081
1.100960696
1.14534094
1.157610238
1.15764979
1.153888052
1.150933521
1.149568995
1.140178147
1.139819419
1.13981717
1.14086255
1.142618061
1.144853957
1.142101853
1.120963523
1.029962884
0.7936794029
0.4156860466
0.08870842566
0.2196814087
0.450105636
0.6772240276
0.873584725
1.015099934
1.099426224
1.144333686
1.156987152
1.157430049
1.153775723
1.150837053
1.149458988
1.13966097
1.139351254
1.139404582
1.140481164
1.142324623
1.144235156
1.140241199
1.11555514
1.01703129
0.7757707989
0.403924155
0.08975806174
0.22489311
0.4538546028
0.6787960507
0.8730157633
1.013547212
1.097949504
1.143431105
1.156449443
1.157088132
1.153619743
1.150715023
1.149307297
0.2387316368
0.05971586442
0.05034944011
0.552915017
0.08416297891
0.06253005314
0.5875756165
0.1183623065
0.08817867411
0.5057144557
0.1499896969
0.1234546409
0.4415427589
0.05585781677
0.07045960274
0.1849604351
0.1539519344
0.3276447682
0.0997000939
0.05749713822
0.125852313
0.2514323328
0.188191258
0.1026150964
0.06818812122
0.0521777833
0.09906453252
0.03041217079
0.02137663444
0.0649970222
0.1151914665
0.1209059588
0.4702108016
0.5229699486
0.2845495876
0.04377095684
0.05023656383
0.08928423923
0.1294506656
0.1170569243
0.5802856684
0.6854793865
0.5467461575
0.6256645912
0.2217510822
0.2581005465
0.07182009642
0.05323478042
0.121593008
0.1572718133
0.1353712772
0.6120941701
0.6097022373
0.6763469162
0.5477242737
0.1344173628
0.1807101766
0.1240456773
0.09452108971
0.5821626854
0.5274026765
0.6007021078
0.4808226769
0.07473501736
0.1014430957
0.02320201801
0.1408785446
0.1355853107
0.5621989505
0.3871148214
0.5164852123
0.3961589413
0.02788383559
0.04658475177
0.2539007184
0.1436197188
0.1102850665
0.08368354031
0.232295627
0.03859608143
0.07471141102
0.0486176952
0.03169093922
0.05226538134
0.03353619119
0.04671837048
0.2633367602
0.3031026924
0.445620431
0.2313071386
0.206932602
0.2821154604
0.2360211741
0.05278091588
0.0435493939
0.07385636593
0.06211187079
0.06888530242
0.04790550999
0.06245312075
0.0723890504
0.1841927348
0.2166125014
0.6161082787
0.1652603734
0.1351705121
0.2044512683
0.1677989617
0.0905332873
0.0733867751
0.1054657269
0.09667452935
0.1158811152
0.06947211808
0.09354046063
0.1009218133
0.102999801
0.1324987317
0.5376176596
0.1045753645
0.07704600017
0.1334906071
0.1061049356
0.1346971625
0.1281481369
0.04754313931
0.07288819065
0.4781636888
0.01585103598
0.05020075074
0.02967138975
0.07591333374
0.0517715224
0.01383138743
0.1465515761
0.1423857386
0.02626682291
0.004673775786
0.02754926144
0.390180524
0.08397529598
0.017389514
0.009517652831
0.02933298719
0.01772453157
0.08225327607
0.3344854189
0.2515925418
0.125009981
0.1388387719
0.08352569068
0.0460030708
0.01649113806
0.009112299762
0.4029035938
0.3086685866
0.2560172961
0.009369941779
0.1563718626
0.1940611593
0.1657215105
0.009715194423
0.07739319467
0.06798050285
0.09606950214
0.1623794089
0.1500893582
0.219473802
0.09363441733
0.1580413273
0.04263296262
0.0148083146
0.02581570626
0.02454803956
0.03183074801
0.05094187532
0.06599658241
0.04824400107
0.1384854718
0.128203433
0.1365361513
0.1171503988
0.1269731301
0.1351409689
0.03766546755
0.01126144713
0.06836568028
0.02690958727
0.04668909682
0.03750902199
0.0217701977
0.0344397651
0.02562146618
0.0154098358
0.02451799505
0.02194127968
0.01093227376
0.0177160836
0.02322101336
0.0548943613
0.05574228122
0.0627837501
0.06148158123
0.02370886602
0.01092667755
0.1110299495
0.02005989464
0.03769481906
0.009987278474
0.01696602233
0.10671871
0.08965185163
0.2680829247
0.2527801074
0.09651840076
0.08231340264
0.01007166908
0.04163089483
0.1879006399
0.173572837
0.2078122044
0.193726524
0.04201895188
0.05388785187
0.0429835717
0.1264896633
0.07081032095
0.06951155843
0.04018370115
0.07013454067
0.1441062843
0.04734206809
0.02709237292
0.0169368932
0.060701305
0.03010655177
0.05258046014
0.02861152489
0.07499372925
0.03923097997
0.03886093191
0.2247834639
0.02996213707
0.2236831521
0.2609686678
0.03420847614
0.03902524861
0.03043945989
0.03362842261
0.254577968
0.05087064459
0.05051964056
0.06602666523
0.07038939733
0.06570332383
0.07697040953
0.07199170008
0.06635685347
0.05811858483
0.05816261648
0.05312093785
0.06403004085
0.0595474449
0.05970457594
0.1503361469
0.1483957643
0.1872650155
0.1849754338
0.08596885661
0.009722626267
0.08439726197
0.09417031099
0.0922029988
0.1190654152
0.1172148461
0.04031222947
0.05912033739
0.1326279908
0.04494357196
0.02556193835
0.06356445076
0.2277403762
0.2129734133
0.2476653829
0.2326762757
0.06490654961
0.03416091639
0.04568518228
0.04469268118
0.06843367047
0.06754706948
0.006519019203
0.0457401766
0.1155426963
0.1014211915
0.1679669092
0.1570813765
0.02179454913
0.01124117243
0.02838736175
0.01837433658
0.02786927718
0.01041908571
0.01671418038
0.01078879
0.02789632353
0.07312534214
0.01195336565
0.02475080388
0.003632319565
0.02424491359
0.01801360767
0.6322739454
0.3626915262
0.3666642258
0.2403889961
0.007948521537
0.005308382806
0.1874720159
0.3980543284
0.2838294245
0.006332765256
0.01552258366
0.01130841673
0.1237209616
0.1205006245
0.04956797648
0.2025709138
0.168709692
0.0995204199
0.01087636608
0.01886707342
0.01478984586
0.009454446524
0.01431764317
0.01011242837
0.04704995217
0.02111163599
0.01978949022
0.05498043588
0.06747067334
0.0207864516
0.02838109637
0.01328577586
0.01312906997
0.05539893087
0.1507819116
0.350005918
0.334229828
0.3713884262
0.3553155636
0.1545162521
0.2882214121
0.2729561161
0.09103791789
0.03070626309
0.09158816279
0.08604410296
0.0102111815
0.01601215987
0.1190990341
0.04486695762
0.02384093849
0.0213044713
0.03875933385
0.04537537723
0.04124026147
0.05156398795
0.04680916292
0.03988342736
0.05179754227
0.01393842118
0.0133711699
0.04532352035
0.1978428186
0.3930633367
0.3767352005
0.05818333265
0.06029168158
0.1407799823
0.03011483268
0.03283489642
0.07771372342
0.1064278921
0.1054663945
0.09744064731
0.07679292955
0.08482357185
0.07890662239
0.09451755549
0.08716316943
0.07808872818
0.1177129809
0.3085272692
0.2932318706
0.3290427204
0.3136495604
0.1197217944
0.1001825906
0.03465340484
0.03536072741
0.02002767507
0.02079946826
0.0817152383
0.1275210792
0.05381245831
0.0577572586
0.03566379768
0.03632185395
0.1107126282
0.1339062484
0.06193506804
0.08178867935
0.006728220433
0.02314802489
0.0478695426
0.03619831831
0.07264908448
0.01942017201
0.01989018037
0.01899996731
0.06102696857
0.0104805756
0.004392665668
0.1182112843
0.09863417674
0.08412334931
0.07960604003
0.02713292338
0.02687975883
0.0400987013
0.08922886163
0.01716947138
0.01064271773
0.02540060793
0.03313806973
0.002894713384
0.02883173746
0.01870582801
0.01285608244
0.006555971281
0.01264610545
0.009521514605
0.009380502003
0.03592161081
0.02722510745
0.006482030795
0.03884347307
0.04081890355
0.0171354508
0.0115244951
0.008166868012
0.01192374721
0.01873465318
0.01146405665
0.01642036725
0.05646088912
0.01007330781
0.009222775664
0.01075160433
0.0143375966
0.04546966791
0.01063519214
0.01002940969
0.01453171799
0.01072968649
0.01042939645
0.02481257499
0.01657867291
0.03522752384
0.02781969133
0.0103138216
0.02259079916
0.02234263224
0.01939264213
0.03104682532
0.0237565836
0.01897117439
0.01706289951
0.01328645099
0.01819338062
0.0141823709
0.04960095606
0.05673835281
0.01945586067
0.0182785821
0.01937760967
0.02009763087
0.06594798296
0.01156783828
0.01195958964
0.01572363074
0.01179026361
0.01213854838
0.0568322126
0.01261251298
0.01894060215
0.01596970115
0.01415245777
0.02670905872
0.06944026533
0.06351454364
0.01300042136
0.05302892797
0.04578500544
0.06134464607
0.05549993769
0.01377665326
0.0126469987
0.04812184488
0.03944885395
0.1004859392
0.09361232108
0.0341893702
0.0441629393
0.1081905492
0.1023905327
0.04743172514
0.04630285196
0.07421786132
0.09676603867
0.1250383846
0.07189048684
0.0901481064
0.07548180893
0.063305715
0.1604195163
0.144453419
0.1405944508
0.1650326395
0.06322318083
0.04364386533
0.05258024842
0.06591363375
0.03814060356
0.04316604025
0.03278305798
0.03114510177
0.04357765805
0.02279644001
0.02289470827
0.01824701215
0.0325906085
0.0327212099
0.0237430705
0.03286398549
0.03550248662
0.03771902918
0.03432916478
0.02801857458
0.09994212299
0.0860495301
0.1079348379
0.1029438117
0.02920966307
0.07613760301
0.07347627724
0.08211455742
0.07710238741
0.03596998799
0.1301711478
0.1239319908
0.1405589702
0.1324282634
0.03666482707
0.03170843166
0.1146719313
0.1097029666
0.121968908
0.1164374101
0.03209675216
0.01487794592
0.01421534916
0.05153252991
0.04709802473
0.01485743691
0.01510441812
0.04150196308
0.04068318552
0.04378288726
0.04178379761
0.03920776243
0.03811803341
0.04041665666
0.03948449346
0.06950218805
0.06724514593
0.07265697707
0.07030148254
0.06116506561
0.04660058607
0.06629452818
0.06395540655
0.03360894887
0.0283712805
0.04367221866
0.03646281055
0.009350924057
0.01792205224
0.01673533302
0.02645702031
0.01862152555
0.03369695818
0.0343034913
0.09868680451
0.01997129
0.0197724395
0.02061584248
0.02015617715
0.01914317998
0.08420426966
0.02136888119
0.03168985221
0.0384359737
0.05185373221
0.1254672421
0.03517544187
0.02272165948
0.03797671028
0.03501850441
0.02138939777
0.020852978
0.02231433259
0.02161666423
0.1122857576
0.03654832314
0.03741227618
0.006641965192
0.03661196817
0.009240014808
0.01012781019
0.009236820079
0.03386520268
0.006887192946
0.0259958278
0.00986638636
0.01041646977
0.04721079224
0.04081019764
0.01883322052
0.01931452879
0.07165804316
0.06324627954
0.01797224291
0.01876436391
0.009549151662
0.02605250739
0.07685551456
0.06812413182
0.01143929245
0.01109708497
0.01636880021
0.01077699919
0.0112893848
0.02319670902
0.02871612446
0.007239057916
0.0128197436
0.01052098145
0.01163679607
0.01949067168
0.05979568553
0.1278212848
0.1664573433
0.009433521723
0.009413325798
0.1925021459
0.2465233782
0.2054122582
0.006503217146
0.04800531074
0.01613332726
0.02383917715
0.1409701798
0.146762551
0.1642359166
0.005261456677
0.008451638068
0.006169334344
0.005085972053
0.006332013947
0.00499477934
0.06429465076
0.0406765054
0.02507491497
0.02740245633
0.02408653635
0.02762490566
0.2373044142
0.4373563268
0.4206140467
0.4598452694
0.4429588998
0.242449338
0.05903665575
0.05112120153
0.01457348463
0.08653297912
0.1006084393
0.1379958756
0.1159547984
0.1100391865
0.04465303043
0.029193101
0.0349546632
0.0341350557
0.4150617332
0.398511024
0.2023078355
0.158502556
0.06652251736
0.07069658233
0.07405063371
0.08587979522
0.1755298124
0.05510572966
0.1248241649
0.1180078958
0.01069795483
0.01102984972
0.01797779375
0.01855666642
0.01883054762
0.03046971697
0.01210645575
0.00974355095
0.01001912656
0.03472396238
0.07057680793
0.0612797327
0.01735821586
0.0291130984
0.01814645862
0.01830288592
0.01773125443
0.01422982335
0.009712540116
0.01284951912
0.01158529679
0.009743923997
0.02989212019
0.03772964034
0.07685224898
0.04105089521
0.03995570327
0.0364522188
0.02690349094
0.05902497916
0.01925303861
0.02699400721
0.0102780605
0.007117144625
0.007197543343
0.01050043069
0.01013973551
0.02612106232
0.01649237582
0.01105702421
0.02140928962
0.02029414731
0.01874060204
0.02169154532
0.02636079871
0.02165556231
0.01191783679
0.01292272052
0.007615012874
0.009367599743
0.01235484667
0.07769775206
0.071417807
0.02915782877
0.009660663392
0.01788045786
0.01603921052
0.01093198612
0.01758536891
0.01495637302
0.05133668169
0.03867636986
0.04416740076
0.07207547067
0.105498566
0.1035027988
0.04197027561
0.07088225098
0.06650421823
0.102058708
0.0993340668
0.06811010498
0.03931404287
0.04763820418
0.03991254431
0.03050527327
0.03212325255
0.02601569057
0.05086713595
0.04905958217
0.05991494511
0.02228600708
0.0326624802
0.03096246319
0.05241478031
0.05198371816
0.02968819499
0.02715342349
0.02672006783
0.02990427073
0.02916880834
0.03483614925
0.0598531331
0.0590861775
0.06451833799
0.06352667506
0.03814917083
0.03080831636
0.05388678314
0.05327874235
0.05830096417
0.05753518113
0.03309754199
0.06361783422
0.06573271646
0.1564009082
0.1425848044
0.06092170531
0.06295162007
0.09379963924
0.09756599151
0.1945317969
0.025085415
0.02494975854
0.02647203188
0.02625185077
0.01903143228
0.02466686288
0.02457183496
0.1778923216
0.0883893152
0.09239802544
0.01009410386
0.0102078958
0.01540788313
0.01464176031
0.009777641615
0.01013609949
0.009787891036
0.07924121958
0.03413331775
0.04185086144
0.1337109524
0.1270986067
0.05828969025
0.06795170567
0.1417063925
0.1356912996
0.02983747267
0.02990712038
0.04605117339
0.04434752867
0.02945453063
0.02942201855
0.00962047245
0.02073234375
0.03261378456
0.03249653354
0.008086143687
0.01333176404
0.02558079475
0.01174239864
0.01163311505
0.01729229766
0.01753267858
0.02830518526
0.01061802304
0.0075397604
0.01051472541
0.01052402133
0.02643588041
0.01682420351
0.01739559062
0.01627102134
0.04476120778
0.03772830537
0.009590830232
0.009658482103
0.01098261846
0.01162864624
0.01998759996
0.00700801052
0.004670332832
0.008645050044
0.01344120469
0.009316594689
0.01027797652
0.009268407375
0.009556404668
0.01189472777
0.01118829841
0.007410594469
0.005499265426
0.01801660125
0.0185982215
0.01734152634
0.01757445183
0.02051520573
0.03083388568
0.03128078252
0.03023423396
0.03064663922
0.02032392354
0.01304004627
0.02319598597
0.02314839426
0.02394561468
0.02334518159
0.01277905272
0.02269605162
0.0344407364
0.03807415215
0.03164071529
0.03262950983
0.02202803638
0.01385853454
0.02316553541
0.02314288786
0.02310731162
0.02314806318
0.01362002472
0.01665057738
0.01705374872
0.0160985076
0.01681199178
0.03480737276
0.05378851473
0.05330878369
0.02027033079
0.03341134461
0.03317246754
0.03466573166
0.03374996793
0.02045920129
0.009947116404
0.009730052849
0.01011267086
0.009929571301
0.01884629242
0.01866598153
0.01924020429
0.01903687448
0.01471824784
0.03239483381
0.0194006548
0.02027937719
0.01959455051
0.03271623599
0.03250404171
0.03302857567
0.03285311067
0.01971869094
0.02009388468
0.01952648774
0.02930920438
0.0210207501
0.01509562539
0.006671873175
0.009731663796
0.01102041702
0.006554281713
0.03888285384
0.02674583184
0.003066722342
0.02712963915
0.04143542941
0.04104769749
0.01712525687
0.01055596108
0.007715894649
0.004373658429
0.01118875423
0.01119925802
0.01794249369
0.01808515053
0.02903130915
0.01814162096
0.009100289808
0.008068760251
0.01533119758
0.004083281174
0.00957468868
0.007407841032
0.0051685196
0.006456623305
0.009461940715
0.008403031113
0.009487432434
0.01097164979
0.01004647405
0.04080377755
0.0306980763
0.009037116305
0.01116591153
0.01263519167
0.01885159783
0.02121198187
0.01354649861
0.01677903335
0.01467272445
0.009449634174
0.006525602639
0.009525334035
0.01010594335
0.006842890514
0.01009009565
0.0100784364
0.01267196847
0.01054123788
0.01054204051
0.01024922993
0.01003368328
0.01158032767
0.01109430262
0.01061511078
0.01036855754
0.01066111621
0.01301534794
0.01203840751
0.02819493487
0.02213042642
0.02462811397
0.02762417087
0.03115341117
0.02733035385
0.02537409019
0.02722319548
0.01729591193
0.02726926848
0.02894771383
0.01989665629
0.02739309716
0.01835323676
0.01903324975
0.02962616212
0.03004602309
0.02894468854
0.02948906271
0.0188034416
0.01959172793
0.03438630156
0.03386490066
0.01174215801
0.01184845979
0.01351481292
0.01056975105
0.01093031324
0.01135684915
0.01206078551
0.01160025427
0.01518693898
0.02862405355
0.02560231241
0.03300893965
0.03136600877
0.01773730658
0.009278723027
0.01063062698
0.01897232385
0.007138789618
0.009261120353
0.00926256636
0.01350556692
0.00935582287
0.009598630931
0.02351590048
0.02088129523
0.01120137028
0.04908175893
0.04490696159
0.08985007461
0.07921970227
0.0441489683
0.06775919396
0.09806823545
0.09337104613
0.03730128942
0.03385765998
0.03430826478
0.02363871487
0.02894150254
0.05036263792
0.04929753756
0.04153314293
0.03268262521
0.04437140744
0.04247016313
0.04211045476
0.04350392074
0.03088256408
0.02170559219
0.02313941644
0.03469529442
0.02477524136
0.02365005059
0.02625307488
0.02502717236
0.03447428914
0.02431503941
0.0249182139
0.02008800561
0.02591599595
0.04737966218
0.04760378434
0.02955022496
0.02916139063
0.05080491157
0.05079443593
0.02788109023
0.02746344585
0.02869541541
0.02824712668
0.06128911756
0.06053822148
0.03529272623
0.03739961422
0.06276548388
0.06203004119
0.05534343749
0.05468238794
0.03131412226
0.03254001708
0.05675310095
0.05604653331
0.01456667941
0.023176395
0.02317668778
0.02319209746
0.02320214019
0.01447340513
0.01530677
0.0214557002
0.01873011159
0.02303553045
0.02260516255
0.01519996683
0.04121495525
0.02379926161
0.02406800905
0.02339302462
0.02359041581
0.04095559765
0.04262838654
0.02498465994
0.02544191803
0.02432480053
0.02463147213
0.04212356053
0.03880774953
0.02220446364
0.02244177252
0.02184733191
0.02207413123
0.03857318334
0.04012203427
0.02301414663
0.02319693776
0.02259927319
0.02283213732
0.03984166275
0.02552934742
0.02535144797
0.06875836523
0.04483395931
0.04518044111
0.0440704439
0.04436734162
0.06792404159
0.02598325126
0.02577993222
0.02347101494
0.0247131168
0.05894592131
0.0401372987
0.03981073854
0.02630764096
0.02768468568
0.05216813186
0.06576970269
0.04330889778
0.04351760558
0.04253468485
0.04247670494
0.06437026487
0.02423611746
0.02429098347
0.01002916704
0.01040973132
0.009638586789
0.01379166046
0.01180020488
0.01751614391
0.0108161042
0.01066467734
0.0109078492
0.0108834522
0.01722382172
0.02365766254
0.01246718615
0.01462999972
0.01093046443
0.01051454699
0.02047970362
0.03364375002
0.05115837598
0.05084271413
0.05259001554
0.05222301187
0.03420362356
0.01993037185
0.01970046377
0.02049645502
0.02022412204
0.02026945268
0.01592253745
0.02243950164
0.04151400498
0.03690328449
0.04866903673
0.04688569684
0.03174500021
0.02455380028
0.01729135305
0.02207706614
0.02339827183
0.03728314377
0.02151236209
0.02179075955
0.02089327352
0.02157593916
0.03734765572
0.02122618733
0.02099689911
0.02205656842
0.02180839769
0.009495442135
0.01325519049
0.01252011087
0.0177946459
0.01476846442
0.009377414235
0.009226736865
0.009504064472
0.01162197735
0.01041480804
0.006796609581
0.01005679487
0.01096950384
0.0107655789
0.013404555
0.01191382231
0.009845942958
0.01825293476
0.01821680496
0.01847954371
0.01842550234
0.02795039136
0.02786606571
0.04243345579
0.01749463211
0.01847378007
0.01799757286
0.01806047593
0.01904266725
0.03195397275
0.0316194489
0.03235846132
0.03209184149
0.01912359175
0.01849758641
0.03094577127
0.02923645528
0.03148816982
0.03095564814
0.01849012867
0.009848648587
0.0394665276
0.03884599704
0.0259178984
0.01144063051
0.01002345132
0.01020953851
0.00741728657
0.0103486637
0.01109398326
0.01693962681
0.0109692689
0.01150734805
0.01124101479
0.02842987137
0.01763747576
0.01783524062
0.0103325259
0.0106189389
0.01055280777
0.01072900148
0.01094475507
0.007633151458
0.007569651293
0.01116572267
0.01055000793
0.01082729088
0.01432634981
0.01761318408
0.02652737494
1.154756621
1.15498318
1.155423218
1.155085269
1.155511569
1.155684875
1.155690548
1.156394507
1.156129671
1.156665392
1.157672076
1.156755029
1.157987191
1.045640342
1.15740946
1.047268903
0.9815121454
1.157813784
0.9772839491
0.9990711704
1.157859043
1.011119233
1.092867374
1.157355645
1.121794136
1.157507988
1.156739769
1.157201175
1.156399296
1.156161936
1.154183949
1.154672666
1.154870377
1.154899804
1.155852119
1.155516928
1.156298263
1.107981688
1.156605825
1.034128202
0.8544999157
1.118317072
0.8083310035
0.7202262976
0.9827503226