/*--------------------------------*- C++ -*----------------------------------*\
| =========                 |                                                 |
| \\      /  F ield         | OpenFOAM: The Open Source CFD Toolbox           |
|  \\    /   O peration     | Version:  v1912                                 |
|   \\  /    A nd           | Website:  www.openfoam.com                      |
|    \\/     M anipulation  |                                                 |
\*---------------------------------------------------------------------------*/
FoamFile
{
    version     2.0;
    format      ascii;
    class       surfaceVectorField;
    location    "1.24";
    object      Uf;
}
// * * * * * * * * * * * * * * * * * * * * * * * * * * * * * * * * * * * * * //

dimensions      [0 1 -1 0 0 0 0];


internalField   nonuniform List<vector> 
25162
(
(99.99937452 0.002352119016 -1.805631168e-21)
(99.99779726 0.001956361334 5.345928694e-21)
(99.99882935 0.006536025952 -1.78625083e-21)
(99.99608383 0.007507743768 1.796367768e-21)
(99.99773609 0.01457303464 -3.565997822e-21)
(99.99247893 0.01830330685 1.074241986e-20)
(99.99881263 0.01842921102 1.11358439e-21)
(99.98558193 0.0388588687 -7.111732054e-21)
(99.99351363 0.04153939704 -1.186585049e-21)
(99.99773492 0.03432340303 1.725256426e-21)
(99.99931798 0.02084813711 8.592039155e-22)
(99.99220495 0.0609834875 1.718613728e-21)
(99.99819852 0.0351504741 8.440630409e-22)
(99.99867029 0.02681340952 -8.642953387e-22)
(99.99772773 0.04574378475 8.440285668e-22)
(99.98755117 0.1039695302 1.682893238e-21)
(99.99744658 0.05905726581 0)
(99.99724907 0.07404260753 -3.135248627e-21)
(99.98316417 0.164917675 -3.135232309e-21)
(99.9968166 0.0920523311 -8.151861966e-22)
(99.99628535 0.1133043208 2.734162845e-21)
(99.97701113 0.2498304809 3.007516884e-21)
(99.99574837 0.1379179523 3.71728006e-22)
(99.99524883 0.1658160006 -2.53718184e-21)
(99.97115239 0.3612917748 3.595247786e-22)
(99.99483987 0.1966911136 -2.645889542e-21)
(99.99459321 0.229857854 1.72791212e-22)
(99.9680149 0.4934069967 -1.794747065e-21)
(99.99461232 0.2640920279 2.319433641e-21)
(99.99497931 0.2976793894 2.044856625e-21)
(99.97127207 0.627020095 -9.186098452e-22)
(99.99569523 0.3284859332 0)
(99.99670901 0.3542486626 0)
(99.98245099 0.7297555218 2.387279509e-22)
(99.99791504 0.3730669428 0)
(99.99920866 0.3837292807 1.699569165e-22)
(99.99824577 0.7727797255 -1.839367201e-24)
(100.0006373 0.3856547826 7.038127542e-22)
(100.0020519 0.3783015148 3.874761278e-23)
(100.0145811 0.7440792803 -4.592617434e-22)
(100.0032322 0.3627142019 -7.764094461e-22)
(100.004142 0.3404565331 9.152360668e-23)
(100.0253259 0.6556580339 1.538177904e-21)
(100.0047323 0.3133959874 3.86334837e-22)
(100.0050077 0.2834511048 0)
(100.0289737 0.5366144887 0)
(100.0050271 0.2524791367 0)
(100.0050092 0.2218296066 7.19638111e-22)
(100.0270443 0.4150779937 1.493054873e-21)
(100.0052554 0.192922663 -3.649969576e-21)
(100.0052092 0.1643788899 -1.352605739e-21)
(100.0238037 0.3025253277 2.974472521e-21)
(100.004586 0.1389406535 2.974250562e-21)
(100.0034512 0.1171263811 -8.586637272e-22)
(100.0146685 0.2131190954 -5.856762562e-23)
(100.0007853 0.1014580453 1.662503732e-21)
(100.0098594 0.1016660298 -7.534002719e-21)
(100.0551487 0.2484447494 5.995472977e-22)
(100.0191154 0.2189900277 -2.701426587e-21)
(100.0030991 0.1020411688 -1.5979806e-21)
(100.0071946 0.05990765025 -9.56082951e-22)
(100.0390543 0.1551261557 1.513687915e-20)
(100.0061182 0.02833264351 -7.688541367e-21)
(100.0296682 0.08403538773 -1.61411629e-20)
(100.026701 0.02681958201 1.523588744e-21)
(99.99417743 0.006216927073 8.931249727e-21)
(99.99195635 0.002497979059 1.971481037e-22)
(99.98894011 0.01763907299 1.42950409e-20)
(99.98538395 0.01064606084 -1.247353817e-20)
(99.97921881 0.03986492066 7.46575507e-21)
(99.97168451 0.02847456265 -1.941626081e-20)
(99.97330741 0.07199357399 -1.253364619e-21)
(99.94892979 0.06339692129 3.733762814e-20)
(99.9537092 0.08615382715 -8.240853127e-21)
(99.9595591 0.09364282987 -1.765061172e-21)
(99.96858757 0.0952058287 3.494117254e-21)
(99.98127889 0.06674976103 1.736254913e-21)
(99.96856239 0.1187156562 1.70482901e-21)
(99.95861873 0.1277003438 1.72949616e-21)
(99.93002281 0.1701638568 -3.486513278e-21)
(99.94745857 0.168902891 -1.355071804e-23)
(99.94989569 0.2019395245 1.683157348e-21)
(99.93401188 0.2204641864 -1.24888948e-23)
(99.89112198 0.2901085158 0)
(99.92694937 0.2645062904 0)
(99.90653776 0.3021164696 -2.10396535e-21)
(99.92885378 0.3129412783 -4.149202905e-21)
(99.92078283 0.327670236 -4.101159576e-23)
(99.89724256 0.3798448784 -9.334204754e-21)
(99.91342575 0.3614306857 -3.208604139e-21)
(99.88852449 0.5035932152 2.835083366e-23)
(99.90178413 0.4778990169 -2.134388196e-21)
(99.85722749 0.5834618968 -1.171278071e-20)
(99.88125713 0.5511871203 -2.850074137e-21)
(99.85638799 0.7405925021 -5.462217139e-21)
(99.87533345 0.6969913264 -5.121129916e-21)
(99.81770352 0.8556201714 4.081725557e-22)
(99.85045507 0.8021482501 -6.562842358e-21)
(99.83392928 1.032355131 -8.686480795e-23)
(99.85922909 0.9617391065 -4.413853307e-21)
(99.7923919 1.188021813 -6.817954769e-21)
(99.83314885 1.103742939 -3.331335615e-21)
(99.84017148 1.344684066 -2.47323221e-21)
(99.87027682 1.236952664 -3.32499287e-21)
(99.80490279 1.539891176 -3.582788131e-21)
(99.8494565 1.414462008 -1.557693256e-21)
(99.88944294 1.607316728 1.552195143e-21)
(99.92066949 1.457637547 -1.544772885e-21)
(99.87154712 1.826266364 -9.091544543e-22)
(99.90854006 1.65976707 -8.048902665e-22)
(99.97006586 1.740837924 -2.040573808e-22)
(99.99588019 1.557537267 -4.447526815e-22)
(99.97313189 1.958125329 -8.234870057e-22)
(99.99173056 1.76499256 -3.830964152e-22)
(100.056046 1.716842851 -1.714332374e-22)
(100.0559767 1.510077831 -1.962361992e-22)
(100.0752924 1.904201206 -9.183569535e-23)
(100.0755166 1.696001802 1.507831362e-21)
(100.1226269 1.54388641 1.977644809e-21)
(100.0948958 1.336286199 3.431766077e-21)
(100.1486181 1.687285299 3.447906435e-21)
(100.132307 1.486279136 4.863115748e-22)
(100.1509728 1.281718533 -5.894175063e-21)
(100.107977 1.095506802 -5.52126115e-21)
(100.1763437 1.381926972 -1.979583606e-21)
(100.1514403 1.208476254 -1.971239176e-21)
(100.145677 1.003074291 -4.841899486e-21)
(100.0971674 0.8495335862 4.494557507e-22)
(100.1627348 1.06705759 -1.315697042e-21)
(100.1400175 0.9328760643 5.378823582e-21)
(100.0961094 0.6006522985 -1.277785836e-20)
(100.1516215 0.814422746 -1.277686555e-20)
(100.2160885 0.8889791716 1.294140258e-20)
(100.1340967 0.6860343026 -2.631273121e-20)
(100.1155565 0.5735120058 1.13828116e-20)
(100.1617968 0.6168987345 -1.646394074e-20)
(100.0957447 0.477160796 2.307878273e-20)
(100.0716339 0.419411541 2.566775571e-20)
(100.0934262 0.2973181103 2.244228437e-20)
(100.2096936 0.4672817937 -2.436402292e-22)
(100.1579642 0.5152546228 4.654911534e-20)
(100.0929817 0.4083601644 2.560354129e-21)
(100.0694759 0.1757785331 -7.175186188e-22)
(100.1531117 0.2908043847 3.229532584e-20)
(100.0570179 0.08152302794 -7.496069765e-21)
(100.1185347 0.1574291878 -1.712963408e-20)
(100.1035979 0.05004808661 7.688590462e-21)
(99.98510316 0.005942587004 -2.142227771e-20)
(99.98635488 0.000310085901 -1.070620825e-20)
(99.97058004 0.0197201483 -4.645220519e-20)
(99.97243845 0.005215365872 1.015329224e-20)
(99.94445043 0.0500591888 1.027941697e-20)
(99.94325261 0.02342380232 -3.933140971e-20)
(99.91373419 0.1035194616 2.377103753e-20)
(99.89602593 0.0623595696 4.280902757e-20)
(99.88492687 0.10992794 -3.82329237e-20)
(99.92398639 0.1141871018 -7.101692532e-21)
(99.88470323 0.1254045958 -5.235523172e-20)
(99.89350186 0.14556302 -3.537516516e-21)
(99.87801147 0.2122484495 -6.965296539e-21)
(99.86475432 0.1998391605 -3.473472535e-21)
(99.81424292 0.242094162 2.432444972e-20)
(99.83021161 0.2681523011 6.878666185e-21)
(99.81161449 0.3664576712 -6.045748228e-21)
(99.78921741 0.3532350997 4.430948985e-21)
(99.71295099 0.4269273272 -3.434793293e-20)
(99.76261912 0.4436967265 2.439647647e-21)
(99.72436031 0.473828743 -1.498770017e-20)
(99.74464076 0.5689824635 -6.267552578e-21)
(99.72636889 0.5636783256 0)
(99.67876614 0.6228474624 6.449445717e-21)
(99.7008849 0.6341001256 -6.258868061e-21)
(99.64447364 0.8893295995 3.086411513e-21)
(99.61632279 0.8888635381 1.212483115e-20)
(99.55165569 0.9803689439 6.018182735e-21)
(99.58671074 0.9881125599 1.508271338e-20)
(99.54066075 1.326762844 1.118713555e-20)
(99.49855238 1.337645014 -1.40454239e-22)
(99.41727573 1.47581965 -1.67396975e-19)
(99.47101959 1.470703523 5.866435163e-22)
(99.4673851 1.890943772 2.855655284e-19)
(99.40567474 1.928811135 -3.110992656e-20)
(99.31884325 2.133731926 -2.976886452e-19)
(99.39469181 2.094204061 6.567484967e-21)
(99.49710944 2.513751735 -1.919539813e-19)
(99.41794243 2.602517898 -4.239772962e-19)
(99.35775941 2.862791586 2.366135892e-21)
(99.44868405 2.762652276 2.996708703e-21)
(99.68563913 3.007147468 -2.79653575e-19)
(99.59595715 3.164428802 2.379935829e-21)
(99.61628393 3.433722034 4.094364304e-21)
(99.65985029 3.251074525 -1.606191428e-21)
(99.94139309 3.232043597 8.746890268e-23)
(99.89774885 3.441890658 9.656936978e-23)
(99.93896915 3.693269593 1.200092055e-23)
(99.98208362 3.458078732 3.851163313e-22)
(100.2182493 3.129610679 1.359106664e-20)
(100.2179959 3.372032401 -5.989573571e-20)
(100.2940883 3.558871904 7.901676404e-22)
(100.2871207 3.300120414 7.364826429e-20)
(100.4113106 2.749129844 -3.585159871e-21)
(100.4499971 2.991899929 -1.041343992e-21)
(100.5333261 3.112079731 -1.330292276e-19)
(100.4869697 2.861779131 -8.273221226e-22)
(100.4828973 2.225531804 -5.510975779e-21)
(100.5462021 2.439925695 -1.270890296e-20)
(100.621944 2.505307204 -4.480403275e-21)
(100.5495233 2.291280463 5.112768971e-21)
(100.5241687 1.859096507 -1.637729696e-20)
(100.455228 1.687191874 -1.107971442e-20)
(100.5837723 1.887115814 -1.109465586e-20)
(100.5106071 1.721502123 5.977366237e-21)
(100.3832208 1.162377597 -5.048063228e-20)
(100.5070545 1.414998907 -2.643031808e-20)
(100.6001229 1.415935647 -7.649194637e-20)
(100.4500182 1.184299633 -3.547874283e-20)
(100.2914489 0.8011007014 -5.884585295e-20)
(100.3925064 0.9826302728 2.315786812e-20)
(100.4547746 0.9662013253 -2.791225857e-20)
(100.3370227 0.8087901904 -2.443723205e-20)
(100.2624368 0.4566445121 1.030764215e-20)
(100.4500569 0.6299923733 -2.53567092e-20)
(100.4120902 0.7553984735 -1.932752841e-22)
(100.3077825 0.6700757359 -1.457910615e-20)
(100.1963693 0.2689053518 1.509984408e-20)
(100.3297652 0.3882107325 2.698112985e-20)
(100.1602686 0.1242871469 -1.932738404e-21)
(100.2549793 0.2090325885 -3.912167405e-21)
(100.2208127 0.06603071343 0)
(99.97710262 -0.001120845194 2.15017052e-20)
(99.98742581 -0.005630908965 -3.58335604e-21)
(99.94955133 0.007395532595 1.806414702e-20)
(99.96445178 -0.0121310879 2.510366058e-20)
(99.9002279 0.03585413763 -7.185858637e-21)
(99.91650433 -0.003029474739 -3.573709753e-21)
(99.83488892 0.1046446794 0)
(99.83690274 0.02917357602 5.466751542e-21)
(99.80320902 0.09308623655 1.668066242e-20)
(99.84024729 0.1269387629 -4.891522123e-20)
(99.79275931 0.1171406475 1.254117965e-20)
(99.79165771 0.1552371053 0)
(99.74111086 0.2569317627 3.061342018e-22)
(99.73442921 0.2220785634 -2.78585174e-20)
(99.66089981 0.2546279778 -2.78397762e-20)
(99.66570221 0.3080000204 5.653543169e-20)
(99.60005244 0.4661209867 -8.418484715e-20)
(99.58441556 0.4167054446 2.950550744e-20)
(99.47433348 0.47832854 -5.622600982e-20)
(99.51330445 0.5484065198 -2.796495203e-20)
(99.4620751 0.5571511966 -4.599399224e-20)
(99.44078846 0.7456012698 6.677796372e-21)
(99.42342967 0.7142850247 1.328996627e-20)
(99.34974829 0.7715113894 3.351051525e-20)
(99.36786841 0.8116374015 6.623978523e-21)
(99.20993868 1.20626108 -5.209135694e-20)
(99.17955228 1.167840389 -6.748249307e-21)
(99.07507023 1.264989459 -1.008954941e-19)
(99.10954764 1.314181766 1.920939687e-19)
(98.93995426 1.908294906 -6.996475229e-19)
(98.88380097 1.86913753 -6.748104116e-19)
(98.7432117 2.044364648 -4.345582771e-20)
(98.81056009 2.093677086 6.575387285e-19)
(98.74003663 2.88641707 6.338681711e-19)
(98.64284074 2.872009319 4.193776355e-20)
(98.49302916 3.148194386 -6.31612859e-19)
(98.61303991 3.16265123 6.262281864e-19)
(98.80063712 4.024738721 -4.561385421e-19)
(98.64875083 4.07119859 -5.405396639e-19)
(98.56036351 4.455155303 7.553500486e-21)
(98.71414959 4.365568044 -8.292076827e-19)
(99.32473543 4.919387606 -1.010559999e-20)
(99.12812848 5.093783709 -8.406801132e-21)
(99.21713272 5.496948491 6.070632949e-19)
(99.31696733 5.263220834 -8.249694241e-21)
(100.0143513 5.235910436 -1.340667949e-21)
(99.94016153 5.508057068 -3.076837554e-21)
(100.0831686 5.815605965 -9.750326127e-20)
(100.144007 5.495230902 1.450100767e-19)
(100.6635127 4.924145252 -6.754209907e-22)
(100.6740929 5.228547031 6.19592909e-22)
(100.8538239 5.407019209 1.99002655e-21)
(100.8146822 5.079207126 1.559124951e-21)
(101.0459734 4.219636931 -5.540514308e-19)
(101.1176078 4.510843445 -2.882549065e-19)
(101.2798398 4.588186312 -8.479907089e-19)
(101.1804515 4.291744312 1.925791445e-20)
(101.1602899 3.322158643 1.198398241e-19)
(101.2672219 3.579972874 1.57129308e-19)
(101.3915196 3.583238349 -2.561639157e-19)
(101.2643661 3.333452381 2.745890301e-19)
(101.1916882 2.646341026 0)
(101.077966 2.452267697 4.392873524e-20)
(101.2762373 2.621497099 0)
(101.1502076 2.435667586 0)
(100.8662445 1.640940705 2.833780477e-20)
(101.0763049 1.921389486 1.82856134e-20)
(101.1791829 1.82779278 -1.674061432e-20)
(100.9460439 1.587808855 3.560671409e-20)
(100.6528637 1.10605971 -3.277590908e-20)
(100.8205623 1.301188673 -1.464373044e-20)
(100.8828843 1.215378506 -1.478614629e-20)
(100.7036816 1.056082781 -7.055193746e-21)
(100.5023269 0.5565303945 -8.873889972e-21)
(100.7509139 0.7079764415 -1.935274799e-20)
(100.7648863 0.8964579558 -2.545488207e-21)
(100.6251764 0.8562008262 4.747986694e-21)
(100.3758251 0.3249382501 7.784919348e-21)
(100.5481353 0.430345962 1.187191668e-20)
(100.3048696 0.1489710451 -1.979078882e-21)
(100.4209462 0.228702043 -3.504119112e-21)
(100.3613065 0.07157078219 -5.061235228e-22)
(99.97857523 -0.01687189744 0)
(100.003354 -0.0158505502 0)
(99.93623249 -0.02335453104 3.602124164e-21)
(99.97062324 -0.04292153082 0)
(99.86004838 -0.009220736112 9.057510661e-21)
(99.90327303 -0.0541089848 -3.189135277e-21)
(99.75196278 0.05248680587 1.605035204e-20)
(99.79053878 -0.04119163649 2.011531255e-20)
(99.72065816 0.02788815689 -6.058467331e-21)
(99.74749631 0.09490065737 2.159613049e-20)
(99.69443388 0.05979997696 1.764586876e-21)
(99.67930056 0.1091387465 -8.611432109e-21)
(99.57719039 0.2333579248 0)
(99.58624602 0.1786839725 -1.804673338e-20)
(99.49332078 0.1919314243 -1.47792991e-20)
(99.47491589 0.2683215517 3.679967882e-21)
(99.33937932 0.4615589074 0)
(99.34281183 0.3843896395 3.679573893e-21)
(99.20087591 0.4159205828 -3.780419044e-21)
(99.21149552 0.5413963931 1.849019598e-20)
(99.15591317 0.5230221079 4.74538876e-21)
(99.05339649 0.7881710744 2.133468757e-19)
(99.0483313 0.7299145114 0)
(98.94797387 0.773355036 5.659379432e-20)
(98.95112554 0.8421962874 7.743610942e-20)
(98.60639212 1.383483803 0)
(98.59094642 1.297755558 -1.017651519e-19)
(98.43188347 1.395691407 -1.921131482e-19)
(98.44718676 1.500799929 -9.758041304e-20)
(98.03772122 2.39021346 -1.419630561e-20)
(97.98341888 2.281717477 -7.487990213e-19)
(97.75917055 2.476617669 2.078078582e-20)
(97.82380844 2.611288069 -7.479622332e-19)
(97.53340785 3.94806491 7.390794131e-19)
(97.39661076 3.842639452 7.1166326e-19)
(97.12541565 4.202701531 -4.166710907e-20)
(97.3048233 4.330903687 6.861807632e-19)
(97.61557251 5.930453491 8.088707741e-22)
(97.36018567 5.936427882 -1.835732757e-20)
(97.18459476 6.49114509 -6.0525427e-20)
(97.52939494 6.472551342 -1.799839575e-20)
(98.86157703 7.582191955 7.562119613e-19)
(98.47956864 7.825853183 2.265833891e-19)
(98.71807074 8.424785998 2.244921131e-19)
(98.94188991 8.080514947 4.813721023e-20)
(100.5107189 7.82773767 -7.531646115e-20)
(100.3930535 8.248050361 -1.070303435e-21)
(100.7533138 8.61372029 0)
(100.8227451 8.111121946 0)
(101.723517 6.9326114 -9.861560601e-19)
(101.7953067 7.3473035 -4.367414578e-19)
(102.1411389 7.45425117 2.214190612e-20)
(102.0110306 7.025811207 6.874952211e-21)
(102.2401151 5.630664171 7.453547625e-19)
(102.3996197 5.973564229 -4.580139651e-20)
(102.6667959 5.947275527 -9.393160496e-19)
(102.4580586 5.614558622 -4.698416326e-20)
(102.2655969 4.294462247 2.399295103e-19)
(102.4534805 4.570304888 -4.790256845e-19)
(102.6185586 4.48809745 4.466175088e-19)
(102.4040134 4.230064113 4.428962366e-19)
(102.1605259 3.254782448 -1.432198266e-20)
(101.9789345 3.043237806 -3.789682156e-21)
(102.2541045 3.150807422 2.537120126e-20)
(102.0577591 2.961461289 2.203785478e-20)
(101.5340976 1.965257375 -9.316465515e-20)
(101.8409726 2.243527194 -5.911973525e-20)
(101.9235509 2.041558161 -3.32672951e-20)
(101.6041021 1.828909497 -1.715452542e-20)
(101.1396456 1.288574005 1.149092926e-20)
(101.3803494 1.476150808 3.453714055e-20)
(101.4175605 1.320754042 -3.910633944e-21)
(101.178725 1.180200356 -3.796673962e-21)
(100.7833318 0.5804326873 2.031093274e-21)
(101.0871416 0.6744566694 0)
(101.1840866 0.9392195355 -1.395644936e-22)
(101.0254864 0.9353461866 -1.039260955e-20)
(100.5808715 0.3313790132 4.468523725e-22)
(100.7830236 0.4033318274 2.030910163e-21)
(100.4664138 0.1497876398 -2.038774854e-21)
(100.5922371 0.2087008581 -2.041117981e-21)
(100.5025875 0.06437567189 -2.060569053e-21)
(99.99901932 -0.04176465326 0)
(100.0427691 -0.03032838107 1.76204327e-21)
(99.94199041 -0.0735782403 -7.22821841e-21)
(100.0007075 -0.08695590454 -1.774415071e-21)
(99.83905108 -0.08582777841 7.426956141e-21)
(99.91497391 -0.129607824 -3.611618138e-21)
(99.68138845 -0.04069143933 9.77127712e-21)
(99.77004984 -0.1501150747 2.510862704e-21)
(99.66057436 -0.08677666153 1.484406811e-23)
(99.65763439 0.01024357919 -7.27848401e-21)
(99.61498142 -0.05221322273 -7.307965317e-21)
(99.57628764 0.004699858137 0)
(99.41375051 0.129538309 -1.477893425e-20)
(99.44694376 0.06094312383 0)
(99.3423042 0.04622125736 -7.517959629e-23)
(99.29035017 0.1373606895 -4.728074393e-23)
(99.06365696 0.340690892 7.586872835e-21)
(99.10153755 0.2394193263 1.140493052e-20)
(98.93744892 0.2349826348 1.531919197e-20)
(98.90208738 0.3932659733 -1.166875519e-20)
(98.84949187 0.3553009358 -1.71648231e-20)
(98.62720199 0.6670469949 0)
(98.64900386 0.5860198219 1.481148283e-20)
(98.52078308 0.6090721418 -2.218993937e-19)
(98.4913643 0.7037493554 5.267499821e-20)
(97.87115908 1.330765224 -3.041790388e-19)
(97.89195418 1.202098042 2.074963063e-19)
(97.6821611 1.269910524 1.868293683e-21)
(97.65362706 1.424064661 2.09014047e-19)
(96.80085747 2.554254782 -2.089398217e-19)
(96.78903268 2.34781063 2.527931446e-19)
(96.44276446 2.509766785 -1.573061544e-19)
(96.45567367 2.767957994 -2.11659329e-19)
(95.5755231 4.774856223 0)
(95.42855049 4.477255336 3.295298431e-19)
(94.9387063 4.844686398 0)
(95.13631942 5.223893791 -1.562878559e-20)
(95.26616217 8.260708402 2.292657547e-19)
(94.78383735 8.015662693 5.392728311e-21)
(94.30850494 8.805853875 -2.313826254e-19)
(94.98778332 9.095295223 -2.292121931e-19)
(97.85898682 11.66704204 -1.707513551e-21)
(97.12138433 12.00359767 -4.704937756e-20)
(97.39140735 13.1175468 4.716624203e-20)
(98.27667547 12.54533445 2.073006909e-20)
(101.9840823 11.46610955 -1.996715701e-20)
(101.7956373 12.27085873 0)
(102.6302798 12.64136386 0)
(102.6678827 11.70073609 3.51625682e-20)
(103.9485595 8.997068212 -8.849155003e-19)
(104.1884731 9.596215922 -6.735474537e-19)
(104.7779492 9.4812765 6.80305376e-19)
(104.4207903 8.903868327 2.374336409e-19)
(104.2552474 6.707502803 4.196411199e-20)
(104.5793163 7.074126313 6.227203401e-20)
(104.8962361 6.870125232 -3.390231717e-22)
(104.5224299 6.543156292 4.181833633e-20)
(103.8698454 4.877208333 -1.221249012e-18)
(104.17678 5.132559833 6.916967132e-19)
(104.3480845 4.923199894 -1.325008994e-18)
(104.0180774 4.706823404 -5.356443584e-19)
(103.4619975 3.540605244 7.133951298e-21)
(103.1885807 3.341863678 8.119708458e-21)
(103.5360021 3.346967156 2.32614612e-19)
(103.2565328 3.181053983 6.35962538e-22)
(102.3395087 2.045612589 2.70558041e-20)
(102.750949 2.280859821 -2.695486389e-22)
(102.769501 1.966857478 1.666066872e-20)
(102.3662899 1.822806705 1.23924762e-20)
(101.7032923 1.30350994 -1.63687185e-20)
(102.0157577 1.448099059 -8.376972994e-21)
(101.9947672 1.229420642 -8.378595914e-21)
(101.7024603 1.13826601 1.28691686e-20)
(101.0706723 0.5037688924 0)
(101.4164252 0.5180462531 1.371549217e-21)
(101.6069977 0.8172461357 -1.133196843e-20)
(101.4544282 0.8884803838 2.801526796e-20)
(100.7803844 0.2785574348 -5.163916531e-22)
(100.9953995 0.296430211 -1.618894944e-21)
(100.6173367 0.1228340159 -2.072960555e-21)
(100.7390928 0.1446547165 -2.358313257e-21)
(100.6184384 0.04336936036 2.628294998e-21)
(100.0475861 -0.07509749212 -1.181075914e-23)
(100.1136199 -0.04852122202 4.919709866e-23)
(99.97755342 -0.1419016724 1.839463343e-21)
(100.0637745 -0.1424852851 -5.930535499e-23)
(99.85104495 -0.1928793191 -9.653673323e-21)
(99.96318397 -0.2262220258 1.439874939e-21)
(99.64663601 -0.1850695968 -8.799810764e-21)
(99.79246889 -0.2925586002 -1.46823883e-20)
(99.64234216 -0.247648883 -1.246175065e-20)
(99.59820917 -0.1291805571 -6.893428112e-21)
(99.57539634 -0.2171951917 -2.708006861e-21)
(99.51013024 -0.1607119308 3.581103475e-23)
(99.28313882 -0.05718446692 1.108164734e-20)
(99.34683368 -0.1315917161 1.123689823e-20)
(99.23989364 -0.1792774372 5.554464093e-21)
(99.14936646 -0.08558372592 1.907226036e-20)
(98.82710181 0.098430831 -1.919962891e-20)
(98.9092554 -0.01775600449 -1.537211641e-20)
(98.73829236 -0.06710231889 -2.31930435e-20)
(98.6367595 0.1085107519 -1.567717563e-20)
(98.59874871 0.04710902852 -1.577524924e-20)
(98.22507692 0.3645874649 1.700231416e-19)
(98.28515093 0.2697831939 6.778657149e-20)
(98.1386567 0.2605172484 -2.226980682e-19)
(98.06455704 0.3682475259 -1.126213999e-19)
(97.14521081 0.9441636934 2.115843437e-19)
(97.23029098 0.7839230948 0)
(96.98676362 0.7894140274 3.295297478e-19)
(96.87283309 0.9775593236 1.099992828e-19)
(95.37588064 2.09693005 0)
(95.47907579 1.813412138 5.776569917e-20)
(95.05210072 1.85043765 -2.542090688e-19)
(94.90209232 2.199918099 2.922151992e-19)
(92.80039306 4.368385871 -1.10445489e-19)
(92.82973668 3.841785977 -1.352937717e-20)
(92.10173149 3.924311019 -1.80035289e-19)
(92.02938921 4.621265798 -1.506347118e-19)
(89.92032051 9.475214486 -1.770655586e-19)
(89.40781492 8.378013149 0)
(87.71885832 9.32440026 0)
(88.01480586 8.694407722 0)
(88.99233761 10.66810578 0)
(88.16536076 10.6193007 0)
(92.5399299 19.7130032 3.905169382e-20)
(93.75257182 19.53579182 -2.231558307e-20)
(92.74929211 21.32524868 -7.366925024e-20)
(94.29883715 20.81638318 8.612929132e-21)
(105.9223208 18.51222861 0)
(106.1595214 17.01452135 3.03390462e-19)
(107.6584509 16.78321788 -2.869831116e-19)
(106.6131364 19.35533487 0)
(108.490357 18.34156133 1.463238851e-20)
(108.0901196 19.00319389 0)
(108.6831742 11.35759054 -2.064904397e-19)
(108.0050182 10.56916042 -1.03364223e-19)
(109.3427781 10.70383367 -9.817418302e-20)
(108.5352598 10.08750362 -2.48305504e-19)
(107.1389934 6.945359048 -9.029123186e-19)
(107.7054616 7.264883191 -2.962998935e-20)
(107.9776424 6.792642565 6.868309646e-20)
(107.3822239 6.569449932 -8.878866667e-19)
(105.9180281 4.744362115 -1.103744199e-19)
(106.3610133 4.905312966 5.698489384e-21)
(106.4551149 4.551242602 1.192202385e-19)
(106.013016 4.444545011 -1.113928358e-19)
(104.9609895 3.242135683 -1.325372974e-19)
(104.6002022 3.129425028 -1.022153269e-21)
(104.9589032 2.971544068 1.399294875e-19)
(104.6073533 2.887496322 -4.301810541e-20)
(103.1983569 1.796696666 4.436066357e-21)
(103.719158 1.925947347 9.585697233e-21)
(103.6049111 1.528411581 -2.648679915e-21)
(103.1361443 1.494347417 -4.704840234e-21)
(102.2728749 1.090933013 4.681778641e-21)
(102.6379181 1.156586086 -1.957520411e-23)
(102.5348215 0.8923716484 -7.499374128e-21)
(102.2068386 0.8787756781 9.495894753e-21)
(101.3174946 0.318401701 -1.706329674e-22)
(101.6626888 0.2390030116 -3.133954141e-22)
(101.985596 0.5242904171 8.27777701e-22)
(101.8542367 0.6349797015 6.86370323e-21)
(100.9390737 0.1626083087 -3.472250879e-21)
(101.1422372 0.1099601694 -2.43787685e-22)
(100.7288622 0.06617102309 2.572540328e-21)
(100.8299997 0.03831152945 -2.375951223e-21)
(100.6808406 0.009070654075 4.566067465e-22)
(100.1321744 -0.1152671308 1.245087935e-23)
(100.2223549 -0.06942732679 -2.610845827e-21)
(100.0523359 -0.2248602825 -4.732562725e-22)
(100.1671721 -0.2063929708 1.136860206e-21)
(99.90836337 -0.3242341892 -3.742851979e-21)
(100.0569748 -0.3380147471 -2.465920434e-21)
(99.66466892 -0.3674726637 7.681365152e-21)
(99.86954793 -0.4587229676 -8.466993538e-22)
(99.68304844 -0.4442680734 7.948057212e-22)
(99.58790531 -0.3167547051 3.734264418e-21)
(99.59640854 -0.4228961074 7.771552211e-21)
(99.5027498 -0.3764055523 5.473164987e-21)
(99.2165157 -0.3165734667 -1.871877843e-21)
(99.31389403 -0.385600798 2.8792829e-21)
(99.21534726 -0.4662029089 1.904069332e-21)
(99.08500455 -0.3842439458 5.763533817e-21)
(98.67646486 -0.25665912 -1.957985011e-21)
(98.80674701 -0.3687084583 9.974604553e-24)
(98.64572064 -0.4645023098 -1.45271371e-21)
(98.47574513 -0.2948873284 3.747705126e-20)
(98.46038445 -0.3762206488 -3.987292639e-20)
(97.94172242 -0.1150129902 1.1107591e-19)
(98.04514909 -0.2072221383 5.843549071e-20)
(97.90135151 -0.2561396503 -1.116675972e-19)
(97.78228841 -0.1571112807 0)
(96.61629083 0.2068843254 0)
(96.77972591 0.05267192798 8.402939677e-20)
(96.54094821 -0.01655592902 0)
(96.33505106 0.1521732072 -6.001157004e-20)
(94.31622331 0.8335854529 7.133261744e-20)
(94.57802315 0.5607964488 6.084067686e-20)
(94.17868622 0.4373516489 1.419555076e-19)
(93.83746483 0.7310853921 -4.838626938e-20)
(90.64917542 1.799057124 -1.003363062e-19)
(91.05349756 1.297136793 1.079143613e-20)
(90.49004135 0.9689384346 0)
(89.89858496 1.472330167 0)
(83.97828129 2.889953989 0)
(84.57872525 2.262881466 0)
(84.00421679 1.641208365 0)
(83.14601079 2.252543207 0)
(120.7738571 23.0026944 -1.227551248e-19)
(119.1982549 21.87456195 -3.763162238e-19)
(121.5672971 21.28251994 -9.045312338e-21)
(119.9926175 20.52204473 -3.751936859e-19)
(115.4647271 10.19770323 0)
(114.0284549 9.72871769 -2.664929971e-19)
(115.5703065 8.81444381 3.324663679e-19)
(114.2032893 8.651654745 0)
(110.4831804 5.612269744 3.795816853e-20)
(111.2818372 5.678421566 1.87780738e-19)
(111.2666263 4.973517529 2.032851649e-21)
(110.5114312 5.023166206 3.295343992e-19)
(108.0130534 3.576887651 0)
(108.5565808 3.567091615 2.847992328e-19)
(108.4874123 3.112860685 -5.563034084e-19)
(107.9823337 3.187779235 -1.219780989e-19)
(106.3775903 2.221455663 -1.973597971e-20)
(105.9617672 2.230431703 5.294453967e-21)
(106.257094 1.898131605 -1.134358072e-19)
(105.8711688 1.941325715 2.535648809e-19)
(103.9628393 1.164137822 -5.171972371e-21)
(104.5527097 1.134210422 -2.521637024e-20)
(104.2513942 0.7147239693 8.386647193e-21)
(103.7719051 0.8276993194 1.21797888e-21)
(102.7481643 0.6376215076 -2.000593587e-21)
(103.1328909 0.5961087615 1.439779813e-20)
(102.9179082 0.3327502555 5.289066034e-21)
(102.6007374 0.4159153135 1.045473435e-20)
(101.4706673 0.03502907275 -3.422051352e-22)
(101.7814421 -0.1437070814 -1.101289102e-21)
(102.2259814 0.07404607258 -1.123005755e-21)
(102.1549294 0.2482479302 -1.333473587e-21)
(101.0203901 -0.01247348793 1.111165125e-21)
(101.1869408 -0.1406627202 1.375486087e-21)
(100.7717962 -0.01738532415 -4.43988915e-21)
(100.8345821 -0.101795343 1.693887771e-21)
(100.6644259 -0.03608670909 -2.203898534e-21)
(100.2586428 -0.1597895657 -1.486403479e-21)
(100.3730852 -0.09170590534 8.236389279e-22)
(100.1733338 -0.3170608485 -8.640479435e-22)
(100.3155466 -0.2745220975 -6.128453348e-22)
(100.020001 -0.4706892759 4.409014555e-22)
(100.2019241 -0.4572992285 -2.182060494e-22)
(99.74942745 -0.5753396113 4.955811702e-22)
(100.0085345 -0.6367421713 7.43601096e-22)
(99.7933539 -0.660621197 4.394497529e-22)
(99.64430552 -0.5371452434 1.292625297e-21)
(99.69003872 -0.6535280042 -1.167153692e-23)
(99.57052734 -0.6237471791 -1.167319697e-23)
(99.23849586 -0.6248723943 -1.898876826e-21)
(99.36749764 -0.6786722496 0)
(99.28696117 -0.788969876 -9.305466092e-22)
(99.12182608 -0.7299445406 -9.806542515e-22)
(98.64926011 -0.6850768478 3.482194332e-21)
(98.82404299 -0.7762159678 1.989523246e-21)
(98.68801446 -0.9123427622 -4.806134768e-21)
(98.45687351 -0.7716645863 -3.626416637e-20)
(98.46861423 -0.8634503848 -4.524276288e-20)
(97.85267388 -0.7099693749 -1.11628962e-19)
(97.9886525 -0.7817068746 -5.793503265e-20)
(97.86311465 -0.8665591144 5.592069479e-20)
(97.7134942 -0.7941638776 1.521039808e-22)
(96.4402493 -0.7269819472 1.158185931e-19)
(96.65935441 -0.8389917099 1.695695282e-19)
(96.45231661 -0.9665059576 0)
(96.1916087 -0.8550920788 1.206270792e-19)
(94.06107844 -0.7700724848 -8.797397171e-21)
(94.41181286 -0.9406254751 1.573877089e-20)
(94.10846501 -1.150653414 -8.74872624e-21)
(93.69991914 -1.000282222 -4.84715228e-20)
(90.77890588 -1.207842408 -1.085467688e-21)
(91.29681369 -1.401106452 -4.654046879e-20)
(91.01593458 -1.769726458 1.003830966e-19)
(90.45273038 -1.652539536 -1.078525128e-21)
(87.3163874 -3.16801262 -1.097897684e-19)
(87.73642575 -3.098135304 -3.267166323e-19)
(87.75406703 -3.408254686 -1.093702033e-19)
(87.40034619 -3.558294986 -2.244842309e-19)
(134.6516243 8.757315957 -7.964496462e-20)
(132.9776684 9.488239234 -2.928867047e-19)
(133.5757565 7.352583615 -2.931219458e-19)
(132.177354 8.131672869 -3.465983234e-20)
(120.6566134 3.991588341 4.107836492e-19)
(119.0864269 4.492531881 2.654826346e-20)
(119.7195549 2.722860493 -1.777997657e-19)
(118.4588792 3.349969396 2.900947664e-19)
(113.0466612 2.386439374 -3.975528255e-20)
(113.8385896 2.05070129 -6.223786298e-20)
(113.3953284 1.370193523 -8.287118818e-20)
(112.7202364 1.758784824 -8.055803222e-20)
(109.5404976 1.35951955 -2.728643289e-19)
(110.0508386 1.119687603 -4.425263458e-19)
(109.7499027 0.6889004338 -2.928431834e-19)