/*--------------------------------*- C++ -*----------------------------------*\
| =========                 |                                                 |
| \\      /  F ield         | OpenFOAM: The Open Source CFD Toolbox           |
|  \\    /   O peration     | Version:  v1912                                 |
|   \\  /    A nd           | Website:  www.openfoam.com                      |
|    \\/     M anipulation  |                                                 |
\*---------------------------------------------------------------------------*/
FoamFile
{
    version     2.0;
    format      ascii;
    class       volScalarField;
    location    "2.47";
    object      k;
}
// * * * * * * * * * * * * * * * * * * * * * * * * * * * * * * * * * * * * * //

dimensions      [0 2 -2 0 0 0 0];


internalField   nonuniform List<scalar> 
12556
(
36.90870345
36.90875719
36.90883764
36.90897096
36.95440547
36.95494989
36.95593535
36.9582287
36.96278968
36.97073122
36.98218221
36.99460645
37.00352414
37.00366173
36.9955276
36.98398683
36.97293096
36.96449452
36.95957604
36.95662815
36.91050047
36.90929849
36.90873754
36.90842268
36.72744746
36.72764412
36.72787302
36.72835947
36.77408088
36.77697402
36.7830486
36.81447834
36.83610203
36.87367068
36.92884754
36.99270517
37.02304194
37.0257029
37.00170037
36.94879686
36.8934019
36.85147308
36.80350122
36.78672394
36.73344385
36.73001622
36.72830381
36.72743335
36.54739786
36.54791137
36.54860397
36.54991373
36.59676048
36.60430799
36.61926201
36.6656268
36.71919579
36.80946939
36.92955848
37.03301663
37.08417463
37.08873661
37.04730636
36.96090515
36.84815295
36.75225735
36.66506788
36.6274575
36.56357363
36.5551005
36.5511816
36.54960232
36.36867447
36.36923206
36.37041125
36.37353585
36.42277087
36.43885432
36.47222892
36.54748042
36.66074188
36.83188197
37.01467471
37.16657694
37.24735361
37.24252353
37.16804721
37.03649809
36.87350624
36.71268855
36.56031427
36.48745466
36.40079931
36.38565121
36.37808227
36.37511749
36.19193093
36.19283025
36.19520536
36.2013761
36.25529006
36.28479348
36.34926801
36.4721246
36.67871916
36.935845
37.21895329
37.46734359
37.60670386
37.5842511
37.43595413
37.21220973
36.96903033
36.7383098
36.50700803
36.3735573
36.25124625
36.22172358
36.20817446
36.20289698
36.01678453
36.01810434
36.02220622
36.03326765
36.09598478
36.14675679
36.25986682
36.45673428
36.75188917
37.13508942
37.60582206
38.1126652
38.44084214
38.34038307
37.96061328
37.54906253
37.16073881
36.82334118
36.51104956
36.29146466
36.11442762
36.06276738
36.04034449
36.03151408
35.84440517
35.84682473
35.8541723
35.87212114
35.94690781
36.02677357
36.20774178
36.48139279
36.88475908
37.45003657
38.27019079
39.58178512
40.34855631
40.16893096
38.92322057
38.10329239
37.46756698
36.97256006
36.5449337
36.24580829
35.9900539
35.90915667
35.8739944
35.86020725
35.67564986
35.67941969
35.69079372
35.71930836
35.81025867
35.9282035
36.19003256
36.53348497
37.06289767
37.85344583
39.19965531
42.14018465
43.10450792
40.48298284
38.89353674
37.88846458
37.18221851
36.61175124
36.22715368
35.88053319
35.76187365
35.70992661
35.6897686
35.51317681
35.51934606
35.53710248
35.58015408
35.68596869
35.85253031
36.19582763
36.61043581
37.26871639
38.27600702
40.07694759
44.46201486
47.95883467
42.39975895
39.84215048
38.38844624
37.43448501
36.70068651
36.23020027
35.78530177
35.62331236
35.551046
35.5232358
35.35832751
35.36705522
35.39161562
35.45054923
35.57735593
35.7979926
36.21893466
36.70382963
37.47912238
38.65830378
40.73203417
45.572116
51.31325327
44.14627968
40.79236104
38.90290161
37.69883936
36.80139071
36.24195321
35.70536769
35.49691426
35.40183791
35.36519955
35.21393913
35.22645111
35.26035707
35.33948268
35.48516563
35.76219063
36.25591321
36.80789549
37.68573566
38.99986334
41.26749086
45.9381187
52.9601602
45.44957378
41.60171888
39.36663324
37.94909964
36.90085262
36.25779738
35.63941338
35.38542087
35.26670286
35.22046519
35.07987389
35.0958165
35.1382872
35.23698776
35.4075839
35.74089884
36.29894973
36.9177178
37.88584763
39.31667455
41.76958594
45.62787525
53.66275512
46.30653052
42.21010321
39.73809928
38.16049775
36.98869623
36.27443262
35.58786799
35.28940715
35.14800509
35.09195427
34.95745733
34.97798701
35.0326877
35.1541972
35.3416819
35.7298014
36.34377546
37.02925591
38.07698355
39.61855
42.30494465
45.07581144
45.01841579
53.47162464
46.79795277
42.60806929
39.99434523
38.31882353
37.05723793
36.28719681
35.5436593
35.20799063
35.04522397
34.98005448
34.84450534
34.86938832
34.93532125
35.07635538
35.29754812
35.74282373
36.42630386
37.16226297
38.29001861
39.96167245
42.90512164
43.57088638
55.23088873
53.43671896
46.99575699
42.79372327
40.14180412
38.42292787
37.1051734
36.29274824
35.50030712
35.13673089
34.95521944
34.88203062
34.73998428
34.76915024
34.84575345
35.00568576
35.25090616
35.74168202
36.47727887
37.28160192
38.48964916
40.26894971
43.29589809
39.62398782
55.47068717
52.7986068
46.83480142
42.78772886
40.18364192
38.47608939
37.12683091
36.28648401
35.45551532
35.07055034
34.87350181
34.79376674
34.6404126
34.67373571
34.76019159
34.93837845
35.20704067
35.73562661
36.51741756
37.40666336
38.72530194
40.64208702
43.53187668
34.31836169
53.5608652
51.5413894
46.32336943
42.61119985
40.13982331
38.47623049
37.12011942
36.25880211
35.40164104
35.0022423
34.79458414
34.70968884
34.5446203
34.58180444
34.67686292
34.87159866
35.16175952
35.72106409
36.53985047
37.5017243
38.97680717
41.06358256
43.26004581
26.78929646
52.17225098
50.01619055
45.52390246
42.29365318
40.05353844
38.43845022
37.08310797
36.2085502
35.33807724
34.93058476
34.71449625
34.6255463
34.44860691
34.48935543
34.59205511
34.80203554
35.11185927
35.6950548
36.54057524
37.54293175
39.14315603
41.34726312
42.15651298
25.43641068
50.8804069
48.51887306
44.71325438
41.93715329
39.89825907
38.345146
37.00240005
36.13061612
35.25814512
34.84769414
34.62864104
34.53690873
34.35289541
34.39680776
34.50594195
34.72892492
35.05530808
35.65653713
36.52343098
37.55112964
39.18024999
41.33693785
39.99184843
27.76026157
49.57490154
47.33647951
44.09894746
41.60704978
39.68981512
38.20275054
36.89051403
36.03067374
35.16458856
34.75540111
34.53550324
34.44254153
34.25344366
34.30021041
34.41515945
34.65006342
34.99121595
35.60593854
36.48706945
37.53389
39.16850175
41.1100599
38.11568185
29.63183486
48.35496451
46.50982872
43.59158091
41.26980001
39.45568484
38.03009459
36.75572536
35.91233547
35.05754628
34.65218931
34.43304653
34.33959514
34.1532607
34.20249814
34.32233059
34.56686894
34.91945587
35.54431616
36.43548933
37.49567339
39.11912292
40.76768286
36.20150597
30.92275383
47.23927391
45.76229504
43.11931411
40.9385525
39.2110959
37.83995741
36.60430427
35.77939709
34.93993454
34.54070712
34.32351121
34.23015123
34.0474539
34.09896559
34.22356792
34.47742558
34.8406208
35.47319092
36.37162783
37.44111183
39.03636899
40.34647971
34.24507246
31.96895786
46.2195251
45.07620646
42.67876636
40.6193031
38.9644843
37.64068226
36.44125314
35.63542187
34.81209402
34.41949024
34.20466618
34.11175064
33.94206783
33.99555683
34.12422182
34.3852008
34.75553594
35.39419673
36.29813354
37.37354333
38.92314694
39.87172932
32.33054702
32.6715645
45.28306588
44.44213809
42.26502447
40.31393742
38.72059882
37.43755308
36.27069431
35.4834474
34.67819657
34.29337575
34.08135494
33.98912615
33.82977925
33.88521421
34.01826653
34.28710901
34.66535406
35.30897047
36.21737548
37.29539743
38.78031342
39.35313245
30.4188511
33.02673191
44.41768117
43.85217057
41.87410808
40.02197779
38.48191975
37.23387274
36.09579562
35.32602208
34.53698353
34.15900606
33.94955423
33.85808267
33.72068803
33.77783485
33.91457938
34.18884612
34.57098393
35.21897597
36.13127204
37.20810695
38.60805604
38.80434417
28.50840326
33.10320134
43.6131596
43.29994007
41.5031207
39.74219774
38.24954439
37.03172191
35.91885048
35.16508426
34.39401414
34.02389884
33.81721175
33.72655973
33.60280746
33.6617864
33.8028891
34.08446498
34.47350197
35.12543201
36.04118725
37.11195401
38.40819523
38.23433945
26.69603278
32.9971956
42.86086005
42.78037026
41.14975644
39.47335633
38.0237362
36.83230008
35.74143162
35.00218555
34.24491628
33.88064752
33.67616468
33.58625875
33.49247762
33.55305421
33.69765068
33.98332334
34.37349601
35.02932997
35.94794855
37.00655352
38.1851672
37.64801757
24.99378496
32.75980087
42.15456962
42.28946827
40.81211045
39.21441037
37.80438904
36.63627061
35.56462769
34.8383746
34.09837279
33.74162699
33.53959585
33.4504287
33.36972541
33.43215698
33.58122031
33.87423993
34.27193221
34.93144338
35.85194091
36.891524
37.94180656
37.04968049
23.42849754
32.44646119
41.49034192
41.82377963
40.48845407
38.96441621
37.59120089
36.44393408
35.38914093
34.67457956
33.94447603
33.59206198
33.3917414
33.30318394
33.26104748
33.32503003
33.47741447
33.7732752
34.16898636
34.83234684
35.75324581
36.76690715
37.68166356
36.44653412
22.05717428
32.08935412
40.86302809
41.38037767
40.17731644
38.72258181
37.38384067
36.25541714
35.21544625
34.51123617
33.79872521
33.45363
33.25541652
33.16744467
33.13323728
33.19917857
33.35616698
33.65980383
34.06563378
34.73245013
35.65174724
36.63306339
37.4094655
35.84298887
20.86118398
31.71338681
40.26818298
40.956952
39.87753278
38.48824234
37.18196454
36.07072072
35.04385033
34.34901384
33.64071304
33.29820665
33.10127863
33.01376234
33.02960844
33.09705471
33.25717143
33.56240294
33.96155147
34.63201658
35.5472851
36.49045701
37.12844688
35.24095253
19.80630884
31.33726677
39.70407266
40.55208081
39.58830918
38.26086984
36.98525121
35.88979717
34.87456836
34.18791766
33.50027238
33.16511418
32.96993787
32.88284783
32.89517498
32.9647437
33.12959034
33.44313572
33.85801423
34.5312517
35.43976963
36.33966374
36.83870945
34.64193424
18.88989038
30.9729069
39.1705164
40.1650398
39.30906937
38.04002032
36.7934022
35.7125492
34.70775587
34.02868765
33.33594509
33.00175641
32.80762824
32.72086475
32.80096361
32.87194102
33.03970286
33.35397973
33.75407813
34.43032376
35.32916341
36.18125187
36.54082622
34.04435253
18.12227303
30.62695881
38.66715243
39.79494198
39.03918765
37.82523973
36.60610744
35.53882154
34.5436012
33.8709272
33.20745859
32.88029187
32.68744766
32.60096905
32.65659579
32.72991109
32.90254475
33.22483528
33.65197681
34.32963727
35.2156903
36.01591885
36.23585413
33.44667553
17.46966854
30.30167505
38.19214936
39.44049336
38.77801734
37.6161283
36.42312691
35.36857156
34.38258675
33.71614177
33.02980243
32.70351599
32.51175722
32.42551322
32.57696031
32.65155276
32.82679168
33.15103444
33.55026257
34.22995112
35.10040938
35.84438546
35.92515035
32.85223531
16.92334698
29.99675058
37.74377249
39.10077501
38.52494081
37.41232254
36.24424322
35.20166223
34.22614219
33.56441183
32.92526424
32.60260678
32.41150295
32.32538991
32.39379711
32.4714336
32.65277707
32.98576531
33.45418754
34.13325349
34.98688284
35.66809103
35.6124549
32.26784455
16.4776536
29.71143204
37.32386681
38.7774716
38.2805605
37.21403318
36.0695765
35.03816124
34.0788014
33.42179303
32.69642877
32.3757132
32.18579154
32.09986439
44.27417382
48.51981549
43.50258351
45.46768308
52.22959136
48.98252403
45.94377388
53.9407401
52.53619609
45.68590401
54.62303845
54.05461174
45.11426278
40.98990854
44.04717396
54.9147853
54.66359722
44.09293438
50.74011262
41.29928567
54.78148343
55.37352304
54.93733308
41.74239513
40.31153793
42.9947865
40.07287737
52.62019104
45.27411963
47.42030165
42.85127795
41.07631312
40.58435773
44.43464785
43.47658716
56.30173986
58.5947609
51.00527588
45.0208091
43.43439811
41.14180001
45.14986994
44.54776722
45.82215337
47.92767124
48.91705691
54.87699806
54.37695783
52.82695636
46.59598628
45.4732311
41.65804551
45.30873363
45.19778708
45.8644848
44.16681477
46.23172341
56.4601235
55.52041899
42.18310024
45.17136594
45.30681843
45.40031895
39.200076
41.73773081
40.00195194
57.38442893
57.14384095
42.79256008
44.65995926
45.13497386
44.74911906
32.71980974
35.75342349
42.46122622
52.99645941
51.14547914
48.87957557
50.91447781
44.360347
48.42471015
58.51447789
52.96680429
46.35108614
51.87838836
57.13570653
49.0363957
49.72745492
45.06879067
50.46832803
49.13342267
51.06725104
50.61601742
54.47605404
56.06439277
50.8042765
57.25026412
56.16146608
57.33819955
57.36983203
50.5533073
46.42900511
47.75855129
45.8798396
47.39603448
45.49264981
49.04703811
47.51351841
55.34518426
54.96863669
53.4732911
56.68134426
56.93088598
56.10274251
56.63714658
53.28383335
41.87810198
44.03831331
45.8270396
43.03214064
40.40014995
45.36479198
43.17737387
57.09552167
56.56229712
35.91780946
39.01493277
45.36875888
41.83328278
36.96330453
33.50509202
40.24964011
37.1867115
43.20467675
57.61683362
57.41524527
39.75951154
40.01667744
32.65647669
44.69929299
47.26626759
31.95090665
80.30582317
33.40780505
31.97032072
46.53794597
39.88090414
43.29766906
41.42878965
43.24289667
47.30928539
43.90112845
65.05989765
48.607053
44.94888013
49.79764588
49.56740581
51.83994958
53.62151424
47.59790162
46.89372552
61.42160358
48.51440231
46.86340694
50.70234758
57.91600375
57.70798381
49.39115493
47.65997162
43.54625982
57.13676266
46.68748925
54.94718938
44.86255351
50.84588143
45.70272159
46.39469395
42.5965852
54.41885813
57.20102034
57.31221051
56.96227902
57.18135577
54.34930983
39.3687044
53.58747225
43.14355972
42.0929176
41.59993299
43.83688682
44.64034899
42.06269183
42.08801773
70.23808124
49.43131508
64.7875181
47.50619547
60.8980204
48.53365898
58.03725462
58.19464977
54.54014985
54.50836028
41.18126747
47.8190106
56.09973891
41.74515382
41.75167368
49.92025033
42.06473
55.97539607
40.58275115
44.93227086
44.56433569
51.70917994
49.44575299
54.23235525
34.72259003
42.62287358
42.0923535
43.29418794
42.81286867
34.86403972
61.78076821
57.64044317
49.9123023
58.03834547
59.07966533
53.31613605
57.67665695
50.18834981
46.23781154
52.43105852
46.00776166
58.22011568
53.2679179
46.87558381
55.73557221
61.60969587
56.60674341
56.20972385
49.84147724
45.59446736
49.75698016
51.07308796
49.22331971
52.7228973
46.0160877
48.76618651
50.98191755
55.39218298
55.53226601
56.73949198
55.04428844
54.43890056
55.63182182
55.20951252
56.65287603
58.00299402
53.05718395
51.98042912
54.20474848
53.37295901
57.98707246
46.53139954
46.40861177
48.38344657
48.28680164
55.54373549
50.7166685
55.46978386
41.9923201
41.81202284
44.3363648
44.18802022
42.05823342
45.53768382
56.83075266
42.02981603
41.03793354
37.81780237
43.89864547
43.45203542
44.43619654
44.03832975
37.97905289
39.35412757
36.01968066
35.86651308
39.19106935
39.04090187
62.97325
39.73207321
53.97958455
52.36111651
41.88759965
41.38300111
32.15161898
32.78490246
41.28973394
43.37670112
32.93343447
77.94842906
44.30327174
68.5549381
32.85511137
44.00464115
49.73848437
41.11784926
64.68508102
40.1482268
41.07621646
43.21100492
44.12690104
44.55181049
43.00852505
35.31002594
41.59820313
55.968088
54.69461823
55.27988845
56.18498549
41.81143024
46.96304255
55.48525354
54.42210799
40.12246096
58.042751
57.9743883
51.30847449
43.74787844
43.37872379
46.19019266
47.52094451
43.62290523
43.87458689
57.12261062
60.44046842
59.01220607
58.59103765
54.65066115
44.7275287
44.83304414
48.84625251
48.31865962
54.22587043
45.08855238
46.53667407
46.27432875
46.85916091
46.62035547
45.23913803
45.38598673
45.0480845
40.72985114
33.19691208
38.9314356
38.47824061
73.07567514
54.45702992
51.50682663
57.9443616
62.05839139
60.80621749
54.5300207
49.75834791
48.21184158
51.57601608
50.24280856
54.91401208
54.82609744
49.81378761
49.17839866
55.67094722
47.0275453
47.13314396
46.93300842
41.60525078
42.14745489
45.89282871
44.97519526
45.13765889
55.17060466
56.79826479
56.35057911
56.27660506
56.08413688
56.01491705
55.74173094
56.24292717
56.08122547
56.09491275
42.9724899
45.80117967
45.49314688
46.18330504
45.89974235
43.1175014
42.59707472
36.8334368
37.19829684
33.77156431
34.05943293
40.91446327
44.93598655
40.73188748
41.45575863
37.34323415
37.75371164
43.61080363
56.90098606
46.1877235
50.62370255
67.34941645
39.95346117
36.5120241
34.57022752
39.80041581
33.44616875
33.69697491
32.90836996
38.22442322
55.14510528
38.24580442
39.97518232
39.10550666
38.33083559
37.89794383
32.49798625
40.89060089
40.8530072
49.33465479
31.88028896
93.97397101
43.2754367
41.26682051
45.36706163
33.21917502
32.09830065
58.13472821
57.45047029
56.91913686
51.76237082
51.55300245
39.8876657
40.02113063
61.79312523
54.97119974
54.85766141
49.95384166
61.22223271
50.04577108
61.70773094
50.98803516
46.32987927
41.67149223
44.16632633
51.1783259
57.34310675
52.24104853
43.12445839
39.62327505
54.91721199
67.57849448
43.31306863
51.56403222
74.44780326
40.01855864
42.00054928
39.51872464
39.79943264
66.35015621
70.58629696
57.27414572
53.27642946
61.39042592
58.14546434
52.5046765
49.19664851
55.16803924
56.51536322
55.7819793
57.44139351
58.51201499
58.58609799
57.08063458
45.96576677
44.99711804
54.58899204
48.49459273
48.27129462
45.42509378
47.99740236
48.14356927
54.27513466
48.08285163
46.36485756
42.17064838
42.91024603
41.32599548
50.54386924
49.5025738
44.71618834
47.31690753
45.79626172
49.0930345
47.85606437
43.7054098
44.22508992
40.63809995
39.96828259
39.56959193
39.06702733
33.67235526
35.24645956
40.12855275
39.71111558
60.25542252
59.64105398
59.21350729
53.27305935
53.90805916
52.15394749
53.0222181
59.53565938
55.98210046
54.25072017
54.0855369
54.0624785
54.25828395
56.28774913
56.47170286
50.80021904
51.8595706
59.82772942
60.32174224
61.95467727
61.278758
57.64315776
63.08899945
64.13829079
64.00746281
63.18390718
62.39684794
64.47660839
62.99709787
54.84653476
60.96845681
62.05886671
44.08102802
49.95418758
49.00914612
50.84154404
50.20944239
44.71661648
47.70124013
47.05358638
48.68045078
47.92424526
50.62222063
53.26054539
52.68278166
53.94946437
53.44458659
51.1221364
47.11681522
51.67639501
51.05471434
52.48468978
51.88077626
47.51679491
50.78420426
49.94217281
54.96238568
55.68438434
52.40119329
51.18192614
41.06176104
40.53426982
41.97681648
41.24667713
39.69287512
39.17658737
40.36711632
39.84702452
46.0207575
45.41241581
46.8447835
46.22926407
44.20021091
42.45570689
45.19113358
44.58173428
43.74897727
43.41364952
45.37162657
44.10749864
50.74676085
43.7792355
44.91184614
43.31800118
43.47277371
36.34669674
36.68895779
42.45063906
34.30089227
34.06875481
34.63854486
34.39788553
33.93826054
41.13476753
34.20403788
35.96951146
38.65974717
40.45339236
44.79130375
38.24565062
35.69681801
39.07259661
38.27839539
35.04637259
34.74782726
35.51479912
35.16101802
43.75454921
37.90061152
38.3935067
57.29533315
41.18804513
56.08145753
50.31710623
55.70378943
41.04278727
70.27362825
39.68287872
67.32721648
58.6931605
36.38110739
35.22704249
33.14125592
33.37642473
39.65086528
38.48865942
32.90994874
33.08837458
62.61036689
32.43371136
37.6939727
36.9629054
78.42010526
84.72665606
31.82017599
88.85940774
70.6473893
41.76762656
33.14874138
77.36781329
49.48068018
87.40986606
52.45511413
32.23475492
42.63378884
40.52677791
39.17232356
60.37564716
59.86774273
54.0959219
48.16908392
47.77607289
60.45423314
39.9137206
42.01760324
39.99112776
57.32349054
57.38369067
54.79713863
46.16126736
45.38764794
49.23332758
55.40584968
46.00466973
46.18652968
41.49922792
41.85728807
44.38979113
51.15464863
55.20393413
58.15868985
48.38838902
47.47692004
47.38461612
47.52249601
47.49815277
48.52840079
42.58941864
41.08363339
42.27262578
51.35560358
53.1473553
57.28973088
40.65944455
40.25994089
35.37002672
59.00407928
60.74613348
54.42924197
47.34330861
47.19191099
47.21728308
47.02734352
43.78375617
44.46360095
44.79551657
45.81506126
47.86492888
36.81055892
41.20907884
40.79085683
50.96769458
48.06131939
40.96936278
32.42643248
32.4722117
33.66769837
45.67980027
63.99416452
56.61409973
39.44782261
45.34617668
43.11252216
31.9230728
33.34143468
32.36436802
32.39819607
31.99938422
65.71920411
51.48595811
43.76483741
45.81767943
60.3929132
40.18991086
40.194797
48.90508767
56.33538937
47.67433241
46.00992035
48.2226988
44.74960893
41.03993115
40.28376182
71.17837315
74.28660791
75.8146732
63.54365861
72.77674063
43.2557094
43.5823449
46.75762229
66.88818669
61.73965367
58.99890241
70.05841965
66.95096458
41.37915754
45.35740898
44.07778725
53.24990508
52.58270861
44.92554456
51.79034798
50.89808155
41.32891472
50.35406618
42.42042365
42.74493673
49.01373259
41.07624145
42.03651551
61.44458806
62.25456264
58.34697745
58.452782
57.19816375
57.0370955
53.93921573
55.07112838
54.65471909
56.84781387
56.61201407
57.20193238
49.17465059
50.45050509
55.90281562
57.3745563
63.44914986
59.45473141
63.52559161
63.89773325
60.90495552
42.27891347
44.6824199
44.11815568
48.65610111
48.40082197
45.33732119
41.83316574
41.57077227
43.64337576
43.26334964
49.68313913
52.08475155
51.72708079
54.26863894
53.89917156
52.16740367
46.3369267
49.3174188
49.01610186
51.36723017
51.01616102
48.33961891
43.04484017
43.59426995
46.90795648
46.01905104
42.32140922
42.86560436
46.82031246
47.36008079
48.67736093
40.06003516
39.89938211
41.34373318
41.13735607
37.5223165
39.66211519
39.52921473
47.97031758
46.06662702
46.63321104
50.02532077
49.62738932
43.26852069
43.78165865
50.40585463
49.49600335
49.87898214
55.2438249
45.27329629
46.54023995
41.73134023
41.34305813
37.16623819
38.41038488
42.19791043
41.84759721
33.85497379
33.92417481
36.1338128
35.7357576
33.66691528
33.76237474
63.12924756
32.19620843
33.45551269
32.62508925
110.0302428
32.15084838
41.58213536
65.43592805
57.90899685
32.06773536
32.105434
33.00384885
75.99907593
82.22850973
79.40770149
62.05520785
32.75288259
31.99239309
32.02710208
43.78439574
39.81813229
39.5587018
60.21604089
59.26120245
47.6798656
45.88239622
40.63255903
57.65704067
58.82319605
61.88273651
43.16153172
58.289877
52.1742661
58.6416636
57.31924875
44.81569498
45.0121179
45.80365462
50.95241699
54.25511319
54.67500482
53.60086
53.9152745
60.01753181
59.30189519
59.63505158
58.59241587
58.9330788
59.48997344
48.68306623
47.37553833
47.68418741
46.93234792
47.14245401
48.68473905
61.52665428
60.46187721
60.49745499
59.97351823
60.25702416
61.15987847
49.42268742
48.59789379
48.93840736
47.96587812
48.29067227
49.238509
52.87377625
52.99566024
52.09906888
52.26982819
36.93324564
39.39638414
39.25888893
33.86367237
35.87706002
35.76006595
36.24055997
36.01570662
33.95309545
64.29166714
65.89749142
57.66088722
65.42961946
32.87617264
32.82173057
33.01217943
32.95330553
32.46418924
33.98952249
32.53156868
32.67612526
33.53705239
35.46891454
35.3630351
35.66301052
35.56298269
33.6107982
33.15320055
33.07165264
34.13223457
33.31942318
32.93105047
65.47520792
63.01720028
49.0598309
65.81279257
34.94515815
33.92063154
38.94500714
32.55699125
34.43459824
34.29304742
31.8871936
92.79182832
93.75824928
63.21446702
85.71621539
76.05648651
32.26358942
32.32261013
33.28649945
32.04459122
62.63187884
68.61579829
62.94063989
65.50626031
60.82043672
51.98502874
67.19773627
61.75635475
52.32893267
51.82457613
61.87205205
48.25148017
53.29811731
55.93341905
52.89745186
58.05216698
52.27675037
55.65359104
63.03181421
64.56539989
56.66863315
61.7651739
65.81123218
57.01062101
58.56819589
56.07674385
60.81078203
70.58565939
70.37778222
68.72274962
45.30644841
61.63691982
55.02356013
69.11979522
70.83153193
48.42921793
52.32443968
57.24821921
73.0091419
60.27299235
46.19375506
48.536593
65.97497121
62.21407829
66.40215745
60.16059285
63.14346326
65.96445545
67.52194355
66.83005226
55.92466535
56.33839364
56.68695009
55.44634611
55.68240069
55.58449288
58.03733327
57.86755113
58.21037147
57.12384999
57.46040425
57.57375591
45.63547031
47.5638517
47.54727822
48.32227306
48.35026391
46.46613709
48.9783359
48.68022672
48.03205777
48.47170805
48.92359439
47.31522138
46.99600501
46.90782258
47.45415962
47.25503902
46.74514672
52.98145712
48.5606514
41.63542563
54.65841425
54.57848222
54.21734212
43.78528658
52.93131161
52.37853085
41.9982306
42.14890916
47.01222889
60.90449009
58.93557531
55.92193037
55.50850803
54.5386602
56.86034215
56.41212785
56.12782954
64.71003731
64.40813518
58.8315019
65.14038655
67.32772164
60.77058691
64.46885745
64.67512024
61.75896633
60.44132261
60.37333358
60.42581465
60.45242287
61.51487507
63.51537664
63.76330576
63.07206368
66.45278957
66.33813239
66.37417479
66.47832737
62.92636837
64.69862857
65.76650123
67.70748786
64.77667415
47.16777116
46.99552489
44.04489896
44.88467644
47.99189021
47.81203882
42.36634183
42.0882953
42.94543645
42.64545239
52.80443763
52.4413848
50.13375366
51.63932406
53.53469808
53.16925798
49.98843895
49.66735476
46.75975169
47.9040164
50.66416739
50.32907596
50.62458331
49.95969778
50.32348297
49.26070224
49.61825085
50.19038237
51.87543415
51.29795044
51.58116377
50.67510017
51.0122197
51.58536765
40.88002801
37.7652631
37.93277922
37.4630315
37.6177006
40.70820525
41.67365676
38.48575295
38.73336971
38.0980891
38.28421135
41.44699174
39.50810251
36.57950014
36.73906914
36.31661406
36.47333936
39.37325273
40.19211079
37.16364712
37.31990384
36.86230763
37.02595247
40.02813024
40.47549676
40.2917972
45.81962751
43.58482873
43.78852185
43.16520245
43.35091866
45.60751466
40.90475393
40.70406341
38.80144744
38.70965807
43.90923105
41.72485449
41.79740334
39.09858405
39.60278228
43.14978449
45.00830098
42.76050488
42.91395469
42.34950936
42.45921022
44.75583751
39.27081329
39.17103608
49.31723695
49.18292873
50.3121608
44.66022811
46.55219591
44.11218424
49.04331766
49.38447373
48.78741114
48.94972736
44.51356543
43.26043684
46.43580817
44.84067424
48.69915495
48.82032991
43.27728469
36.41525274
38.77730674
38.64300256
39.09682159
38.97012689
36.60747195
34.24047315
34.1243959
34.56171931
34.4579717
33.8765627
33.69650005
34.45847807
37.34041787
36.65308215
38.3299137
38.04851661
35.77459719
36.43822408
34.80281606
35.59518349
35.98605831
38.8321269
36.05633991
36.23079032
35.75208345
35.97984081
38.75332435
34.94946168
34.83660509
35.38749614
35.265583
55.04931623
43.32928309
44.43109417
41.42857699
42.29062807
55.86113231
54.51673433
53.84981971
45.90057679
49.52939926
56.24330951
65.94398682
48.88526938
51.98396447
43.60096611
46.21160219
67.376594
32.65820658
32.60081363
32.76327407
32.72016351
33.19592606
33.5122692
35.48446136
32.39360541
32.36084922
32.53492779
32.47403826
33.22577961
35.06646621
34.94536719
35.26807879
35.1557872
33.28752957
32.97458188
34.6434988
34.41244097
34.86645986
34.72295375
33.01698901
61.61373239
34.17306353
33.90959561
32.28712744
76.8510948
99.51483035
104.0227827
99.62932037
100.0087876
81.34649727
31.97715708
80.69924957
60.7060945
64.87892044
33.07245297
32.1418666
32.20538194
77.08907229
84.84440905
83.02543026
69.67822485
75.66156227
89.56566459
85.48849527
57.11612777
81.40098394
72.07399932
32.15521218
31.95731202
32.50090423
36.70055794
36.73106581
36.82910456
36.74402511
36.79733487
36.86204668
36.81807096
36.89683236
36.91293304
36.92207751
36.9959659
36.97477543
37.0155765
37.05693215
37.01783909
37.06231544
37.0693407
37.0271059
37.06706786
37.04384286
37.01249236
37.03098795
36.97481022
36.96510451
36.95289545
36.87581584
36.90682131
36.85213304
36.78852292
36.86095238
36.57348706
36.638907
36.70302249
36.66802334
36.77921254
36.78385303
36.81932489
36.9439505
36.90071246
36.98414207
37.09276997
37.01124589
37.12181872
37.18267883
37.07775931
37.19323754
37.19773874
37.09142576
37.19143102
37.14846813
37.06193535
37.12711533
37.04299402
36.98549487
37.00985357
36.89984066
36.8767025
36.86177066
36.74969587
36.77157037
36.48666776
36.61797462
36.62589139
36.66939865
36.83977795
36.78701963
36.9011182
37.09121131
36.97003289
37.15366225
37.32452022
37.13442039
37.37063605
37.47152436
37.23479976
37.49248469
37.49523559
37.24849704
37.47395371
37.38662193
37.19323518
37.34881707
37.20928012
37.07326193
37.15638567
36.99172807
36.9158372
36.9369243
36.77830961
36.75149139
36.45559219
36.65268155
36.62122256
36.72725828
36.9805325
36.86762169
37.07455045
37.38139746
37.14835028
37.48779342
37.81109289
37.41194112
37.90495728
38.12890882
37.58051729
38.16010978
38.15599813
37.59321566
38.07731869
37.87497279
37.48377911
37.7958524
37.53567978
37.27272643
37.44588708
37.1851232
37.02948851
37.10224547
36.87075249
36.79473131
36.47255772
36.74135479
36.67035584
36.84685153
37.21755987
37.03076666
37.36111552
37.87139797
37.48115288
38.07257343
38.80852458
37.98377952
39.08555108
39.98753871
38.38787294
40.00508379
39.76905384
38.35519091
39.40836336
38.82998597
38.06237726
38.63293484
38.09996675
37.65222822
37.93956878
37.50854956
37.25291266
37.37938545
37.03296201
36.9037994
36.51829272
36.87420245
36.77091332
37.0160569
37.53486696
37.28978111
37.74823742
38.58057613
38.03126204
38.9558552
41.09499552
39.16942099
40.31777457
40.91615106
39.87681552
41.56287898
41.58834877
40.34201827
40.98360956
40.29216896
39.80940289
40.0421858
38.95735547
38.28783022
38.67355147
37.96884547
37.61181905
37.77162695
37.26806919
37.08472253
36.58911847
37.0361874
36.91143826
37.21626649
37.88919475
37.62137221
38.17332666
39.33253133
38.77678778
39.44007176
40.0227746
39.72891704
42.53048143
43.20721412
42.70933224
44.97411086
43.5523453
42.19946081
41.92145908
40.0471693
39.21526832
39.5982695
38.5423564
38.10599979
38.25981147
37.56061497
37.33663962
36.6793604
37.21247926
37.07977648
37.42667211
38.22799954
37.9761728
38.56706395
39.94312373
39.49940302
40.25853949
41.01232722
40.79901129
44.63935806
45.80913037
45.60668442
49.45533964
46.71299325
45.56061675
43.75045926
41.17211322
40.33367651
40.56219356
39.14845895
38.69329625
38.77816988
37.87699007
37.63870983
36.78142535
37.39148215
37.25720446
37.63476942
38.53829931
38.30815993
38.91751835
40.43823084
40.07444212
40.8739069
41.71580174
41.55526528
45.66628623
47.01597341
46.97590873
52.09392838
48.96957779
48.25233934
45.17196959
42.14552949
41.43696522
41.41297852
39.70540914
39.29525646
39.25806026
38.17772814
37.95254629
36.8907765
37.56842538
37.43588618
37.8367024
38.82625732
38.61189317
39.23921035
40.888106
40.55139012
41.40003826
42.31645795
42.16284429
45.92304378
46.51411178
46.67350506
53.31557645
50.24869289
49.89283518
46.13488219
42.88571119