/*--------------------------------*- C++ -*----------------------------------*\
| =========                 |                                                 |
| \\      /  F ield         | OpenFOAM: The Open Source CFD Toolbox           |
|  \\    /   O peration     | Version:  v1912                                 |
|   \\  /    A nd           | Website:  www.openfoam.com                      |
|    \\/     M anipulation  |                                                 |
\*---------------------------------------------------------------------------*/
FoamFile
{
    version     2.0;
    format      ascii;
    class       surfaceScalarField;
    location    "2.47";
    object      meshPhi;
}
// * * * * * * * * * * * * * * * * * * * * * * * * * * * * * * * * * * * * * //

dimensions      [0 3 -1 0 0 0 0];
oriented        oriented;


internalField   nonuniform List<scalar> 
25162
(
0
0
0
0
0
0
0
0
0
0
0
0
0
0
0
0
0
0
0
0
0
0
0
0
0
0
0
0
0
0
0
0
0
0
0
0
0
0
0
0
0
0
0
0
0
0
0
0
0
0
0
0
0
0
0
0
0
0
0
0
0
0
0
0
0
0
0
0
0
0
0
0
0
0
0
0
0
0
0
0
0
0
0
0
0
0
0
0
0
0
0
0
0
0
0
0
0
0
0
0
0
0
0
0
4.635356764e-09
1.136634503e-07
-1.272813865e-06
0
-7.640257568e-09
1.08207585e-06
0
0
0
0
0
0
0
0
0
0
0
0
0
0
0
0
0
0
0
0
0
0
0
0
0
0
0
0
0
0
0
0
0
0
0
0
0
0
0
0
0
0
0
0
0
0
0
0
0
0
0
0
0
0
0
0
0
0
0
0
0
0
0
0
0
0
-2.145015989e-08
-1.91831941e-06
2.016342109e-06
1.210732122e-05
-7.879152819e-06
-0.0001063642304
1.832621464e-05
0.0001503078238
-9.138271183e-06
-0.0002789430636
1.449973188e-05
0.0003127661439
3.11957878e-06
-0.0003634793395
-7.470580742e-06
0.0003602489517
1.011699821e-05
-0.0002905434655
-1.913583176e-05
0.0002507513672
4.490144497e-06
-0.0001122877593
-1.19347626e-05
7.003431546e-05
0
-2.071413455e-06
-2.947857746e-07
0
0
0
0
0
0
0
0
0
0
0
0
0
0
0
0
0
0
0
0
0
0
0
0
0
0
0
0
0
0
0
0
0
0
0
0
0
0
0
0
0
0
0
0
0
0
0
0
0
0
0
-1.057266587e-06
-4.19583798e-06
5.618179967e-06
2.980778534e-05
-4.172411155e-05
-0.0002570125726
6.58753955e-05
0.0003665967383
-6.799462661e-05
-0.0007320351358
8.673053824e-05
0.0008522918092
-2.247736651e-05
-0.001160077147
1.90974846e-05
0.00123588877
4.277607466e-05
-0.001355973994
-6.343522244e-05
0.001356278357
6.872036116e-05
-0.001231862096
-9.358086493e-05
0.001150049841
5.167400548e-05
-0.0008086166454
-7.011448942e-05
0.0006743814797
1.945717281e-05
-0.0002821318578
-3.081335436e-05
0.0001751597176
0
-4.300388496e-06
-8.514651509e-07
0
0
0
0
0
0
0
0
0
0
0
0
0
0
0
0
0
0
0
0
0
0
0
0
0
0
0
0
0
0
0
0
0
0
0
0
0
0
0
0
0
0
0
0
0
3.479904047e-07
1.628405707e-06
-5.030841707e-05
-0.0001952800548
7.58531227e-05
0.0003325887488
-0.0001577514104
-0.0008731447846
0.0001903779791
0.001075568553
-0.0001320298977
-0.001666568183
0.000140719041
0.001841441424
1.223250931e-05
-0.002250888466
-2.747290772e-05
0.002343274314
0.000143971854
-0.002485280934
-0.0001716637272
0.002488792239
0.0001886878272
-0.002362498533
-0.000223950542
0.002270712835
0.0001397594765
-0.001835757821
-0.0001672149696
0.001642119749
9.209867011e-05
-0.001017998226
-0.0001100034204
0.0008016657608
1.935410253e-05
-0.0002399313409
-2.828575831e-05
0.0001188761559
0
0
0
0
0
0
0
0
0
0
0
0
0
0
0
0
0
0
0
0
0
0
0
0
0
0
0
0
0
0
0
0
0
0
0
0
0
0
0
0
0
0
-1.155808284e-05
-2.352997436e-05
1.936543787e-05
0.0001010356643
-0.0001658450661
-0.0006045024864
0.0001966885532
0.0008375861779
-0.0002975612874
-0.001644684192
0.0003081520036
0.001920873617
-0.0001471281474
-0.002587602255
0.000167546026
0.002731289819
6.969038024e-05
-0.003038144549
-7.529923184e-05
0.003081201744
0.0002293858792
-0.003123512758
-0.0002348319125
0.003124205638
0.0003313766099
-0.003096783176
-0.0003569724448
0.003050285636
0.0003328502202
-0.002791022093
-0.000359961675
0.002596689611
0.0001333679574
-0.001818363584
-0.00014911933
0.001534197204
5.395552322e-05
-0.0006987730826
-6.156481359e-05
0.0004651221488
-3.147967048e-05
2.350490443e-06
-4.000932711e-06
4.794049474e-07
0
0
0
0
0
0
0
0
0
0
0
0
0
0
0
0
0
0
0
0
0
0
0
0
0
0
0
0
0
0
0
0
0
0
0
3.056805838e-07
1.783487495e-08
6.795436647e-07
-4.662833247e-05
-0.0001198297394
5.71685991e-05
0.0002688718025
-0.0002839910363
-0.0009852868041
0.0002946136823
0.001305795429
-0.0003383698061
-0.00223579694
0.0003475321183
0.002512754089
-0.0001439253908
-0.003139489863
0.0001076399487
0.003272409376
3.563803485e-05
-0.003388370041
5.26051388e-05
-1.26922182e-05
0.001633340029
0.001679479057
-0.001624331419
0.0001133054598
-0.0001137944581
0.001624820417
-0.001674425916
0.0004633916742
0.003368894022
-0.001709548099
-0.0002108929596
-0.0002374187227
-0.003197158687
0.0003813608172
-0.0004074878966
0.003077744043
0.0002036262693
-0.002420481099
-0.0002235621524
0.002124971852
8.03105301e-05
-0.001140062559
-8.429251104e-05
0.000837208728
-0.0001667501424
1.54895739e-05
-1.934328987e-05
5.280195328e-05
0
0
0
0
0
0
0
0
0
0
0
0
0
0
0
0
0
0
0
0
0
0
0
0
0
0
0
0
0
0
0
0
0
-1.280748013e-06
0
2.737508202e-06
6.300065341e-06
9.653826839e-06
-7.951166533e-05
-0.0002050320735
8.226257606e-05
0.0004008652037
-0.0003393878549
-0.001268580193
0.0003449239759
0.001610975318
-0.0003543234547
-0.002604843029
0.0003529898444
0.002882202628
-6.985635199e-05
-0.003398397737
6.165969901e-05
0.003439259825
3.429267489e-05
-0.001739318606
-3.146856804e-05
0.001736494499
-0.001723404684
0.0001922259334
-0.0001895651232
0.001720743874
-0.003411983974
0.0004580740357
-0.000468296125
0.003345440307
0.0002499765833
-0.002760436102
-0.0002565751968
0.002463662318
9.49214685e-05
-0.001435553385
-9.821393347e-05
0.001096820435
-0.0002987236133
2.74064285e-05
-3.074510181e-05
0.0001307284537
0
0
0
0
0
0
0
0
0
0
0
0
0
0
0
0
0
0
0
0
0
0
0
0
0
0
0
0
0
0
0
0
0
-3.546157043e-06
0
4.483615548e-06
1.750109427e-05
1.979591733e-05
-9.615373812e-05
-0.0002606709568
9.913573833e-05
0.0004800275228
-0.0003630204007
-0.001412479698
0.0003666918136
0.001771578417
-0.0003515626542
-0.00278853214
0.0003514611595
0.003060182458
-5.135875638e-05
-0.003516844033
5.00682149e-05
0.00353271135
4.104639089e-05
-0.001763852433
-4.104270098e-05
0.001763848743
-0.00177415951
0.0001841226398
-0.0001831994847
0.001773236355
-0.003546771374
0.0004800603608
-0.00048174617
0.003504831665
0.0002808197415
-0.002972050668
-0.0002859428285
0.002681129374
0.0001046048067
-0.001632444157
-0.0001066293482
0.001273436522
-0.0003787821856
3.451981705e-05
-3.573705625e-05
0.0001840542034
0
0
0
0
0
0
0
0
0
0
0
0
0
0
0
0
0
0
0
0
0
0
0
0
0
0
0
0
0
0
0
0
0
-5.407977493e-06
0
6.684088846e-06
2.695039399e-05
3.01184879e-05
-0.0001065710673
-0.0003003939032
0.0001095826338
0.0005362231919
-0.0003759736876
-0.001515497613
0.0003795672754
0.001887067779
-0.0003517098363
-0.002924738064
0.000351630416
0.003196683213
-4.748746245e-05
-0.00363406713
4.678415253e-05
0.003643139299
4.119466805e-05
-0.001816868549
-4.060178903e-05
0.0009068243673
0.000909451303
-0.001827579936
0.0001805184856
-0.0001798731967
0.001826934647
-0.003652382568
0.0004771841844
-0.0004740389814
0.003602139174
0.0002832605315
-0.003035288652
-0.0002814712625
0.002732870801
0.0001054384633
-0.00165493344
-0.0001051145434
0.001289640659
-0.0003821997207
3.482897296e-05
-3.445589152e-05
0.0001849315655
0
0
0
0
0
0
0
0
0
0
0
0
0
0
0
0
0
0
0
0
0
0
0
0
0
0
0
0
0
0
0
0
0
-8.07959935e-06
0
9.693282851e-06
4.083570949e-05
4.491687053e-05
-0.000119016363
-0.000349429773
0.0001223423821
0.0006039031763
-0.0003903961885
-0.001634417524
0.0003940956154
0.002019135092
-0.0003511213809
-0.003076998731
0.0003508498022
0.003348171925
-4.447200403e-05
-0.003761237797
4.386523149e-05
0.003765046595
4.084685837e-05
-0.001878464848
-4.067100372e-05
0.0009381207658
0.0009401682275
-0.001884873145
0.0001779782374
-0.0001773534783
0.001884248385
-0.003754244836
0.0004554261456
-0.0004464169782
0.003663591627
0.0002606759837
-0.0029750334
-0.0002619877218
0.002665223202
9.685420363e-05
-0.00155027275
-9.515521152e-05
0.001184933248
-0.0003105864265
2.866443106e-05
-2.733014606e-05
0.0001335611621
0
0
0
0
0
0
0
0
0
0
0
0
0
0
0
0
0
0
0
0
0
0
0
0
0
0
0
0
0
0
0
0
0
-1.167018818e-05
0
1.241153254e-05
5.990098118e-05
6.21994194e-05
-0.0001332167323
-0.0004069968623
0.0001374703199
0.0006811187105
-0.0004056718658
-0.001762852634
0.0004100061678
0.002159793097
-0.0003496114419
-0.003233050504
0.0003489444781
0.003501491842
-4.243873157e-05
-0.003883640575
4.245878218e-05
0.003883917487
4.02416668e-05
-0.001938188658
-4.024718163e-05
0.0009678004139
0.0009703937588
-0.001938150234
0.0001752384834
-0.0001750909362
0.001938002687
-0.003802289705
0.0004188003074
-0.0004069162688
0.003652953468
0.0002344258173
-0.002850590301
-0.0002124266962
0.002489495357
8.456131321e-05
-0.001338939396
-7.831283422e-05
0.0009843572096
-0.0002066312344
1.959001867e-05
-1.712822379e-05
6.748045282e-05
0
0
0
0
0
0
0
0
0
0
0
0
0
0
0
0
0
0
0
0
0
0
0
0
0
0
0
0
0
0
0
0
0
-1.767633604e-05
0
2.399140519e-05
9.363216651e-05
0.0001072505634
-0.0001497602381
-0.0004858913598
0.0001610262943
0.0007777464324
-0.0004242357143
-0.001917179336
0.0004275734215
0.002325174558
-0.0003459073134
-0.003407242018
0.0003524246992
0.003666819206
-4.199912742e-05
-0.004003288713
4.319100772e-05
0.001997400475
0.002004696357
1.906423014e-05
-0.0009967970062
-1.879188758e-05
0.0009965246636
4.384953794e-05
-0.0004965020915
-4.296196923e-05
0.0009928484699
-0.0004972339471
-0.001988329954
0.0001745961811
-0.0003587862564
0.003985220225
-0.001995129966
0.0001824297706
0.0003760989317
-0.003767215142
-0.0003518520496
0.003541492711
0.0001792229212
-0.002605363495
-0.0001708462044
0.002224430996
6.664502202e-05
-0.001079341682
-6.409451783e-05
0.0007476325138
-8.534530891e-05
7.653301993e-06
-6.128187401e-06
8.430404967e-06
0
0
0
0
0
0
0
0
0
0
0
0
0
0
0
0
0
0
0
0
0
0
0
0
0
0
0
0
0
0
0
0
0
-2.663913317e-05
0
2.168477977e-05
0.0001277974739
0.000117511657
-0.0001780349736
-0.0005762874673
0.0001722169105
0.0009010029051
-0.0004432158945
-0.00210718841
0.0004368594812
0.002529052781
-0.0003336789877
-0.003606503184
0.0003362886302
0.003852401698
-3.735360334e-05
-0.004124047557
3.735360334e-05
0.002058759938
0.002065287619
2.141885269e-05
-0.002058759938
-4.495880334e-05
2.353995065e-05
0.001027965714
0.001030794224
0.0001128395214
-0.001027965805
-0.0001128393852
0.002058759938
-0.001030794269
-0.004124047557
0.0003690720995
-0.0003658457928
0.004111852098
0.0003110254188
-0.003622625808
-0.0002995466666
0.003345924689
0.0001476989237
-0.002254580704
-0.0001292985524
0.00185806096
5.081544924e-05
-0.0007547334691
-4.94861734e-05
0.0004838782554
-1.180033044e-05
1.297286735e-06
-5.961705389e-07
0
0
0
0
0
0
0
0
0
0
0
0
0
0
0
0
0
0
0
0
0
0
0
0
0
0
0
0
0
0
0
0
0
0
-1.323074658e-05
0
4.739701786e-06
5.949537592e-05
3.735058816e-05
-0.0001317196938
-0.0004194482714
0.0001127330919
0.0007076801248
-0.0003860491445
-0.00185450353
0.0003586961973
0.002276064998
-0.0003436648432
-0.003416586515
0.0003415107147
0.003706979408
-5.927599309e-05
-0.00419940374
7.844922078e-05
0.004240908921
4.495880335e-05
-0.004244821108
-9.840451578e-05
0.004244821108
5.344571244e-05
0.0002341630935
-0.004244821108
-0.0002341630935
0.004244821108
0.0003415735127
-0.004165128985
-0.0003259311534
0.004044602157
0.0002450629055
-0.003324607398
-0.0002263436414
0.002983625241
9.711896375e-05
-0.001812278912
-9.038486645e-05
0.001419278883
3.343489259e-05
-0.0004358979238
-2.666224864e-05
0.0002278340298
0
0
0
0
0
0
0
0
0
0
0
0
0
0
0
0
0
0
0
0
0
0
0
0
0
0
0
0
0
0
0
0
0
0
0
0
0
-1.140386875e-07
0
0
3.302079866e-07
0
-5.266938158e-05
-0.0001438844225
3.520771801e-05
0.0003243886532
-0.0002518642697
-0.001204730151
0.0002113898776
0.001569329646
-0.000304912964
-0.002673200138
0.0002813090987
0.003000213998
-0.0001240122269
-0.003738466261
0.0001318404251
0.003895673715
7.863574636e-05
-0.004141872699
-6.374417514e-05
0.004166470587
0.0002163388378
-0.004107928469
-0.0001970408861
0.00403858425
0.0002540032481
-0.00362279216
-0.0002234085943
0.003405604713
0.0001609403264
-0.002540363314
-0.0001384405551
0.002201342777
6.608977952e-05
-0.001164567701
-5.706261681e-05
0.0008497744571
1.266701971e-05
-0.0001565484448
-7.94734771e-06
4.301249761e-05
0
0
0
0
0
0
0
0
0
0
0
0
0
0
0
0
0
0
0
0
0
0
0
0
0
0
0
0
0
0
0
0
0
0
0
0
0
0
0
0
0
0
-3.291962369e-06
-3.273470469e-07
5.208608674e-07
2.471161103e-05
-9.574568361e-05
-0.0004308244381
6.426202812e-05
0.000657531655
-0.0001847462455
-0.001469436055
0.0001487259722
0.001747192822
-0.0001260807179
-0.002471494607
0.0001148632907
0.002655940399
1.342720739e-05
-0.002997544349
3.684375127e-07
0.003038988055
0.0001162322814
-0.002950633137
-8.856368612e-05
0.002852178019
0.0001281893559
-0.002366106065
-9.979346343e-05
0.002149062449
7.729668898e-05
-0.00139774958
-6.021827469e-05
0.001136109492
2.881960543e-05
-0.0004309358801
-1.97691344e-05
0.0002520011102
1.30179987e-07
-1.086246171e-06
0
0
0
0
0
0
0
0
0
0
0
0
0
0
0
0
0
0
0
0
0
0
0
0
0
0
0
0
0
0
0
0
0
0
0
0
0
0
0
0
0
0
0
0
0
0
0
0
-6.640390648e-06
-1.111979869e-05
9.858994293e-07
5.174185389e-05
-5.30244203e-05
-0.0003611438504
3.021411042e-05
0.0005028915209
-6.441031968e-05
-0.0009386936947
4.623516293e-05
0.00106543805
-1.973226208e-05
-0.001323301404
1.881967002e-05
0.001359423639
2.6486964e-05
-0.001306837905
-1.484124335e-05
0.001238501072
3.666757725e-05
-0.0009139521933
-2.342634748e-05
0.0007784748995
2.051006967e-05
-0.0003607455774
-1.134857677e-05
0.0002380645386
1.166484019e-06
-1.373456513e-05
-3.375629586e-09
1.48126003e-07
0
0
0
0
0
0
0
0
0
0
0
0
0
0
0
0
0
0
0
0
0
0
0
0
0
0
0
0
0
0
0
0
0
0
0
0
0
0
0
0
0
0
0
0
0
0
0
0
0
0
0
0
0
0
-1.494244778e-07
0
0
1.851937089e-06
-6.254764196e-06
-5.077175145e-05
9.7289799e-07
7.86710621e-05
-5.808662126e-06
-0.0001531492138
2.03561205e-06
0.0001661959867
9.662131211e-07
-0.0001540991679
-1.923574281e-07
0.0001343148342
2.240960432e-06
-5.33173543e-05
-1.897623304e-07
2.938614255e-05
0
0
0
0
0
0
0
0
0
0
0
0
0
0
0
0
0
0
0
0
0
0
0
0
0
0
0
0
0
0
0
0
0
0
0
0
0
0
0
0
0
0
0
0
0
0
0
0
0
0
0
0
0
0
0
0
0
0
0
0
0
0
0
0
0
0
0
0
0
0
0
0
0
0
0
0
0
0
0
0
0
0
0
0
0
0
0
0
0
0
0
0
0
0
0
0
0
0
0
0
0
0
0
0
0
0
0
0
0
0
0
0
0
0
0
0
0
0
0
0
0
0
0
0
0
0
0
0
0
0
0
0
0
0
0
0
0
0
0
0
0
0
0
0
0
0
0
0
0
0
0
0
0
0
0
0
0
0
0
0
0
0
0
0
0
0
0
0
0
0
0
0
0
0
0
0
0
0
0
0
0
0
0
0
0
0
0
0
0
0
0
0
0
0
0
0
0
0
0
0
0
0
0
0
0
0
0
0
0
0
0
0
0
0
0
0
0
0
0
0
0
0
0
0
0
0
0
0
0
0
0
0
0
0
0
0
0
0
0
0
0
0
0
0
0
0
0
0
0
0
0
0
0
0
0
0
0
0
0
0
0
0
0
0
0
0
0
0
0
0
0
0
0
0
0
0
0
0
0
0
0
0
0
0
0
0
0
0
0
0
0
0
0
0
0
0
0
0
0
0
0
0
0
0
0
0
0
0
0
0
0
0
0
0
0
0
0
0
0
0
0
0
0
0
0
0
0
0
0
0
0
0
0
0
0
0
0
0
0
0
0
0
0
0
0
0
0
0
0
0
0
0
0
0
0
0
0
0
0
0
0
0
0
0
0
0
0
0
0
0
0
0
0
0
0
0
0
0
0
0
0
0
0
0
0
0
0
0
0
0
0
0
0
0
0
0
0
0
0
0
0
0
0
0
0
0
0
0
0
0
0
0
0
0
0
0
0
0
0
0
0
0
0
0
0
0
0
0
0
0
0
0
0
0
0
0
0
0
0
0
0
0
0
0
0
0
0
0
0
0
0
0
0
0
0
0
0
0
0
0
0
0
0
0
0
0
0
0
0
0
0
0
0
0
0
0
0
0
0
0
0
0
0
0
0
0
0
0
0
0
0
0
0
0
0
0
0
0
0
0
0
0
0
0
0
0
0
0
0
0
0
0
0
0
0
0
0
0
0
0
0
0
0
0
0
0
0
0
0
0
0
0
0
0
0
0
0
0
0
0
0
0
0
0
0
0
0
0
0
0
0
0
0
0
0
0
0
0
0
0
0
0
0
0
0
0
0
0
0
0
0
0
0
0
0
0
0
0
0
0
0
0
0
0
0
0
0
0
0
0
0
0
0
0
0
0
0
0
0
0
0
0
0
0
0
0
0
0
0
0
0
0
0
0
0
0
0
0
0
0
0
0
0
0
0
0
0
0
0
0
0
0
0
0
0
0
0
0
0
0
0
0
0
0
0
0
0
0
0
0
0
0
0
0
0
0
0
0
0
0
0
0
0
0
0
0
0
0
0
0
0
0
0
0
0
0
0
0
0
0
0
0
0
0
0
0
0
0
0
0
0
0
0
0
0
0
0
0
0
0
0
0
0
0
0
0
0
0
0
0
0
0
0
0
0
0
0
0
0
0
0
0
0
0
0
0
0
0
0
0
0
0
0
0
0
0
0
0
0
0
0
0
0
0
0
0
0
0
0
0
0
0
0
0
0
0
0
0
0
0
0
0
0
0
0
0
0
0
0
0
0
0
0
0
0
0
0
0
0
0
0
0
0
0
0
0
0
0
0
0
0
0
0
0
0
0
0
0
0
0
0
0
0
0
0
0
0
0
0
0
0
0
0
0
0
0
0
0
0
0
0
0
0
0
0
0
0
0
0
0
0
0
0
0
0
0
0
0
0
0
0
0
0
0
0
0
0
0
0
0
0
0
0
0
0
0
0
0
0
0
0
0
0
0
0
0
0
0
0
0
0
0
0
0
0
0
0
0
0
0
0
0
0
0
0
0
0
0
0
0
0
0
0
0
0
0
0
0
0
0
0
0
0
0
0
0
0
0
0
0
0
0
0
0
0
0
0
0
0
0
0
0
0
0
0
0
0
0
0
0
0
0
0
0
0
0
0
0
0
0
0
0
0
0
0
0
0
0
0
0
0
0
0
0
0
0
0
0
0
0
0
0
0
0
0
0
0
0
0
0
0
0
0
0
0
0
0
0
0
0
0
0
0
0
0
0
0
0
0
0
0
0
0
0
0
0
0
0
0
0
0
0
0
0
0
0
0
0
0
0
0
0
0
0
0
0
0
0
0
0
0
0
0
0
0
0
0
0
0
0
0
0
0
0
0
0
0
0
0
0
0
0
0
0
0
0
0
0
0
0
0
0
0
0
0
0
0
0
0
0
0
0
0
0
0
0
0
0
0
0
0
0
0
0
0
0
0
0
0
0
0
0
0
0
0
0
0
0
0
0
0
0
0
0
0
0
0
0
0
0
0
0
0
0
0
0
0
0
0
0
0
0
0
0
0
0
0
0
0
0
0
0
0
0
0
0
0
0
0
0
0
0
0
0
0
0
0
0
0
0
0
0
0
0
0
0
0
0
0
0
0
0
0
0
0
0
0
0
0
0
0
0
0
0
0
0
0
0
0
0
0
0
0
0
0
0
0
0
0
0
0
0
0
0
0
0
0
0
0
0
0
0
0
0
0
0
0
0
0
0
0
0
0
0
0
0
0
0
0
0
0
0
0
0
0
0
0
0
0
0
0
0
0
0
0
0
0
0
0
0
0
0
0
0
0
0
0
0
0
0
0
0
0
0
0
0
0
0
0
0
0
0
0
0
0
0
0
0
0
0
0
0
0
0
0
0
0
0
0
0
0
0
0
0
0
0
0
0
0
0
0
0
0
0
0
0
0
0
0
0
0
0
0
0
0
0
0
0
0
0
0
0
0
0
0
0
0
0
0
0
0
0
0
0
0
0
0
0
0
0
0
0
0
0
0
0
0
0
0
0
0
0
0
0
0
0
0
0
0
0
0
0
0
0
0
0
0
0
0
0
0
0
0
0
0
0
0
0
0
0
0
0
0
0
0
0
0
0
0
0
0
0
0
0
0
0
0
0
0
0
0
0
0
0
0
0
0
0
0
0
0
0
0
0
0
0
0
0
0
0
0
0
0
0
0
0
0
0
0
0
0
0
0
0
0
0
0
0
0
-0.001758993594
0.001759069244
4.097074163e-05
-0.000177997789
0.00176381251
0.0001789876479
-0.0008848788806
-0.0008799234881
0.0001942366646
-0.001730800752
-0.0001868405971
-0.001809481454
4.161474759e-05
0.0009041019934
0.0009049593811
-0.0001712204149
0.001822233665
0.0001721200344
-0.000912377499
-0.0009107557854
-0.000175003229
-0.0008896475833
-0.0008875064869
-0.001870803052
4.110676939e-05
0.0009345536889
0.0009359894524
-0.0001694883802
0.001875792833
0.0001682593464
-0.0009378549606
-0.0009367088387
-0.0001705812977
-0.0009138759398
-0.000914343113
-0.001930164527
4.059499152e-05
0.0009640597069
0.0009657514952
-0.000165101589
0.001929853135
0.0001663562008
-0.001931107746
-0.001885742096
-0.0001686194286
-0.0009958574928
0.0009958638284
1.905789457e-05
0.0004970184681
-2.143363561e-05
2.159311803e-05
-0.0004971779505
-0.0004965324209
0.0009924104604
4.498996646e-05
-0.0001644913125
0.001983327494
0.0001643776689
-0.001983213851
-0.001938575479
-0.0001646763443
-0.001027047921
0.001027047921
2.141885268e-05
0.001027048174
-5.323836875e-05
5.323902704e-05
-0.001027048832
-0.0004970965998
-2.08391273e-05
0.002051270812
-0.0009359827882
3.527075906e-06
2.107259577e-05
-0.0002977647929
0.004044172964
-0.002045035656
-0.002025619987
0.0001591579171
0.0001650895552
-0.001988184979
-0.0001646362875
-0.001731275052
0.00173048993
3.507779743e-05
0.0001031986392
-0.001624742745
-0.0001027873129
0.001724259386
0.0001914358991
-0.001721458621
0.0002062892881
-0.001661284742
-0.0002194304615
-3.625890688e-05
0.0004394304397
3.645463531e-05
-0.0004396261681
0.0008738617818
8.430247239e-05
-0.0008762912357
-8.187301854e-05
0.001763109271
0.0001848258788
-0.0004765316231
0.003510649957
0.0004810071875
-0.003516083541
0.0004842170917
-0.003431706382
-0.0004777676268
-0.003603059671
0.003613557771
-4.817626551e-05
-3.279550285e-05
3.287583168e-05
-0.001809561783
3.270045332e-05
-0.001763688873
-3.286401375e-05
-4.035334843e-05
0.0004492317509
4.003677832e-05
-0.0004489151808
3.569551932e-05
0.0004436183369
-0.0004434524302
-3.586142605e-05
0.001821770875
0.000180981276
-0.0004709704647
0.003630250783
0.0004725337948
-0.003632007461
-0.003548859416
-0.0004747779685
-0.003730408931
0.003735356044
-4.513119552e-05
-3.265666162e-05
3.273646205e-05
-0.001870882853
-0.001816950865
-3.271318701e-05
-4.076290006e-05
-0.001841612193
4.085320921e-05
0.0009196547512
0.0009218671327
-3.38919755e-05
0.0004612591738
3.377188831e-05
-0.0009218993641
0.0004607602775
3.397285631e-05
0.000452489204
-0.0009064667936
-3.360960901e-05
0.0004536143423
-3.484154738e-05
0.0004637782535
3.504037011e-05
-0.0004639770762
3.75595856e-05
0.0004564394925
-0.0004554468468
-3.855223128e-05
0.001875937818
0.0001778332525
-0.000460133747
0.003728113306
0.000464674646
-0.003739821634
-0.003654769017
-0.0004692182554
-0.003852350424
0.003853443243
-4.26448332e-05
-3.23783695e-05
3.245541745e-05
-0.001930241575
-0.001878458465
-3.266304457e-05
-4.120534033e-05
-0.001901023397
4.084779076e-05
0.0009498858711
0.0009514950755
-1.733277806e-05
0.0004758310859
1.747436975e-05
-0.0004759726776
3.319440283e-05
0.0004686869328
-0.0009380978684
-3.325274914e-05
0.0004694692819
-6.668352283e-05
0.0009523703756
6.70425678e-05
-0.0009527294205
6.846532361e-05
0.0009418363838
-6.644203066e-05
-0.0004726448334
-0.0004712148433
-0.003973703344
-4.249141001e-05
0.001983355694
0.001990839933
-3.1984745e-05
0.0009948221265
3.222729252e-05
-0.001990922167
-0.001938264374
-3.230265297e-05
-1.911764171e-05
-0.0009818072496
0.0009819011407
1.902375055e-05
-2.018298542e-05
0.0004922535405
1.955558409e-05
-0.0004916261392
1.87942816e-05
0.0004826659723
-0.000482967984
-1.849226987e-05
-0.0004947319764
-2.510442995e-05
0.0004931909152
2.66454912e-05
-6.479951245e-05
0.0009807505496
6.452271659e-05
-0.0009804737538
6.599615831e-05
0.0009684438912
-0.0009684384091
-6.600164047e-05
-0.004037115001
-3.437446746e-05
0.001982865054
0.002051270812
-3.647581802e-05
0.00102422289
3.647581803e-05
-0.002051270812
0.001000609484
-0.001997385485
-3.200575025e-05
-1.909918577e-05
-0.00101087907
0.0010107862
1.919205574e-05
-1.768208616e-05
0.0005013811958
1.931009017e-05
-0.0005030091998
2.120365255e-05
0.0004950850384
-0.0004959267015
-2.036198943e-05
-0.002111176865
0.002111176865
4.495880333e-05
0.002111176865
-0.0001043544554
0.0001043544554
-0.002111176865
-0.00102796617
-5.323800417e-05
3.605603102e-05
-0.0008698347758
-3.537560334e-05
0.0004338295793
0.0004353247688
-3.680267498e-05
-0.0008797701954
3.662586752e-05
0.0004403982263
0.0004395487765
-0.0008741365382
1.990092804e-05
-1.807151707e-05
0.0008723071273
-0.0008703697342
0.0008710354423
3.539032294e-05
0.000443396961
3.550570623e-05
-0.0004432071479
0.0004386282945
-0.0004390158094
-3.587139201e-05
0.0001820747756
0.001748757839
-0.0001801747576
-0.0008778848451
-0.0008727730124
7.786743427e-05
-0.0004379167935
-7.628899164e-05
0.0008749666454
-3.645840203e-05
0.0004434966239
3.635873905e-05
0.000451840278
3.44126101e-05
-0.000904603198
0.0004523231662
0.000893015618
3.4004532e-05
-0.000893108226
-3.3911924e-05
4.128021962e-05
-0.001789197587
-4.11972416e-05
0.001789114609
3.617300312e-05
-3.554967616e-05
0.0004460612931
0.000446330998
-1.798652147e-05
0.000451829764
1.799703542e-05
-0.0008804802944
-3.638856371e-05
0.0004397347171
0.0004403314661
-0.0008920403964
3.605668639e-05
0.0004461199391
0.0004460367739
0.0004551822844
3.647624815e-05
-0.000454098947
0.0004510844492
-0.000450468734
-4.096906365e-05
8.793093008e-05
0.0009011779936
-0.0009013620614
-8.774686228e-05
4.018468026e-05
-4.03437697e-05
0.0004512435386
-3.727386575e-05
0.0004558198478
3.663630232e-05
-3.651012583e-05
0.0004436700607
0.0004495335934
3.988283776e-05
0.0008980557669
8.794059986e-05
-0.0008980654367
0.0004679678126
3.360332935e-05
-0.0009356881539
0.0004673114148
0.0004621927116
-0.0009245187839
-3.42802169e-05
0.0004627143136
-0.001849792109
-4.119261953e-05
0.000924345311
0.0009258765176
1.848015632e-05
-1.860129676e-05
0.0004623138521
-1.721788171e-05
0.0004678269535
1.73587408e-05
-1.787567284e-05
0.0004523783553
0.0004615708165
1.816851361e-05
0.0009387627378
6.82689899e-05
-0.0004695156871
-0.000469050717
0.000464039078
-0.0004639278325
-3.495279289e-05
0.0001683076039
0.001854010416
-0.0001685632549
-0.0009270808865
-0.0009266738783
7.134751954e-05
-0.000463158762
-7.061916466e-05
0.0009264694852
-7.037880613e-05
0.0009386420028
7.049954111e-05
-3.790012842e-05
0.0004570657552
-0.0004626307229
0.0009254997118
3.561509135e-05
3.664169275e-05
0.001847434107
0.0001699093411
-0.0009252647295
-0.0009237711146
0.0004822360281
1.898537621e-05
-0.0004824271227
0.0004762106452
-0.0004762695815
-1.72738418e-05
-0.001907092717
-4.058958355e-05
0.000952746043
0.0009537309175
1.829027807e-05
-1.79128933e-05
0.0004758332605
-2.055200703e-05
0.0004817838712
2.100416394e-05
-1.718946858e-05
0.0004686585197
0.0004756316092
1.848975477e-05
0.0009672272529
6.607547003e-05
-0.0009673065646
0.0009548937849
-0.00095488777
-6.668953774e-05
0.0004970343941
2.174057732e-05
-0.0004975713189
0.0004915016575
-0.0004917267854
-1.995785756e-05
-0.0009834059186
-1.912229206e-05
0.0009834105689
2.145222161e-05
0.0004915238132
-0.0004897752975
-2.32007373e-05
2.194464406e-05
-2.152732487e-05
0.0004910843383
-2.099441667e-05
0.0004959269316
2.210187914e-05
-1.998614184e-05
0.0004821001071
0.0004927110158
2.148716875e-05
2.436656943e-05
-0.0004976463242
-0.0001281579077
0.001982136205
0.000127674569
-0.0009911238948
-0.0009905289712
0.000981720125
-0.0009813926389
-6.512699858e-05
-2.509030523e-05
0.0004915096885
0.0010356808
-3.332764866e-05
-0.001030782989
1.305903097e-05
1.537080691e-05
0.0005017793866
-0.0005027749051
-1.668656765e-05
-0.001012365312
-1.891287518e-05
0.001012179001
3.443756405e-05
0.000998880345
-0.0009995283873
-3.378952172e-05
1.403571974e-05
-1.349996321e-05
0.0005012436301
-3.828904385e-05
0.001035929366
1.579332653e-05
2.224715104e-05
-1.988437468e-05
0.0004939749964
1.519448799e-05
0.0005002224276
0.0009977563492
3.571767714e-05
-0.0009990364623
-0.00348765119
0.003507168869
-5.377639499e-05
3.254141641e-05
-0.001758834558
2.650470813e-05
-0.001736944929
-2.887838515e-05
-3.898725472e-05
-0.001740143592
0.001739990699
3.914014768e-05
-3.361735968e-05
3.350245084e-05
-0.0008702548254
2.901859953e-05
-0.0008766672664
-2.648787139e-05
-7.864579622e-05
0.0004309579026
6.666001804e-06
-0.0003589781082
0.0004489854327
4.300628845e-05
-0.0004552053335
-3.67863877e-05
-0.001782697003
0.001782860057
4.111716502e-05
3.402671476e-05
-0.0008920625791
3.407476819e-05
-0.0008804809821
-3.407408054e-05
-0.0001554860394
0.0004779479796
6.909391758e-05
-0.0003915558578
0.00192929883
0.0001757927878
-0.0004389373304
0.003798666087
0.0004465701673
-0.00385317986
-0.003769847635
-0.00045770624
-0.0001532865665
0.0004891671907
6.37964714e-05
-0.0003996770956
-5.62056738e-05
0.0009737601431
5.683935481e-05
-0.0004873779372
-0.0004870158869
2.887122282e-05
0.0004840851649
-0.0004839993818
-2.8957006e-05
-4.043328598e-05
0.000997193873
4.09957622e-05
-0.0001381480656
0.002004335275
0.0001337519459
-0.001999939155
0.001987503731
-0.0001288064937
-0.0009939221061
-0.0009929330392
3.405010994e-05
-0.0008797455371
-0.0008698815437
-3.357059181e-05
-0.001737004908
-4.010602847e-05
0.001738123682
1.835980916e-05
-0.0004363068901
-1.910317652e-05
0.0004370502575
-0.0004509578645
4.74011111e-06
-1.078255604e-05
0.0004570003095
-0.0004385295723
-1.641841276e-05
0.0004389672186
1.59807665e-05
9.167848468e-05
-8.442492779e-05
0.0008666082249
-0.0004374585549
0.000875028277
7.972815183e-05
0.001740314686
0.0001788285545
-0.0008699363078
-0.0008671321569
0.0004844818601
2.926085641e-05
-0.0004848714937
3.449458909e-05
0.0004816987606
-0.0004831639902
-3.302935953e-05
0.0001677209181
0.001908757423
-0.001909394391
-0.00016708395
6.947997348e-05
-6.91364307e-05
0.0009545502421
-6.848638317e-05
0.0009669907694
6.872286671e-05
-6.975660385e-05
0.0009412141815
0.0009523887555
6.946159358e-05
0.001904124823
0.0001679110892
-0.001904314994
2.683146532e-05
0.0004956692018
-0.0004974819153
-2.501875181e-05
-0.0004963072469
-2.635196193e-05
0.0004963871342
2.627207458e-05
-3.753133889e-05
0.0009956123954
3.787843975e-05
-0.0004976621873
-0.0004982973089
0.0008266753531
4.967431533e-05
-0.0008266741129
-4.967555549e-05
-0.001774837585
3.517085736e-05
7.814985937e-06
-1.303736068e-05
0.0008646359955
0.0008802531065
-0.0008646080586
0.0008821653801
2.343606538e-06
0.00087010486
8.556945364e-05
-0.0008713718412
0.001740229327
0.0002010697312
-0.0008732747112
-0.0008376265508
-0.0001007175972
-0.0001296801989
6.873265538e-05
-6.996906217e-05
0.0008279117599
0.0005470035083
-0.0006256493046
7.728801082e-05
0.0008752402274
-7.550266409e-05
-0.0004383945615
-0.0004386310127
4.174634943e-05
6.278221918e-05
0.0004424749397
3.852878729e-05
-3.542353057e-05
0.000445880176
0.0004412471069
3.14571452e-05
0.0008704103389
7.465122102e-05
-0.0004347409443
-0.0004330326048
3.539289834e-05
0.000446550832
-0.0004466099979
-3.533373237e-05
0.0004467850806
3.552791523e-05
-0.0004469200975
3.428308058e-05
0.0004615172658
-0.0004613300548
-3.447029155e-05
0.0004624571293
3.494751045e-05
-0.0004631215592
0.0004757021016
-3.454075827e-05
3.101647112e-05
-0.0004721778145
0.0004859112145
-0.0006187918624
-2.260539151e-05
6.758364889e-05
0.0009466087275
-0.0009465877376
-6.760463879e-05
3.938132935e-05
-3.247176119e-05
0.0004790016463
-3.478957816e-05
0.0004766801029
3.381157689e-05
3.527723406e-05
-6.822341231e-05
0.0004655784245
-0.0004326322462
0.0004751760415
4.215326745e-05
0.0009455158098
6.76844046e-05
-0.0004728873173
-0.0004727292482
0.0004872411107
1.605114251e-05
-0.0004875346166
-1.575763655e-05
2.693360361e-05
-0.0009751989489
-2.6835358e-05
0.0009751007033
-2.683334002e-05
-0.0009817214853
0.0009818104238
2.674440151e-05
-5.453704e-05
0.0009802288266
5.483520335e-05
-0.0009805269899
0.0009752413242
-5.552143769e-05
-0.000488344791
-0.0004875807693
-0.0006330782076
-1.834961901e-05
0.0004981412601
1.319418195e-05
0.0005006738695
-0.0005016293597
-1.223869179e-05
2.617329083e-05
-0.001004834189
-2.609446437e-05
0.001004755362
-2.609952348e-05
-0.001010688057
2.658296304e-05
0.0005048374318
0.0005053671856
2.654596384e-05
-0.0009963411889
-2.624685932e-05
0.0009960420844
-0.001002870481
0.001002760777
2.628299462e-05
0.000498525717
1.436740999e-05
-0.000499698945
-0.0004480841974
1.470693161e-05
-0.0001341344293
0.0005675116951
-0.0004339289985
1.88223636e-05
0.000433466444
-3.56095264e-05
-0.0008745654743
3.597230836e-05
0.0004362227566
0.0004379799358
-2.056917721e-05
2.164795049e-05
-0.0004350077717
2.089980028e-05
-0.000442840283
-2.614371475e-05
-2.603360693e-05
5.343052635e-05
-0.0004412209829
0.0004138240635
-0.0004371330552
-1.974301208e-05
-0.0008772026708
-3.655207913e-05
0.0004393499551
0.0004387952684
-3.336061862e-05
-0.0008795218576
0.0008801109889
3.277148739e-05
-1.938827893e-05
1.986444468e-05
-0.0004390057381
-5.139657039e-06
-0.0004373538256
-8.464381922e-06
0.0004419123038
1.895133826e-05
-0.0004399638418
0.000438608779
-0.0004385167416
-1.948031632e-05
-0.0008743675128
-3.393715207e-05
0.0008749440462
-1.927802494e-05
0.0004414683912
0.0004411071062
1.551212919e-05
3.698053011e-05
0.0004416183363
-0.0004406389261
-3.795994025e-05
0.000440072895
3.708081859e-05
-0.0004401731835
-1.811712811e-05
-0.0004494876798
0.0004496284385