/*--------------------------------*- C++ -*----------------------------------*\
| =========                 |                                                 |
| \\      /  F ield         | OpenFOAM: The Open Source CFD Toolbox           |
|  \\    /   O peration     | Version:  v1912                                 |
|   \\  /    A nd           | Website:  www.openfoam.com                      |
|    \\/     M anipulation  |                                                 |
\*---------------------------------------------------------------------------*/
FoamFile
{
    version     2.0;
    format      ascii;
    class       volVectorField;
    location    "2.47";
    object      U;
}
// * * * * * * * * * * * * * * * * * * * * * * * * * * * * * * * * * * * * * //

dimensions      [0 1 -1 0 0 0 0];


internalField   nonuniform List<vector> 
12556
(
(99.9990631 0.002321104453 -4.19987985e-21)
(99.99863102 0.008086879948 -6.929093661e-26)
(99.99754761 0.01785496558 -4.196196025e-21)
(99.99560773 0.03452569019 -4.175943355e-21)
(99.99969151 0.02786375836 4.039403244e-21)
(99.99774475 0.04697668883 0)
(99.99650038 0.07717570975 0)
(99.99607957 0.1192418758 -7.200085713e-21)
(99.99489231 0.1755559863 8.456853693e-22)
(99.99400129 0.2452659446 -5.632744285e-21)
(99.9939686 0.3212212969 6.538401872e-22)
(99.99549343 0.3891696821 0)
(99.99808919 0.4296985178 0)
(100.0022209 0.430822078 6.143549691e-22)
(100.004409 0.3937499929 -1.227734757e-21)
(100.0056818 0.3318839342 8.463012392e-22)
(100.0056561 0.262238115 0)
(100.0051852 0.1970959888 1.462904155e-21)
(100.0048654 0.1407810337 6.022415103e-21)
(100.0026041 0.09955741347 -1.706505595e-21)
(100.0106219 0.1143343416 -1.486143159e-20)
(100.0073552 0.07083810108 0)
(100.0054738 0.03794159088 -1.87196636e-21)
(100.0052951 0.01199294432 -1.318829697e-20)
(99.99146881 0.005990864992 1.681075829e-20)
(99.98679287 0.02136304204 4.202583364e-21)
(99.97657148 0.04794425168 2.938275079e-20)
(99.95905494 0.0946247538 -1.258564147e-20)
(99.96082962 0.131857867 4.067676033e-21)
(99.93325639 0.2250938375 -4.124073666e-23)
(99.89718795 0.3701352015 0)
(99.87742968 0.5036779887 -7.212379826e-21)
(99.83566 0.7502992286 -6.735427962e-21)
(99.8005925 1.063337515 -1.189086045e-20)
(99.78924811 1.415514293 -5.004257055e-21)
(99.8224396 1.740527892 -6.975716628e-21)
(99.902992 1.946612757 9.424759797e-23)
(100.0005869 1.96999912 -2.401968612e-22)
(100.0889178 1.813564883 -4.308361586e-22)
(100.139773 1.534489209 4.361378812e-21)
(100.1500261 1.210999965 -8.764957194e-21)
(100.1323088 0.9117856721 0)
(100.140656 0.6886192847 -2.567055492e-20)
(100.1007548 0.4718937407 4.959173183e-20)
(100.0996681 0.3260340015 1.43904246e-20)
(100.0701779 0.2012528548 2.973614181e-20)
(100.0531065 0.108154155 -2.982418733e-20)
(100.0466611 0.03423123064 1.506082376e-20)
(99.97764289 0.006812812101 -1.677331052e-20)
(99.9644828 0.02577656045 -3.366248696e-20)
(99.93622965 0.06179260244 -7.56104166e-20)
(99.88945967 0.125993884 1.006427977e-19)
(99.86222812 0.2044301358 -8.321332489e-21)
(99.78142258 0.3628745412 -8.130797438e-21)
(99.67013056 0.6103847208 -1.412771309e-20)
(99.60477131 0.8852443404 0)
(99.47041842 1.352323505 2.785140609e-20)
(99.35499948 1.963759211 -1.274214945e-20)
(99.32943836 2.676319976 2.59290711e-19)
(99.45866055 3.375674704 4.557559171e-19)
(99.76060357 3.833402211 -4.481213518e-20)
(100.1469423 3.887890825 3.818348829e-20)
(100.4497994 3.531575409 1.441261443e-19)
(100.5993032 2.933584222 1.688081161e-21)
(100.6117091 2.278043591 -9.483546005e-21)
(100.5320219 1.671837869 -2.269061137e-20)
(100.4659988 1.175677035 -1.541096272e-19)
(100.3425284 0.7939915902 -3.438156028e-20)
(100.2755268 0.4936484375 -1.47940786e-20)
(100.1969965 0.3026010402 3.364063446e-20)
(100.1496843 0.1627319694 -3.78448758e-21)
(100.1290231 0.05122407764 0)
(99.96392018 0.002933623861 -8.444055574e-21)
(99.93869437 0.01538486821 5.914332878e-20)
(99.8850533 0.04958993299 -1.691914076e-20)
(99.7970843 0.1159426848 0)
(99.72589943 0.2247135789 0)
(99.56458294 0.4270070881 -6.556860266e-20)
(99.33948263 0.7535351637 -1.313367196e-19)
(99.15434271 1.157946873 3.106349091e-20)
(98.84468588 1.835017319 1.780905732e-19)
(98.5727676 2.776425922 6.565596876e-19)
(98.46639088 3.995615892 0)
(98.74573437 5.28382731 -6.58138243e-20)
(99.5232951 6.159459622 3.236357176e-19)
(100.5075897 6.174067935 1.016874089e-19)
(101.1937922 5.428177077 -3.425572616e-19)
(101.4396516 4.344545949 5.671622815e-19)
(101.3846206 3.250135549 1.674481124e-19)
(101.1881931 2.324351088 0)
(100.9685258 1.552853253 5.638748088e-20)
(100.7074317 1.023916381 -4.372295692e-20)
(100.5212745 0.5923067263 -3.793779617e-20)
(100.3746669 0.3586039996 1.923124451e-20)
(100.2835556 0.1907537484 -3.862182038e-21)
(100.2419278 0.05953987022 0)
(99.96147308 -0.006834992317 0)
(99.92214494 -0.01364404196 0)
(99.83943059 0.00363462071 8.510543604e-21)
(99.70234161 0.0560432877 1.288753138e-20)
(99.57480556 0.177885671 2.134750117e-20)
(99.30969235 0.3905871937 0)
(98.93778842 0.7410952655 0)
(98.572472 1.242320406 -3.244042096e-19)
(98.01196765 2.092423795 5.131417669e-19)
(97.41497979 3.417363943 5.024447607e-19)
(97.02195437 5.343597944 -9.134167205e-19)
(97.44204197 7.655284073 0)
(99.18303754 9.333242358 -1.280426765e-19)
(101.4100677 9.14451418 2.413162975e-20)
(102.6820412 7.539907482 -6.231414384e-19)
(102.908289 5.641210146 -9.018510198e-20)
(102.5789177 4.02417951 0)
(102.0868546 2.754694953 -5.444673116e-22)
(101.6205105 1.751478611 -9.399447992e-20)
(101.1667887 1.122896769 7.830885794e-21)
(100.8065472 0.5955901801 0)
(100.5751019 0.3553523493 3.947264715e-21)
(100.4305548 0.1846178277 -2.964098588e-21)
(100.3633577 0.05683886279 -9.833878476e-22)
(99.98305021 -0.02292418904 0)
(99.92925364 -0.06248170352 0)
(99.81757292 -0.07878185052 -1.706860139e-20)
(99.62989845 -0.06056277542 3.470254054e-20)
(99.4328521 0.05236609634 0)
(99.05823323 0.2345851173 0)
(98.51626263 0.5567566884 2.721651625e-20)
(97.93671932 1.081049704 3.46377928e-20)
(97.03056056 1.993380719 2.830480884e-19)
(95.84251509 3.592434422 -5.425958428e-19)
(94.65098301 6.31250132 0)
(94.62449494 10.51591387 3.498432178e-21)
(98.31420581 14.40851924 -1.524973435e-19)
(103.5621245 13.35829963 -2.898863859e-19)
(105.5121869 9.65569489 -1.417698197e-18)
(105.2196171 6.548583516 0)
(104.2268116 4.376086048 -2.769183931e-19)
(103.2118775 2.86119905 -6.381484345e-20)
(102.3578627 1.697083115 2.422747881e-20)
(101.6669364 1.049981363 -1.625654164e-20)
(101.095475 0.4894283891 0)
(100.7665854 0.2829642979 0)
(100.5638647 0.1392687616 -9.995743456e-22)
(100.4690626 0.04176380238 -3.003363909e-21)
(100.0410335 -0.04496939405 4.161532542e-21)
(99.97410913 -0.1298037702 -4.19195266e-21)
(99.83688465 -0.1956018706 8.552691847e-21)
(99.60401908 -0.2317789541 -3.132765273e-20)
(99.33600854 -0.1533804473 8.288371092e-23)
(98.85892345 -0.04340572388 2.675836384e-20)
(98.1594649 0.1893460661 -5.540705358e-20)
(97.37704964 0.6322393821 0)
(96.05721569 1.437864551 -1.23796604e-18)
(94.07832625 2.935669275 3.454146378e-19)
(91.24817727 5.728302689 -1.427339321e-20)
(87.80903735 12.17276268 -1.22026264e-18)
(94.46095821 24.14198631 7.891319571e-19)
(109.6458325 19.32121667 0)
(110.4096959 10.96381325 0)
(108.3649177 6.472726464 -9.314866262e-20)
(106.2028574 3.988197875 -1.342513197e-18)
(104.4392997 2.478027233 1.540599718e-19)
(103.0750257 1.328509537 0)
(102.1393849 0.7666929541 8.942160133e-21)
(101.3389541 0.2731332324 2.635487636e-21)
(100.9132408 0.1359112167 -3.115763318e-21)
(100.6560102 0.05415204461 -3.547278971e-21)
(100.5345745 0.01434925082 8.530315173e-21)
(100.1461568 -0.07183561239 -4.161969268e-21)
(100.0690129 -0.2120260656 4.193456742e-21)
(99.91264895 -0.3397795082 -5.319313738e-21)
(99.64616397 -0.4464495366 -3.574504478e-21)
(99.3156892 -0.4261601364 1.523458145e-20)
(98.75971882 -0.422904822 9.06385556e-21)
(97.94764925 -0.3423061634 -4.702735554e-21)
(97.00624117 -0.07393778965 1.207815402e-18)
(95.36271059 0.4088932209 -3.312161741e-19)
(92.78028039 1.262367115 0)
(88.56881686 2.513322251 0)
(80.6116984 4.604264985 -2.391277149e-18)
(124.7187416 21.91972 0)
(117.0815741 8.937235362 1.263127871e-18)
(111.7460514 4.631616141 -1.003995871e-18)
(108.0869217 2.633678808 -1.593765145e-18)
(105.5400886 1.514246246 0)
(103.6402678 0.6352779613 -4.774949908e-21)
(102.4894291 0.2860246931 2.022777698e-20)
(101.4824106 -0.04697739334 -3.222405468e-21)
(100.9793392 -0.07539683657 2.635041913e-21)
(100.679842 -0.06513877186 -5.081139599e-22)
(100.5362803 -0.02403583748 -8.030937118e-21)
(100.3063765 -0.10174581 -2.00306779e-21)
(100.2231005 -0.3036087962 -1.504783772e-21)
(100.056216 -0.5008520055 -5.158550533e-22)
(99.77140074 -0.6875312761 1.559944265e-21)
(99.39457645 -0.74232316 -2.970647816e-23)
(98.79507699 -0.8666282143 0)
(97.93895393 -0.9725374559 3.936235165e-20)
(96.91080161 -0.9299737227 3.80021977e-20)
(95.14416864 -0.8661652958 -1.356185526e-18)
(92.49976134 -0.8070349132 2.941493013e-20)
(88.68162526 -1.223205218 2.881869993e-18)
(83.94123445 -3.181327134 -1.070562569e-18)
(137.1210883 6.030738478 2.423610667e-18)
(121.5941124 2.2756611 1.479249096e-18)
(113.9588908 0.9396391131 -2.731805644e-19)
(109.2806949 0.3725899817 1.741520771e-18)
(106.2057439 0.07159313334 -1.348435973e-18)
(103.9183263 -0.2993576094 -4.898256524e-21)
(102.629951 -0.346152455 1.141273941e-20)
(101.4851543 -0.4379442151 1.110927793e-21)
(100.9366484 -0.3311219768 0)
(100.6126983 -0.207952499 4.056838388e-21)
(100.4550849 -0.07017068133 4.007514455e-21)
(100.5257834 -0.1325319028 3.9458539e-21)
(100.4409873 -0.3978454714 6.121111271e-23)
(100.2731066 -0.6663381524 0)
(99.98685114 -0.9357737221 2.019847435e-22)
(99.58320334 -1.074331633 -2.086897207e-21)
(98.97915611 -1.330062591 2.21966103e-21)
(98.14488085 -1.622128424 -7.40166034e-20)
(97.11036453 -1.80343704 -1.178720423e-18)
(95.41014968 -2.109940297 1.35937154e-18)
(93.02157211 -2.59761705 0)
(89.9993762 -3.621975746 -8.879262274e-19)
(87.04784104 -5.341192745 6.671141824e-19)
(134.0442077 -9.999760488 -2.121327568e-18)
(121.1823809 -5.438421139 -1.483348742e-18)
(113.9619644 -3.408994776 0)
(109.3046702 -2.245086829 1.721404528e-18)
(106.2172387 -1.582208386 0)
(103.8197389 -1.339424916 4.155269396e-20)
(102.51321 -1.047532303 0)
(101.3232219 -0.8557106858 -1.089335032e-21)
(100.7689529 -0.6043540196 -4.501649811e-21)
(100.441418 -0.3602727192 5.021518357e-22)
(100.2797806 -0.1195333305 0)
(100.8041577 -0.1620777224 -1.942615981e-21)
(100.7222184 -0.488066487 1.959076331e-21)
(100.5620419 -0.8238367381 1.909313678e-21)
(100.2916697 -1.172620521 -1.785179081e-21)
(99.8787073 -1.39478869 -2.055882226e-21)
(99.30588034 -1.770007568 0)
(98.54169761 -2.225901024 -2.204081918e-21)
(97.56094037 -2.600328615 -1.190937679e-18)
(96.01433908 -3.180105729 7.561328019e-21)
(93.93497775 -3.981455517 6.353990372e-21)
(91.42401035 -5.183192527 1.936007056e-21)
(89.03916737 -6.582558545 0)
(125.0947201 -18.63556961 -6.18658512e-20)
(117.2857956 -11.01710677 -1.287354321e-18)
(112.0446045 -6.9776873 -4.787823613e-19)
(108.2773306 -4.574116419 -4.276449987e-20)
(105.5771422 -3.136300701 5.962829418e-19)
(103.3405887 -2.321812284 0)
(102.1404599 -1.72252362 -2.714529718e-20)
(100.9951056 -1.254242908 -1.362642215e-20)
(100.4749723 -0.8659161483 1.024545959e-21)
(100.1642589 -0.5069979484 -3.247922596e-21)
(100.0085423 -0.1672963418 4.756105641e-22)
(101.1371066 -0.1884946033 7.122968873e-21)
(101.0619514 -0.5682568564 0)
(100.9162243 -0.9608808799 -1.905576052e-21)
(100.6736989 -1.386902437 0)
(100.2642398 -1.680883842 0)
(99.75543416 -2.152436039 -6.104334296e-21)
(99.09238953 -2.738970666 1.126284364e-21)
(98.20584577 -3.264000985 1.179343987e-18)
(96.85051139 -4.033369669 1.834087384e-18)
(95.05509032 -5.033526281 0)
(92.8458297 -6.373565995 7.08633288e-19)
(90.58714666 -7.758940147 -7.09331684e-19)
(115.7727698 -21.57616826 0)
(112.140782 -13.73386416 1.834273948e-18)
(109.0896839 -9.136094572 -4.041486651e-19)
(106.4998069 -6.198741489 2.954285461e-18)
(104.4327262 -4.333057031 -1.161167584e-18)
(102.5556003 -3.116605683 2.170276552e-21)
(101.5520115 -2.291556393 -3.30254516e-20)
(100.5238352 -1.598325379 8.062267809e-21)
(100.0685616 -1.090086756 0)
(99.79039667 -0.6350229387 3.741457833e-21)
(99.64877361 -0.2092321535 0)
(101.5171282 -0.2111196902 7.113849205e-21)
(101.4511483 -0.6374412479 1.122382391e-19)
(101.3231159 -1.077486548 -2.260547653e-19)
(101.1117404 -1.56296702 -4.353301434e-22)
(100.7439229 -1.911378968 -1.787858938e-21)
(100.3036219 -2.455173249 0)
(99.75912796 -3.133449375 -2.530502014e-19)
(98.98609873 -3.762274759 7.976348111e-19)
(97.84469595 -4.652563276 0)
(96.33795928 -5.793558516 0)
(94.4342091 -7.345998163 6.164531837e-19)
(92.35341918 -8.994843337 -5.073732937e-19)
(103.2285326 -30.22642006 0)
(107.3793741 -19.82208248 -1.111862146e-19)
(107.2633107 -13.99314064 -3.724342306e-20)
(105.9749134 -9.879822236 -6.136268864e-19)
(104.4549148 -7.016681871 -9.6012629e-19)
(103.0326878 -5.068651227 2.748784877e-19)
(101.58681 -3.651550505 -6.600212869e-20)
(100.8133958 -2.703021425 0)
(99.95213707 -1.861397454 0)
(99.5744278 -1.260867513 1.171348986e-20)
(99.33744599 -0.7357307095 2.159338044e-21)
(99.21532646 -0.2424090945 -6.996723615e-21)
(101.9340457 -0.2278110944 0)
(101.8788012 -0.6891145483 0)
(101.7720231 -1.163582002 0)
(101.5945836 -1.684611212 0)
(101.2674228 -2.087325748 0)
(100.8999302 -2.686167776 0)
(100.4669623 -3.423229077 -4.516765218e-19)
(99.83000113 -4.103065049 -9.532396843e-19)
(98.90703049 -5.050271978 9.784983141e-19)
(97.71348163 -6.26156128 -5.007422421e-19)
(96.25042778 -7.972660228 -1.07638486e-18)
(94.75115422 -10.34621125 4.915259245e-19)
(96.73491246 -19.629636 3.273328571e-19)
(102.4045883 -16.24320318 -4.595404422e-19)
(103.5609494 -12.66774455 -2.070866853e-19)
(103.2869992 -9.571267301 9.228714027e-20)
(102.5070489 -7.159942819 -9.328438985e-19)
(101.5832034 -5.365737624 -5.715988455e-20)
(100.5538276 -3.930476343 -9.150051927e-20)
(99.99808974 -2.950247286 -3.441567032e-20)
(99.32141511 -2.024372623 -1.906403834e-20)
(99.02055515 -1.37592619 1.877649708e-20)
(98.82780438 -0.805431161 0)
(98.72753084 -0.2653454554 1.874866886e-20)
(102.3773626 -0.2384839095 0)
(102.3337878 -0.7223728692 0)
(102.2507239 -1.218676814 0)
(102.1094678 -1.754902208 0)
(101.8241383 -2.189196709 0)
(101.54059 -2.81249077 0)
(101.2152608 -3.553180537 1.244788191e-20)
(100.7263249 -4.258765948 0)
(100.0210589 -5.192134411 0)
(99.1383292 -6.345065715 1.324238219e-20)
(98.21167854 -7.888273017 -8.719662195e-21)
(97.56961065 -10.15077253 -2.13526115e-19)
(98.36091131 -12.88363146 0)
(100.4463246 -12.52357805 1.525031596e-19)
(101.2471076 -10.75339071 -6.004225912e-20)
(101.248873 -8.695300327 2.584519651e-19)
(100.8363519 -6.843479854 -3.484299875e-19)
(100.2513319 -5.343045695 -2.43816523e-20)
(99.53959845 -3.997376097 0)
(99.17818856 -3.055033211 0)
(98.66447468 -2.09683569 -3.541321409e-20)
(98.43428947 -1.436367398 1.747437635e-20)
(98.28479076 -0.8435010553 7.316928061e-22)
(98.20595375 -0.2779051685 -1.290911342e-20)
(102.8358379 -0.2433654716 0)
(102.8033681 -0.7373888985 0)
(102.7428892 -1.243057785 0)
(102.6360709 -1.779577977 0)
(102.3908529 -2.228891713 0)
(102.1820079 -2.84998513 0)
(101.9477152 -3.561745009 0)
(101.5807296 -4.266436978 0)
(101.0531032 -5.134583425 1.042049174e-18)
(100.3996211 -6.138236369 0)
(99.77734264 -7.325484714 0)
(96.61593437 -8.258286902 3.398534799e-20)
(99.33054427 -9.935007474 1.945068644e-21)
(99.81279749 -9.892391901 -2.831992767e-20)
(99.93511393 -8.97320987 1.499183438e-19)
(99.80010549 -7.652245463 0)
(99.49699187 -6.294115634 -1.336171609e-19)
(99.1010465 -5.092563991 0)
(98.61133666 -3.902527637 -2.980705069e-20)
(98.39692536 -3.042106108 4.539103287e-20)
(98.01093863 -2.095627096 1.100374259e-20)
(97.84153829 -1.448865261 1.876729678e-20)
(97.72986001 -0.8531519367 -2.131598547e-20)
(97.66984531 -0.2811067674 0)
(103.2987994 -0.243158143 0)
(103.275981 -0.7363296307 0)
(103.2346029 -1.240227511 0)
(103.1572853 -1.764911501 0)
(102.9487488 -2.215357013 0)
(102.8009558 -2.813709066 0)
(102.6365904 -3.474954073 0)
(102.3502086 -4.144940641 -1.381215832e-19)
(101.9396827 -4.923354129 -2.848081323e-19)
(101.39671 -5.748117141 -6.583823052e-19)
(100.8980675 -6.619550255 -2.891663094e-20)
(94.24303764 -6.487237746 -3.4044673e-19)
(99.87224529 -8.082864017 -1.933268507e-19)
(99.5084162 -8.070691684 -3.262064383e-20)
(99.12671656 -7.517063643 -4.610303093e-19)
(98.78249699 -6.644233557 -1.381526299e-20)
(98.45378194 -5.67016218 -3.590752861e-21)
(98.14579574 -4.722683378 0)
(97.79866128 -3.709224092 0)
(97.67312591 -2.939372557 0)
(97.38409157 -2.037812475 3.799293925e-20)
(97.26273959 -1.422248609 -3.553939819e-20)
(97.18087415 -0.8390806408 -2.402406278e-21)
(97.13582863 -0.276857884 2.410448175e-21)
(103.7568807 -0.2387458324 0)
(103.741962 -0.7220656607 0)
(103.7155699 -1.215022942 0)
(103.6615694 -1.718321779 0)
(103.4840702 -2.158185367 0)
(103.3813605 -2.720718931 0)
(103.2630009 -3.321785902 0)
(103.0205766 -3.926083456 0)
(102.6564998 -4.598870791 1.276310283e-19)
(102.1236476 -5.267560418 -4.647929027e-19)
(101.6654102 -5.933126005 0)
(94.13647665 -5.691576038 5.224186227e-19)
(100.0421311 -6.799502069 -8.579990412e-20)
(99.23721846 -6.746237307 0)
(98.55134508 -6.365008716 1.014504601e-19)
(98.04328289 -5.763013997 1.669330877e-20)
(97.65598482 -5.049017512 0)
(97.36962472 -4.305512428 0)
(97.09410105 -3.450945107 0)
(97.01758038 -2.773770277 0)
(96.79707306 -1.937666748 0)
(96.71065165 -1.364155328 0)
(96.65122954 -0.8075021387 0)
(96.61731952 -0.2675008814 0)
(104.2026526 -0.2310252943 0)
(104.1938136 -0.6975073926 0)
(104.1782974 -1.172498513 0)
(104.1412201 -1.648097728 0)
(103.9877231 -2.06881633 0)
(103.9145326 -2.588757792 0)
(103.8201718 -3.127488888 0)
(103.5953784 -3.660882186 0)
(103.2339892 -4.220813618 0)
(102.674762 -4.759288353 -2.635804432e-21)
(101.8620266 -5.23026113 0)
(96.25253482 -5.289176599 1.758635058e-19)
(100.0449336 -5.807174549 2.455285919e-20)
(99.00048948 -5.730128118 0)
(98.13809373 -5.451443694 0)
(97.49984694 -5.012900434 0)
(97.04292879 -4.470447779 0)
(96.74104756 -3.879231973 0)
(96.49211837 -3.161993638 0)
(96.43576592 -2.574241761 0)
(96.25745204 -1.812146746 0)
(96.19369172 -1.285739639 0)
(96.14907832 -0.7630927479 0)
(96.12375599 -0.2533948715 0)
(104.6305895 -0.2208873385 0)
(104.626023 -0.6655159445 0)
(104.6174517 -1.11759641 0)
(104.5912544 -1.562145812 0)
(104.4549121 -1.958292634 0)
(104.3976613 -2.433135652 0)
(104.3102108 -2.914347518 0)
(104.0838257 -3.377839427 0)
(103.7016585 -3.8430229 0)
(103.1128776 -4.273291966 0)
(101.8954642 -4.586467534 0)
(97.59666527 -4.72717409 0)
(100.056042 -5.006824473 0)
(98.8413704 -4.930281383 0)
(97.83662612 -4.710959981 0)
(97.08796347 -4.373941959 0)
(96.56215098 -3.94979 0)
(96.22726605 -3.471865631 0)
(95.97988968 -2.867974804 0)
(95.92405019 -2.360752847 0)
(95.76787071 -1.674136615 0)
(95.71671897 -1.195797894 0)
(95.68055911 -0.7113131634 0)
(95.66060862 -0.2366640412 0)
(105.0369085 -0.2091703467 0)
(105.0349452 -0.628764579 0)
(105.0297854 -1.054821609 0)
(105.0091225 -1.467230388 0)
(104.8840688 -1.835919962 0)
(104.8318027 -2.266470345 0)
(104.7376554 -2.695804474 0)
(104.4985358 -3.095677474 0)
(104.0834889 -3.484127763 0)
(103.4562997 -3.832149526 0)
(101.8255597 -4.041460449 0)
(98.50981441 -4.21083137 0)
(100.0489034 -4.356759901 -4.453025459e-35)
(98.7090263 -4.280049478 0)
(97.59937443 -4.099265791 0)
(96.76459944 -3.830167643 0)
(96.17697959 -3.489646378 0)
(95.8032865 -3.097735314 0)
(95.54259497 -2.585461881 0)
(95.47545453 -2.147262357 0)
(95.32732689 -1.532818677 0)
(95.28101083 -1.101095564 0)
(95.24832879 -0.6562348974 0)
(95.23134148 -0.2187698488 0)
(105.4193409 -0.1965981307 0)
(105.4185563 -0.5895628192 0)
(105.4138816 -0.9880698293 0)
(105.3942781 -1.368631306 0)
(105.27601 -1.709001352 0)
(105.2203444 -2.097998288 0)
(105.1101439 -2.480520307 0)
(104.8516446 -2.825460823 0)
(104.3990022 -3.152592503 0)
(103.7287306 -3.438471143 0)
(101.6884058 -3.572675798 0)
(99.18078032 -3.75271672 0)
(100.0217299 -3.820432147 0)
(98.59202617 -3.742869899 0)
(97.40499838 -3.588307885 0)
(96.50295946 -3.366546007 0)
(95.86209711 -3.086676449 0)
(95.45011835 -2.760562461 0)
(95.16704567 -2.322859126 0)
(95.08223328 -1.942486731 0)
(94.93272073 -1.394564371 0)
(94.88565434 -1.006587264 0)
(94.85284462 -0.6008665572 0)
(94.83696328 -0.2007124844 0)
(105.776921 -0.1837517968 0)
(105.7761638 -0.5497438139 0)
(105.7697336 -0.920453758 0)
(105.747703 -1.27041167 0)
(105.6325457 -1.582935004 0)
(105.5676204 -1.933989721 0)
(105.4352835 -2.273854127 0)
(105.1538725 -2.573491831 0)
(104.6632619 -2.851635036 0)
(103.9469974 -3.089876544 0)
(101.5140114 -3.168581264 0)
(99.65822424 -3.349234349 0)
(99.98171722 -3.371131766 -6.082974688e-35)
(98.48591289 -3.293406822 0)
(97.24069189 -3.157764557 0)
(96.28579502 -2.970260121 0)
(95.59981182 -2.735475224 0)
(95.1519909 -2.460028501 0)
(94.84294096 -2.08327983 0)
(94.73689868 -1.751446707 0)
(94.57998257 -1.263544613 0)
(94.52842626 -0.9156418879 0)
(94.49304996 -0.5472875309 0)
(94.47692348 -0.183176801 0)
(106.1097228 -0.1710776582 0)
(106.1080933 -0.5106799283 0)
(106.0982814 -0.8542857593 0)
(106.0712775 -1.175526465 0)
(105.9563981 -1.461508634 0)
(105.8782705 -1.778357825 0)
(105.7208782 -2.08022451 0)
(105.4142223 -2.342484844 0)
(104.8877397 -2.581607403 0)
(104.1228277 -2.782598024 0)
(101.3239034 -2.820346066 0)
(99.9888265 -2.995970956 0)
(99.93357887 -2.990964134 0)
(98.38819365 -2.913849885 0)
(97.09842824 -2.792575026 0)
(96.10163893 -2.63074454 0)
(95.37764191 -2.430299192 0)
(94.89720007 -2.194473703 0)
(94.56141495 -1.867772934 0)
(94.43269792 -1.576728657 0)
(94.26477917 -1.142248174 0)
(94.20639787 -0.8303957506 0)
(94.16690173 -0.4968511256 0)
(94.14958829 -0.1666129889 0)
(106.4185585 -0.1589075426 0)
(106.415374 -0.4733630414 0)
(106.4010471 -0.7912085723 0)
(106.3673007 -1.086024943 0)
(106.2505497 -1.347250931 0)
(106.1566857 -1.63355667 0)
(105.9729155 -1.902500393 0)
(105.6404292 -2.133446285 0)
(105.0811111 -2.341442492 0)
(104.2648695 -2.512724753 0)
(101.1328224 -2.520818955 0)
(100.2132226 -2.688241854 0)
(99.88038078 -2.667298908 2.137479512e-35)
(98.29733149 -2.591412302 0)
(96.97297979 -2.481487228 0)
(95.94268646 -2.33948889 0)
(95.18669702 -2.165783356 0)
(94.67700681 -1.961427493 0)
(94.31514774 -1.676040893 0)
(94.16369424 -1.41931836 0)
(93.98284487 -1.031955577 0)
(93.91631614 -0.7520933668 0)
(93.87179445 -0.4503766666 0)
(93.85266768 -0.151299251 0)
(106.7047425 -0.1474783753 0)
(106.6995034 -0.4384830545 0)
(106.6799123 -0.7323396343 0)
(106.6382576 -1.003233542 0)
(106.5180671 -1.24173013 0)
(106.4069794 -1.501044836 0)
(106.1965171 -1.741720033 0)
(105.8388245 -1.946321381 0)
(105.2498137 -2.129331066 0)
(104.3798266 -2.276544128 0)
(100.9502473 -2.263622366 0)
(100.3633953 -2.421428201 0)
(99.82413033 -2.390812234 0)
(98.21226073 -2.316575293 0)
(96.86075412 -2.215880633 0)
(95.80343285 -2.089585074 0)
(95.02046871 -1.937099377 0)
(94.48475906 -1.75808081 0)
(94.09818664 -1.507007909 0)
(93.92473417 -1.2792024 0)
(93.7301334 -0.933131203 0)
(93.65483821 -0.6813467189 0)
(93.60484806 -0.4082954315 0)
(93.58351949 -0.1373879198 0)
(106.9699388 -0.1369488521 0)
(106.962295 -0.4064893419 0)
(106.9369854 -0.6783918412 0)
(106.8867104 -0.9279399396 0)
(106.7619153 -1.145848932 0)
(106.6328549 -1.381510245 0)
(106.396095 -1.598045725 0)
(106.0145284 -1.780468045 0)
(105.398562 -1.943249279 0)
(104.4728953 -2.070716338 0)
(100.7822615 -2.043119949 0)
(100.4628522 -2.191130732 0)
(99.76620501 -2.154467384 0)
(98.13219298 -2.082120647 0)
(96.75918781 -1.989084248 0)
(95.67989596 -1.875458717 0)
(94.87410809 -1.740066547 0)
(94.31532644 -1.581665429 0)
(93.90570095 -1.359246143 0)
(93.71140741 -1.155812358 0)
(93.50288248 -0.8457225904 0)
(93.41866736 -0.6183345738 0)
(93.36307968 -0.3707641801 0)
(93.33933217 -0.1249410724 0)
(107.2160535 -0.1274163536 0)
(107.20577 -0.3776458692 0)
(107.1745035 -0.6297720771 0)
(107.1152248 -0.8605387294 0)
(106.984972 -1.060004443 0)
(106.8376936 -1.275103541 0)
(106.5754816 -1.471119964 0)
(106.1717379 -1.634919607 0)
(105.5310006 -1.781262407 0)
(104.5482099 -1.892533209 0)
(100.6326952 -1.854812443 0)
(100.527701 -1.993501449 0)
(99.70750337 -1.952800982 0)
(98.05647817 -1.882404097 0)
(96.66635372 -1.795802363 0)
(95.56907715 -1.692543274 0)
(94.74388088 -1.571074507 0)
(94.16463642 -1.42957622 0)
(93.73367022 -1.231167499 0)
(93.51986825 -1.048254736 0)
(93.29762897 -0.7693601076 0)
(93.20462955 -0.5629536175 0)
(93.14351171 -0.3377576773 0)
(93.11724402 -0.1139601432 0)
(107.445087 -0.1189351615 0)
(107.4320147 -0.3520870367 0)
(107.3947038 -0.5866757702 0)
(107.3262666 -0.8011741271 0)
(107.1899296 -0.9842829703 0)
(107.0245264 -1.181664799 0)
(106.7379152 -1.360256232 0)
(106.3139096 -1.50857445 0)
(105.6500629 -1.641531762 0)
(104.6090135 -1.739416752 0)
(100.5042994 -1.695066474 0)
(100.5684949 -1.825035404 0)
(99.64858726 -1.781478192 0)
(97.98456577 -1.71298277 0)
(96.58076935 -1.631831129 0)
(95.46867151 -1.53713291 0)
(94.62686329 -1.42708121 0)
(94.02941724 -1.299484513 0)
(93.57874461 -1.121212598 0)
(93.34678769 -0.9555201253 0)
(93.11123742 -0.7035231151 0)
(93.00975234 -0.5149411321 0)
(92.94328369 -0.3091449822 0)
(92.91447003 -0.1044108748 0)
(107.6591729 -0.1115275066 0)
(107.6432152 -0.3298546014 0)
(107.5998639 -0.549150626 0)
(107.5222677 -0.7498039136 0)
(107.3793072 -0.9185718109 0)
(107.1961066 -1.100856219 0)
(106.8861679 -1.264312615 0)
(106.4438394 -1.400336007 0)
(105.7580822 -1.522271885 0)
(104.657843 -1.60902093 0)
(100.3982239 -1.560736008 0)
(100.5922573 -1.682622211 0)
(99.58982512 -1.636976751 0)
(97.91597682 -1.57029999 0)
(96.50124455 -1.493790825 0)
(95.37683595 -1.406195472 0)
(94.52068243 -1.305526044 0)
(93.90693153 -1.189331243 0)
(93.438086 -1.027932396 0)
(93.18924305 -0.8765943805 0)
(92.94080226 -0.6476141775 0)
(92.83121083 -0.4739512807 0)
(92.75962011 -0.2847359725 0)
(92.72827401 -0.09623767059 0)
(107.8601633 -0.1052037923 0)
(107.8412788 -0.3109476504 0)
(107.7919523 -0.5171543315 0)
(107.7052974 -0.70636643 0)
(107.5554215 -0.8626251517 0)
(107.3549216 -1.032141375 0)
(107.0230389 -1.182617988 0)
(106.5637268 -1.308980025 0)
(105.8569609 -1.421888125 0)
(104.6969427 -1.499487105 0)
(100.3139492 -1.449393005 0)
(100.6035307 -1.563727718 0)
(99.53148073 -1.516462766 -3.67897176e-36)
(97.85030655 -1.451522402 0)
(96.4267999 -1.378975725 0)
(95.2920603 -1.29726595 0)
(94.42338835 -1.204294248 0)
(93.79487517 -1.097575469 0)
(93.30920495 -0.9501512987 0)
(93.04463656 -0.810506711 0)
(92.7838473 -0.6010890252 0)
(92.66654905 -0.4396113803 0)
(92.59008361 -0.2643282411 0)
(92.55625462 -0.08938217144 0)
(108.050946 -0.09994215293 0)
(108.0290447 -0.2953023565 0)
(107.973768 -0.490582108 0)
(107.8781537 -0.6705142074 0)
(107.7204609 -0.8161653273 0)
(107.5031759 -0.9749505318 0)
(107.1510909 -1.115178424 0)
(106.6754485 -1.233293776 0)
(105.9483514 -1.33897456 0)
(104.7283265 -1.409171306 0)
(100.2498952 -1.358906822 0)
(100.6052467 -1.466224786 0)
(99.47375821 -1.417690958 0)
(97.78721114 -1.354404282 0)
(96.35660354 -1.285221194 0)
(95.21307223 -1.208339281 0)
(94.33336646 -1.121610785 0)
(93.69156558 -1.022792064 0)
(93.18975876 -0.8868422734 0)
(92.91063911 -0.7564204756 0)
(92.63745435 -0.5632721761 0)
(92.51283464 -0.4115564707 0)
(92.43168977 -0.2476958933 0)
(92.39537908 -0.08376899106 0)
(108.2304242 -0.09579702135 0)
(108.2056301 -0.2829927056 0)
(108.1445423 -0.4693947253 0)
(108.0402049 -0.6427779916 0)
(107.8764135 -0.7787886562 0)
(107.6428545 -0.9288462105 0)
(107.2718512 -1.061925091 0)
(106.7808994 -1.172301155 0)
(106.0337393 -1.272363791 0)
(104.7537679 -1.33670799 0)
(100.2043015 -1.287358947 0)
(100.5995902 -1.3883283 0)
(99.41680534 -1.338902262 0)
(97.72636377 -1.277159874 0)
(96.28990622 -1.210785425 0)
(95.13873849 -1.13777951 0)
(94.24914485 -1.055964813 0)
(93.59520538 -0.9630512182 0)
(93.07792031 -0.8366285479 0)
(92.78503419 -0.7132986287 0)
(92.50140894 -0.5342176064 0)
(92.36987483 -0.3894704157 0)
(92.28429455 -0.2347367928 0)
(92.24566529 -0.07939072784 0)
(108.4122669 -0.09256702891 0)
(108.3840192 -0.2736676969 0)
(108.316759 -0.4533340576 0)
(108.2024551 -0.620017908 0)
(108.0261019 -0.7504880717 0)
(107.7757035 -0.8939389885 0)
(107.3866594 -1.021635732 0)
(106.8815177 -1.125457597 0)
(106.1144384 -1.22120994 0)
(104.7748114 -1.281129708 0)
(100.1760071 -1.233683472 0)
(100.5883243 -1.328738849 0)
(99.36070749 -1.278792612 0)
(97.66743871 -1.218428709 0)
(96.22602473 -1.154322615 0)
(95.06804295 -1.084319888 0)
(94.16937386 -1.006234032 0)
(93.50388395 -0.9176835078 0)
(92.9721637 -0.7987012917 0)
(92.66606098 -0.6814040244 0)
(92.36666388 -0.5112059338 0)
(92.2275878 -0.3729723175 0)
(92.13743242 -0.2250484367 0)
(92.0960689 -0.07604141501 0)
(108.5533309 -0.09090947493 0)
(108.5229845 -0.2684470807 0)
(108.4510314 -0.4438107507 0)
(108.3309003 -0.6101703937 0)
(108.1677215 -0.7304819926 0)
(107.9030344 -0.8694538414 0)
(107.496921 -0.9937078289 0)
(106.9785302 -1.092084666 0)
(106.1916649 -1.184735018 0)
(104.792753 -1.241527781 0)
(100.164338 -1.197090423 0)
(100.5728771 -1.286542121 0)
(99.30546185 -1.236423646 0)
(97.61007496 -1.177212206 0)
(96.16430184 -1.114827412 0)
(95.00005409 -1.047008336 0)
(94.0928792 -0.9715789641 0)
(93.41638628 -0.8860732676 0)
(92.87094637 -0.7726057178 0)
(92.55238855 -0.6597022608 0)
(92.25957396 -0.5001004109 0)
(92.11601344 -0.3629300051 0)
(92.0224197 -0.219450479 0)
(91.97949388 -0.07424542557 0)
(108.8247966 -0.08884183219 0)
(108.7896078 -0.2635589637 0)
(108.7082335 -0.4354945546 0)
(108.5697433 -0.5941501217 0)
(108.3000368 -0.7201075799 0)
(108.02021 -0.8559094884 0)
(107.5991628 -0.9781315553 0)
(107.0728672 -1.071655835 0)
(106.2664009 -1.162036161 0)
(104.8088126 -1.217031058 0)
(100.1685658 -1.17684616 0)
(100.5544967 -1.261245656 0)