/*--------------------------------*- C++ -*----------------------------------*\
| =========                 |                                                 |
| \\      /  F ield         | OpenFOAM: The Open Source CFD Toolbox           |
|  \\    /   O peration     | Version:  v1912                                 |
|   \\  /    A nd           | Website:  www.openfoam.com                      |
|    \\/     M anipulation  |                                                 |
\*---------------------------------------------------------------------------*/
FoamFile
{
    version     2.0;
    format      ascii;
    class       volScalarField;
    location    "800";
    object      k;
}
// * * * * * * * * * * * * * * * * * * * * * * * * * * * * * * * * * * * * * //

dimensions      [0 2 -2 0 0 0 0];


internalField   nonuniform List<scalar> 
12556
(
36.829
36.8288
36.8289
36.8308
36.9166
36.9183
36.9196
36.9223
36.9273
36.9363
36.9494
36.9642
36.9749
36.9758
36.967
36.9534
36.9404
36.9309
36.9244
36.9208
36.833
36.8298
36.8291
36.8287
36.6491
36.6493
36.6497
36.6537
36.7326
36.7401
36.7473
36.7947
36.8093
36.8345
36.8712
36.9126
36.9433
36.9483
36.9259
36.8886
36.8513
36.8223
36.7634
36.7487
36.66
36.6526
36.6506
36.6496
36.4704
36.4708
36.4717
36.4776
36.5523
36.5656
36.5815
36.6335
36.6689
36.728
36.8118
36.8989
36.9548
36.9637
36.9245
36.8491
36.7659
36.6989
36.617
36.5855
36.4924
36.4795
36.4751
36.4733
36.2934
36.2939
36.2955
36.3038
36.3749
36.3955
36.4239
36.4905
36.5645
36.687
36.8337
36.9653
37.0476
37.0561
36.9939
36.8824
36.7466
36.617
36.4966
36.437
36.3321
36.3108
36.3028
36.2996
36.1181
36.1188
36.1215
36.1328
36.203
36.233
36.28
36.3712
36.5144
36.7181
36.9459
37.1667
37.3071
37.3044
37.1832
36.9992
36.7967
36.6037
36.4138
36.3078
36.1801
36.1466
36.133
36.1277
35.9447
35.9457
35.9498
35.9649
36.0365
36.0795
36.1541
36.2883
36.5179
36.8148
37.1956
37.6471
37.9778
37.8965
37.5876
37.2458
36.9264
36.646
36.3774
36.2029
36.0374
35.9868
35.9651
35.9568
35.7736
35.7753
35.7815
35.8012
35.8753
35.9352
36.0473
36.2413
36.558
36.99
37.6418
38.7868
39.5427
39.3625
38.3654
37.6704
37.1492
36.7405
36.3842
36.1245
35.9048
35.8314
35.799
35.7866
35.6058
35.6085
35.6175
35.6431
35.7217
35.8023
35.9593
36.2186
36.6233
37.2129
38.2218
40.4649
42.097
39.6576
38.2876
37.4638
36.8848
36.4153
36.071
35.7828
35.6815
35.6358
35.6183
35.4424
35.4464
35.4588
35.4914
35.5764
35.6809
35.8868
36.2085
36.6997
37.4277
38.687
41.9007
46.2727
41.2059
39.0277
37.8422
37.0662
36.463
36.037
35.6721
35.539
35.4778
35.4542
35.2844
35.29
35.3065
35.347
35.4399
35.5705
35.8256
36.2036
36.7757
37.6117
39.0191
42.2737
49.0644
42.5654
39.7562
38.2335
37.2621
36.5203
36.0162
35.5733
35.4061
35.328
35.2976
35.1326
35.1401
35.161
35.2102
35.3124
35.4703
35.7727
36.2025
36.8504
37.7799
39.3188
42.0608
50.4438
43.5842
40.3833
38.5933
37.4503
36.5782
36.003
35.4855
35.2843
35.1889
35.1511
34.9873
34.9967
35.0223
35.0808
35.1934
35.3789
35.7257
36.2057
36.9268
37.9524
39.6158
41.5796
50.9141
44.2669
40.8672
38.8917
37.6126
36.6287
35.9915
35.4064
35.1735
35.0614
35.0161
34.8481
34.8601
34.8912
34.9596
35.0816
35.2944
35.6826
36.2124
37.0068
38.1401
39.9135
40.9383
42.2753
50.477
44.6705
41.2002
39.113
37.736
36.6653
35.9752
35.3325
35.0718
34.9444
34.8922
34.7146
34.7287
34.7648
34.8422
34.9794
35.2222
35.6519
36.2379
37.1153
38.3806
40.254
39.2367
48.9319
50.4167
44.8403
41.3891
39.2542
37.8151
36.6834
35.9483
35.2599
34.9759
34.8354
34.7769
34.5852
34.6016
34.6423
34.7282
34.8769
35.1432
35.6069
36.2377
37.1899
38.5623
40.4269
32.9841
49.7664
49.8438
44.7595
41.4415
39.3168
37.8498
36.6786
35.9061
35.184
34.8822
34.7308
34.667
34.4588
34.4771
34.5222
34.6157
34.7754
35.0618
35.5538
36.2227
37.2407
38.6932
40.2148
28.3429
48.1631
48.8957
44.4951
41.3904
39.3085
37.8371
36.6395
35.8461
35.1016
34.7874
34.6269
34.5591
34.334
34.354
34.403
34.503
34.6727
34.976
35.4902
36.1883
37.2497
38.714
39.6618
24.5975
46.5976
47.9088
44.0704
41.2198
39.2299
37.7731
36.5664
35.7658
35.0106
34.6885
34.521
34.4502
34.2096
34.2311
34.2834
34.3889
34.5674
34.8842
35.415
36.1334
37.217
38.6218
38.8894
21.8459
45.1461
46.9809
43.6052
40.9714
39.0786
37.6588
36.4635
35.6659
34.9084
34.5828
34.4115
34.338
34.0848
34.1075
34.1626
34.2727
34.4585
34.7859
35.3287
36.0598
37.1486
38.4489
37.976
19.86
43.8095
46.1189
43.1444
40.6933
38.8889
37.5123
36.3389
35.5505
34.7968
34.4703
34.2964
34.2215
33.959
33.9827
34.0402
34.154
34.3458
34.6814
35.2324
35.9705
37.0514
38.2178
36.9979
18.4195
42.5762
45.313
42.703
40.4079
38.6806
37.3466
36.1985
35.4226
34.6766
34.3512
34.1758
34.1002
33.8321
33.8566
33.9159
34.0327
34.2295
34.5714
35.1279
35.8686
36.9308
37.9429
36.0102
17.3601
41.4334
44.5561
42.2839
40.1255
38.4649
37.17
36.0471
35.2851
34.5493
34.2261
34.0501
33.974
33.704
33.7291
33.7899
33.9092
34.1099
34.4566
35.0165
35.7565
36.7914
37.6333
35.0405
16.5675
40.3698
43.842
41.8835
39.8506
38.248
36.9878
35.8885
35.1406
34.4162
34.0959
33.9198
33.8434
33.5747
33.6003
33.6624
33.7838
33.9876
34.3379
34.8999
35.6365
36.6363
37.2953
34.1061
15.9635
39.3757
43.1654
41.4975
39.5845
38.0333
36.8035
35.7255
34.9914
34.2788
33.9616
33.7857
33.7092
33.4445
33.4706
33.5338
33.657
33.8632
34.2165
34.7794
35.5101
36.4678
36.9363
33.2174
15.4944
38.4429
42.5211
41.1231
39.3267
37.8225
36.6195
35.5603
34.8392
34.1381
33.824
33.6485
33.5719
33.3137
33.3401
33.4043
33.5292
33.7375
34.093
34.6559
35.3787
36.2873
36.5642
32.3797
15.1234
37.565
41.9053
40.7591
39.0757
37.6164
36.4372
35.3946
34.6854
33.9953
33.6842
33.509
33.4323
33.1824
33.2093
33.2743
33.4008
33.6108
33.9682
34.5305
35.2431
36.0958
36.1849
31.5945
14.8251
36.7364
41.3145
40.4042
38.8304
37.4148
36.2573
35.2292
34.5309
33.8511
33.5427
33.3678
33.291
33.051
33.0782
33.1441
33.2722
33.4836
33.8427
34.4038
35.1038
35.8945
35.8025
30.8611
14.5816
35.9526
40.7461
40.0576
38.5899
37.2176
36.0804
35.0651
34.3765
33.7061
33.4001
33.2256
33.1487
32.9197
32.9473
33.0139
33.1436
33.3563
33.7168
34.276
34.9612
35.6852
35.4197
30.1771
14.3805
35.2097
40.1977
39.7185
38.3535
37.0243
35.9063
34.9025
34.2227
33.5609
33.2571
33.0827
33.0056
32.7887
32.8166
32.8841
33.0153
33.2292
33.5909
34.1476
34.8154
35.4695
35.0387
29.5393
14.2128
34.5047
39.6677
39.3861
38.1209
36.8345
35.7352
34.7418
34.0698
33.4158
33.1139
32.9397
32.8623
32.6581
32.6864
32.7547
32.8875
33.1024
33.4653
34.0185
34.6666
35.249
34.6609
28.9441
14.0724
33.8349
39.1548
39.0598
37.8915
36.6479
35.5668
34.5831
33.9181
33.2711
32.9709
32.7967
32.719
32.5282
32.5568
32.6259
32.7603
32.9762
33.34
33.8889
34.5151
35.0249
34.2874
28.3876
13.9548
33.198
38.6576
38.7392
37.6651
36.4641
35.4012
34.4265
33.7677
33.1271
32.8283
32.654
32.576
32.3989
32.4279
32.4979
32.6338
32.8508
33.2152
33.7589
34.3611
34.7983
33.9192
27.8661
13.8569
32.5922
38.1754
38.4239
37.4415
36.2828
35.238
34.2719
33.6188
32.9839
32.6864
32.5119
32.4335
32.2706
32.2999
32.3708
32.5083
32.7262
33.0911
33.6285
34.205
34.5699
33.5566
27.3758
13.7764
32.0158
37.7073
38.1136
37.2202
36.1038
35.0772
34.1195
33.4714
32.8417
32.5453
32.3706
32.2918
32.143
32.1728
32.2446
32.3838
32.6025
32.9676
33.4977
34.047
34.3404
33.2002
26.9133
13.7118
31.4675
37.253
37.8081
37.0013
35.9269
34.9186
33.9691
33.3257
32.7006
32.4049
32.2299
32.1507
32.0174
32.0476
32.1204
32.261
32.4799
32.845
33.3667
33.8876
34.1104
32.8499
26.4755
13.6619
30.9462
36.8119
37.5074
36.7846
35.752
34.7621
33.8208
33.1816
32.5613
32.2667
32.0914
32.0117
31.8985
31.9291
32.0029
32.1449
32.3595
32.724
33.2362
33.7271
33.8803
32.5059
26.0592
13.6262
30.4508
36.3837
37.2113
36.5701
35.579
34.6077
33.6757
33.0404
32.4309
32.1369
31.9611
31.881
41.7859
46.6425
42.4678
42.2757
49.9632
47.1681
42.1063
51.4213
50.2311
41.651
51.917
51.5192
40.9868
40.516
41.909
51.9566
51.9392
39.7209
44.9261
40.7017
48.6263
52.161
51.8982
40.2006
39.4706
41.9327
39.3191
50.9607
44.2723
45.805
41.61
40.1771
38.9418
41.6439
41.1435
53.9933
55.5729
48.7999
43.3111
42.0738
39.2445
41.6792
41.6698
42.2382
43.5105
44.4705
51.9511
52.1222
50.3311
44.5453
43.664
39.5415
41.4814
41.6628
41.9027
40.1003
41.9613
52.3579
51.8302
39.8397
41.1425
41.4469
41.3448
35.629
37.8599
40.9851
53.4862
53.0254
40.1826
40.4562
41.0863
40.568
31.8415
33.1852
36.0772
45.3947
45.3657
45.692
46.8304
42.577
45.4052
55.5415
51.419
44.9026
50.0881
54.5574
44.5904
45.3387
42.2329
45.8307
44.6236
46.7809
45.9762
52.207
53.837
48.6044
54.377
53.2848
54.6804
54.4652
48.4222
42.1464
43.3506
42.2139
42.9963
41.3019
44.5408
43.1094
51.7679
51.9858
51.0387
53.3545
53.3379
53.2327
53.3665
50.8733
37.9818
39.9838
41.8442
39.0925
36.7544
41.1847
39.2185
52.954
52.4387
33.2865
35.4917
41.3041
42.8812
34.15
32.4445
36.6342
34.2812
43.8118
53.6537
53.545
40.5682
40.5729
31.7865
40.513
42.7246
32.279
63.1783
32.3685
32.234
42.3655
38.5879
41.0405
39.9137
41.1626
44.5255
42.1899
59.0177
48.9945
42.1845
45.4339
45.8909
46.2743
50.8942
45.349
44.7825
49.2411
45.5478
45.2144
45.0233
53.986
53.7602
45.8653
44.7631
41.3497
51.034
44.481
51.0391
43.7283
49.3715
44.2899
44.9394
42.8605
51.7999
53.4864
53.6146
53.3444
53.4633
51.743
39.5975
48.1345
41.0059
40.878
40.5568
42.1983
43.4901
41.1426
40.957
59.9463
48.245
58.5309
47.3739
57.2177
47.2459
55.1733
55.2703
51.8755
51.8898
42.24
45.2808
52.1309
42.9273
42.8671
46.5414
43.1244
52.0604
36.8648
40.7537
40.3911
46.9471
45.8931
47.6105
32.4674
38.4749
37.9597
39.1376
38.6483
32.5613
54.4246
51.4901
46.3821
51.6612
53.1178
48.4249
51.3663
46.5732
43.9198
48.8129
43.7969
52.8998
49.6135
44.3428
52.0151
54.4571
54.347
54.0867
45.3019
42.5116
45.2134
46.5009
45.3151
48.0073
42.79
44.9663
46.3809
52.9404
53.0566
53.8235
52.5603
52.0786
53.0244
52.6941
53.7459
55.0099
50.9565
50.0534
51.8897
51.2172
54.9951
42.2151
42.1035
43.9269
43.8357
52.2285
46.7577
52.1998
38.1701
37.9914
40.2284
40.0986
42.992
44.6113
52.6671
42.649
42.1144
34.5709
39.7376
39.2926
40.2664
39.8761
34.6978
39.6968
33.4749
33.3746
35.7874
35.6625
50.0146
39.9959
48.3211
47.2964
37.793
36.9161
33.0217
35.7763
39.4457
42.9046
31.9352
56.2876
43.7586
54.0495
31.8999
41.327
46.8094
40.6825
56.0821
40.8695
41.981
40.4119
39.3551
40.326
38.2622
32.0991
40.3341
50.1329
51.4743
52.0508
52.6345
42.5465
44.9394
49.5967
48.6502
40.1409
54.0596
54.0352
45.4044
42.5119
41.9754
43.9572
46.9504
42.5351
42.6356
54.5202
57.0899
56.4235
55.5342
51.8511
46.7495
46.8257
49.6034
48.939
51.9421
40.9674
42.3049
42.0532
42.6192
42.386
41.1207
41.1985
40.8691
36.9933
32.0571
35.149
34.7775
58.1341
44.0603
45.0052
55.2281
57.8029
57.2991
52.3945
48.0977
46.6755
49.7072
48.5341
52.7743
52.4954
50.5888
49.8828
53.4541
42.6799
42.9019
42.6929
38.2284
38.6436
41.6487
46.8108
46.6557
52.0768
53.3322
53.5266
53.4934
53.0436
53.3156
53.112
53.4724
53.3659
53.0316
39.0026
41.6009
41.3028
41.9664
41.6956
39.1454
38.7158
34.8022
35.0839
33.6719
33.7807
37.1594
40.794
37.5058
38.0874
35.1853
35.5098
39.5963
52.7394
44.8727
47.1267
52.0248
40.9135
33.8422
32.7603
36.2738
33.4643
33.6294
33.0991
34.9399
47.9575
38.0365
36.0614
35.0238
34.6579
34.2848
31.6778
40.2112
38.6166
43.7535
32.3887
66.2579
40.3661
39.2595
43.9072
32.1573
32.1335
55.9871
55.1992
54.6117
46.958
46.8998
40.4681
40.658
49.7071
49.6836
49.2513
46.9438
55.7799
47.4384
57.1031
47.9748
44.6894
42.4573
43.5902
46.1568
47.9937
47.7323
43.8098
39.8698
48.5513
52.4732
43.708
47.2399
54.2562
40.6009
42.7473
39.1735
40.1136
52.4721
60.4756
55.0634
52.4494
57.5372
55.7584
51.4787
48.4344
53.9626
55.1401
54.7681
54.7155
55.4875
56.1779
55.3886
47.5693
46.8662
51.8474
48.0426
48.4802
46.6618
47.8257
48.5321
51.9179
48.6905
47.84
42.9678
43.3635
42.6197
48.0797
47.4056
44.6565
46.4692
45.9844
47.1372
46.635
44.1594
43.9365
40.9516
40.5284
35.7386
35.2685
32.1401
32.8206
36.253
35.8745
53.3155
52.8604
52.4992
49.1035
49.2956
48.3449
48.9646
52.7539
49.9294
49.0817
48.7608
49.2855
49.1463
50.3846
51.9854
47.2367
48.1026
54.2306
54.4012
57.8327
57.6438
55.0309
58.551
58.8876
58.6376
58.4174
57.9814
59.0009
58.6104
53.0903
57.3876
57.9113
41.4639
45.2784
44.3372
46.0468
45.5048
41.7225
43.3383
42.8373
44.0807
43.5095
46.4056
48.0162
47.5394
48.6212
48.1713
46.7929
43.6853
46.7197
46.2161
47.3774
46.8857
43.9907
51.5234
50.8264
52.601
53.3606
52.4835
51.7348
38.1978
37.7768
38.8536
38.3453
37.0981
36.7178
37.6391
37.2301
42.0211
41.5266
42.6747
42.1852
40.5053
39.1132
41.3601
40.7944
45.4192
45.3495
45.8639
45.5287
47.1049
45.5263
46.3426
45.3564
45.3671
34.4154
34.7114
38.5892
34.0938
33.8468
34.3916
34.1718
33.7761
37.3392
33.8195
34.2827
36.1541
37.1287
40.643
35.8155
35.1773
36.5925
36.1238
34.7337
34.4728
35.0888
34.8231
39.7216
35.6245
35.9998
47.9599
42.1908
47.8077
45.8658
47.6481
42.1108
52.5743
40.4645
52.2043
49.6757
33.7507
32.919
33.2358
33.4052
36.1526
35.1868
33.0916
33.1886
49.6929
31.6869
34.134
33.2141
61.3812
63.5818
32.485
62.0405
55.65
40.9601
32.0894
56.5616
47.0464
62.4339
48.4564
32.147
41.6119
39.7253
38.5847
49.6002
49.1883
50.9493
45.8174
45.4949
48.9705
40.0344
42.8869
40.746
53.6351
53.8404
51.9746
44.2348
43.4992
47.016
54.1657
44.3696
44.4508
40.6127
41.0377
43.1213
49.6217
53.8228
55.722
43.9537
43.3504
43.2035
43.5058
43.3934
44.0893
42.2205
41.3181
42.9865
47.4169
48.3022
53.2311
36.741
36.3755
32.9115
56.2268
57.0944
52.6945
43.1485
42.9673
42.8522
42.6597
39.9339
40.4455
40.6949
41.6919
43.4445
33.7633
37.2635
36.8648
46.8989
45.7237
42.1161
32.5222
32.4905
32.5307
44.9335
49.9678
48.4017
39.8576
43.2119
42.5002
32.3056
32.2987
32.5807
32.5598
32.1995
58.3597
46.8359
43.6934
44.6789
49.8706
40.9049
40.8202
45.9017
50.5637
46.1715
44.6222
47.0512
43.989
41.9512
41.049
54.0023
54.2208
54.8415
51.4971
53.4029
42.0302
42.4104
45.7807
59.0932
57.2423
56.4167
60.8802
60.2076
42.4208
44.4168
43.7725
46.7836
46.6742
44.4436
48.7647
48.2689
42.6199
46.1531
43.7364
43.9546
46.1057
42.0691
42.8063
54.1288
54.9563
51.9427
51.9475
51.2486
51.0799
48.832
49.3174
49.0174
50.8996
50.708
51.0588
45.9797
46.9425
51.6299
53.1402
56.3195
54.9468
55.4815
55.8922
54.479
40.9021
41.8586
41.6181
44.5165
44.2685
42.2403
39.8772
39.6639
41.3569
41.0894
45.6777
47.1268
46.8553
48.7414
48.4732
47.5956
43.0778
45.0194
44.7661
46.5853
46.3178
44.6282
39.3547
39.786
42.5498
41.7623
38.7844
39.212
42.5922
43.042
44.197
38.3167
38.1424
39.4633
39.2631
37.1656
37.9731
37.8089
43.5464
41.9275
42.4395
47.0848
47.1648
44.2611
44.6291
46.8817
47.1868
47.342
52.1029
46.6709
46.9813
37.7805
37.4
34.0037
35.0372
38.2251
37.8955
32.5925
32.6607
33.5692
33.2589
32.4638
32.5261
50.2959
32.1481
31.9538
32.113
103.497
33.678
40.4378
54.0093
50.8892
32.4978
32.5089
31.9787
57.0851
58.3723
58.2233
51.8
31.8842
32.4769
32.4848
43.5168
38.984
39.078
49.0003
49.6881
45.3671
44.4858
41.5292
55.1894
55.7192
57.2142
43.2363
47.9637
46.5985
48.4006
48.3774
44.0193
43.6173
44.1989
52.179
53.8277
54.0559
53.3215
53.5877
56.8751
56.3163
56.5035
55.9308
56.1251
56.6385
49.419
48.9093
49.1152
48.6488
48.7433
49.2037
57.634
56.9634
57.0135
56.684
56.845
57.4821
50.3061
49.8102
50.0563
49.3397
49.5716
50.1176
52.8343
53.0582
52.3774
52.5804
34.8924
36.2749
36.164
33.7089
34.1702
34.0706
34.4025
34.2786
33.7454
51.2776
51.2918
48.9703
50.6724
32.927
32.9281
32.9351
32.93
32.9734
32.6306
32.4744
32.4905
33.5234
33.7945
33.7056
33.9767
33.885
33.5795
32.9565
32.942
33.0107
32.9951
33.3032
50.6463
50.4795
46.2498
51.1215
32.9607
32.1483
41.5355
31.7015
32.2058
32.1329
32.3282
66.4914
65.9146
64.4289
65.3478
61.5849
32.5531
32.5774
32.2287
32.1639
57.8043
58.9578
57.6293
56.7821
55.7142
53.1065
58.2011
56.8475
47.0323
46.9715
49.8605
45.8149
47.3318
50.1169
48.6411
54.3761
49.7837
51.6586
56.7365
57.3573
53.4177
55.9773
58.3747
47.4874
48.3363
47.9482
50.2185
53.3727
53.6029
51.9459
44.8117
50.9611
48.916
53.6343
52.9802
46.0236
48
49.5382
54.7604
50.7557
45.4332
46.6178
59.0743
57.9392
59.5993
56.8726
58.5168
59.4398
59.8546
59.4762
54.8813
54.6364
54.8638
54.2593
54.4152
54.6954
55.9144
55.5178
55.7281
55.0851
55.3033
55.6597
47.3068
48.5264
48.6177
48.2059
48.3706
47.0321
47.9279
47.8125
47.5089
48.7577
49.0487
48.3533
48.6905
48.6428
48.6932
48.7228
48.1032
46.3588
45.3143
42.6559
47.1691
47.3834
47.2229
43.8468
46.8335
46.818
43.4997
43.5969
45.3379
53.7482
52.3974
50.0242
49.6529
49.1877
50.7388
50.5062
50.2888
56.5744
56.5018
53.8676
57.7806
58.0675
54.47
56.2591
56.5067
57.7337
56.9151
56.8739
56.9752
56.9428
57.6604
58.6655
58.7458
58.3287
59.9259
59.931
59.646
59.8232
58.2146
59.0786
59.9404
60.2426
59.1148
43.3753
42.8041
41.2131
41.9803
44.0173
43.7403
40.335
40.1014
40.8294
40.5779
47.6649
47.3958
46.0366
47.1907
48.2051
47.9353
45.5363
45.277
43.3779
44.3017
46.0538
45.7943
51.2968
50.8242
51.0906
50.3059
50.5613
51.023
52.2284
51.8808
52.1036
51.3618
51.63
52.0012
38.0547
36.7731
36.9126
36.4991
36.6361
37.9152
38.6638
37.3644
37.5248
37.0567
37.2069
38.4991
36.9689
35.7246
35.8425
35.4979
35.6105
36.8424
37.5019
36.2264
36.3624
35.9651
36.0933
37.365
38.6807
38.4961
41.8566
40.3479
40.5235
40.0004
40.1735
41.6918
39.0642
38.87
37.3503
37.2282
40.0641
38.555
39.0038
37.6833
37.8394
39.5126
41.1898
39.6553
39.8281
39.2778
39.4777
41.0079
37.6502
37.4969
46.3416
46.8147
46.9334
45.0655
45.6418
45.7634
47.5729
47.4618
47.7605
47.6924
46.0426
45.3307
46.1709
45.6742
47.2089
46.7968
45.3123
34.5208
35.8109
35.6592
36.0525
35.9369
34.6178
34.0107
33.9266
34.3151
34.2448
33.7498
33.9033
33.8769
34.8102
34.5652
35.4517
35.1435
34.0928
35.3694
35.0731
35.0089
35.2681
36.4629
35.2761
35.3862
35.0728
35.1709
36.3183
34.6448
34.5576
35.0007
34.9121
47.735
43.2398
43.8591
42.2169
42.6895
47.1888
46.8132
47.3532
44.5932
45.6223
47.5478
52.2875
46.1002
47.3549
43.8475
44.9582
51.6183
32.873
32.8341
32.9211
32.9039
32.3846
32.4102
33.1128
32.7175
32.7327
32.7924
32.7521
33.2895
33.453
33.3744
33.6188
33.5346
33.3467
33.121
33.1619
33.0911
33.2996
33.229
33.149
50.3375
32.0564
31.9613
31.7723
59.7588
77.7805
79.0174
71.787
73.9827
61.5989
32.776
59.6804
51.6343
53.2594
32.0295
32.5144
32.5297
56.9873
59.5304
59.9628
54.9908
57.271
62.3525
59.8986
50.0565
57.5838
55.3947
32.7758
32.5285
31.9295
36.6724
36.6925
36.8037
36.7013
36.7356
36.8251
36.7497
36.8005
36.8584
36.8192
36.8771
36.8997
36.8946
36.9369
36.9358
36.946
36.9566
36.9499
36.9544
36.9315
36.9354
36.9188
36.8702
36.9011
36.8524
36.7989
36.8625
36.7825
36.7391
36.8305
36.5242
36.5674
36.6582
36.5861
36.6594
36.7108
36.6894
36.7885
36.7894
36.8212
36.9129
36.8793
36.9394
37.0006
36.945
37.0135
37.0267
36.9662
37.0226
36.9868
36.9383
36.968
36.8955
36.8699
36.8674
36.776
36.7856
36.7444
36.657
36.7137
36.3982
36.4841
36.542
36.5216
36.6564
36.6518
36.7045
36.8556
36.7973
36.9069
37.0542
36.9357
37.098
37.1982
37.0334
37.2181
37.231
37.0612
37.2204
37.1527
37.0151
37.1206
37.0047
36.9134
36.9605
36.8229
36.7819
36.7773
36.6443
36.6463
36.3055
36.4532
36.4707
36.513
36.7095
36.6647
36.7829
37.0282
36.8876
37.1173
37.3962
37.1156
37.4869
37.7035
37.2843
37.7429
37.7359
37.3184
37.6972
37.5267
37.2212
37.4593
37.2423
37.0495
37.1692
36.9545
36.847
36.8856
36.6914
36.6509
36.2501
36.465
36.4535
36.545
36.8283
36.7333
36.9399
37.3451
37.0919
37.5105
38.1397
37.5323
38.3997
39.1659
37.9276
39.2403
39.0512
37.9522
38.8694
38.2967
37.6726
38.1252
37.6771
37.3301
37.5453
37.191
37.003
37.0846
36.7977
36.7122
36.2227
36.499
36.4716
36.6054
36.9953
36.8668
37.1557
37.788
37.448
38.078
39.69
38.4289
39.198
39.9056
38.9445
40.7101
40.6811
39.577
40.021
39.5784
39.0924
39.2927
38.3536
37.8237
38.117
37.5382
37.2677
37.3772
36.9632
36.8338
36.2103
36.5469
36.51
36.6804
37.1724
37.0404
37.3769
38.1997
37.901
38.3562
38.7918
38.621
40.7164
41.3906
41.0662
43.729
42.1021
41.0418
40.8226
39.2135
38.5571
38.8387
37.9732
37.6409
37.7444
37.1763
37.0131
36.2045
36.5989
36.5598
36.7569
37.3319
37.2142
37.568
38.5053
38.2845
38.7776
39.2996
39.1944
42.0083
42.9463
42.8261
47.4924
44.8187
43.8742
42.2562
40.0851
39.4373
39.5814
38.435
38.0887
38.1374
37.411
37.2341
36.2025
36.6519
36.6121
36.8317
37.4769
37.369
37.7381
38.7654
38.5718
39.0949
39.6729
39.5836
42.2677
43.0692
43.1409
49.7245
46.6373
46.0823
43.3626
40.8379
40.2872
40.2388
38.8652
38.547
38.5082
37.6405
37.4697
36.2045
36.7071
36.6654
36.9074
37.6211
37.5125
37.908
39.031
38.8301
39.393
39.9957
39.9209
42.0114
42.3442
42.5173
50.7043
47.5593
47.2923
44.1247
41.4205
41.0008
40.7602
39.226
38.963
38.8239
37.843
37.6943
36.2105
36.7661
36.7215
36.9865
37.7746
37.6585
38.0917
39.3194
39.101
39.6934
40.3804
40.2005
41.5047
41.2063
41.4537
50.9502
48.6127
48.5081
44.592
41.8234
41.5379
41.131
39.4978
39.3027
39.0652
38.0029
37.8872
36.2356
36.851
36.7814
37.0939
37.9729
37.8147
38.3296
39.6745
39.3944
39.989
40.6564
40.5684
40.7832
39.5229
39.8969
43.4534
50.8249
49.8923
50.491
46.0111
45.8898
44.8177
42.0585
41.8972
41.3548
39.6758
39.5509
39.2263
38.1122
38.0349
36.239
36.9102
36.8677
37.1724
38.1306
38.015
38.5205
39.9335
39.7482
40.3211
40.7735
40.8144
39.0255
35.574
36.5571
49.279
53.5869
54.0109
50.039
45.9224
46.0221
44.7949
42.1337
42.0934
41.4411
39.7636
39.7063
39.3096
38.1703
38.1313
36.2282
36.9482
36.9222
37.2316
38.2557
38.1656
38.6671
40.0115
39.9766
40.3072
36.1526
38.6298
29.4428
42.4584
42.9385
48.5676
50.2859
51.1982
49.1443
45.6034
45.867
44.5833
42.082
42.1296
41.4109
39.7662
39.7704
39.3156
38.1724
38.1751
36.1989
36.954
36.953
37.2516
38.3143
38.2798
38.7209
39.7927
39.9815
39.8238
32.8081
35.298
25.4338
41.4463
42.227
46.9789
49.069
49.9761
48.1513
45.0941
45.4859
44.1833
41.9006
42.0517
41.2725
39.6981
39.7575
39.2581
38.1243
38.1658
36.149
36.925
36.95
37.2288
38.2801
38.3136
38.6534
39.3727
39.703
39.0985
29.7881
32.0167
22.4523
40.3404
41.172
45.4978
47.936
48.7772
47.2064
44.5434
44.9571
43.722
41.6246
41.8372
41.0376
39.5448
39.6661
39.1211
38.0153
38.1019
36.0798
36.8651
36.9128
37.1687
38.1738
38.2595
38.4983
38.8198
39.2452
38.2134
27.1832
29.0974
20.2976
39.2512
40.0646
44.1335
46.8901
47.6667
46.3288
44.005
44.4067
43.2581
41.3157
41.5491
40.7641
39.3457
39.4981
38.9386
37.8671
37.9811
35.9942
36.7798
36.846
37.0781
38.0133
38.1382
38.2801
38.1722
38.6654
37.2448
24.9821
26.5966
18.7384
38.2103
38.9859
42.8756
45.9221
46.6411
45.5097
43.4943
43.8745
42.8113
41.0007
41.2369
40.4793
39.1255
39.2919
38.7337
37.6962
37.826
35.8951
36.6738
36.755
36.9629
37.8117
37.9664
38.0152
37.4677
37.9998
36.2563
23.1365
24.4895
17.5962
37.2247
37.9587
41.7113
45.0223
45.6912
44.7411
43.0117
43.3712
42.3868
40.6909
40.9225
40.1955
38.8976
39.0689
38.5191
37.513
37.6512
35.7854
36.5512
36.6446
36.8278
37.5778
37.7559
37.7136
36.7414
37.2871
35.2802
21.5914
22.7242
16.7454
36.2933
36.9869
40.6288
44.1808
44.8068
44.0168
42.5512
42.8947
41.9821
40.3912
40.615
39.9185
38.6689
38.8403
38.3021
37.3238
37.466
35.6672
36.415
36.5184
36.6763
37.3176
37.5151
37.3821
36.0138
36.5591
34.3357
20.2956
21.2459
16.1001
35.4126
36.0686
39.6181
43.3893
43.9785
43.3313
42.1083
42.439
41.5928
40.1024
40.318
39.6502
38.4432
38.6121
38.0866
37.1328
37.2762
35.5422
36.2673
36.3791
36.5111
37.035
37.249
37.0275
35.2965
35.8331
33.4349
19.2054
20.0054
15.6013
34.579
35.2
38.6707
42.6407
43.1983
42.6794
41.6803
41.9999
41.2157
39.823
40.0318
39.3905
38.2224
38.3875
37.8748
36.9425
37.0851
35.412
36.1097
36.2288
36.3335
36.7344
36.9613
36.6581
34.5978
35.1198
32.5842
18.2845
18.9606
15.2085
33.7888
34.3774
37.7797
41.9294
42.4595
42.0568
41.2657
41.5754
40.8492
39.5512
39.7544
39.1379
38.0069
38.168
37.6675
36.7543
36.8952
35.2773
35.943
36.0689
36.1446
36.4213
36.6571
36.2802
33.923
34.4267
31.7859
17.5035
18.0772
14.894
33.0391
33.5977
36.9392
41.2509
41.7568
41.46
40.8631
41.164
40.4921
39.2855
39.4842
38.8913
37.7964
37.9538
37.4648
36.569
36.7076
35.139
35.7678
35.9
35.9457
36.1002
36.3416
35.8982
33.2753
33.7585
31.0397
16.8387
17.3273
14.6381
32.3273
32.8577
36.1445
40.6018
41.086
40.8862
40.4713
40.7642
40.1435
39.0252
39.22
38.6496
37.5906
37.7446
37.2665
36.387
36.5232
34.9972
35.5851
35.7228
35.7382
35.7744
36.0191
35.5153
32.6562
33.1179
30.3437
16.2709
16.6883
14.4273
31.6513
32.1551
35.3918
39.979
40.4437
40.333
40.0891
40.3749
39.8026
38.7694
38.9608
38.4122
37.3889
37.5399
37.0723
36.2084
36.3421
34.8522
35.3959
35.5384
35.524
35.4463
35.6925
35.1337
32.066
32.506
29.6947
15.7848
16.1423
14.252
31.0089
31.4876
34.6776
39.3802
39.8271
39.7986
39.7156
39.9949
39.4686
38.5178
38.7062
38.1787
37.1909
37.3391
36.8817
36.0329
36.1642
34.7041
35.2014
35.3477
35.3045
35.1177
35.3641
34.7549
31.5041
31.9229
29.0892
15.3678
15.6745
14.1052
30.3985
30.8533
33.9992
38.8036
39.234
39.2815
39.3501
39.6235
39.1408
38.2699
38.4555
37.9486
36.996
37.1419
36.6943
35.8605
35.9895
34.5532
35.0026
35.1521
35.0812
34.7899
35.0356
34.3803
30.9694
31.3679
28.5233
15.0097
15.2731
13.9822
29.8186
30.2507
33.3542
38.2475
38.6627
38.7804
38.992
39.2599
38.8188
38.0254
38.2085
37.7215
36.804
36.9478
36.5098
35.6909
35.8178
34.3998
34.8006
34.9524
34.8551
34.4639
34.7082
34.0107
30.4604
30.8398
27.9934
14.7024
14.9284
13.8796
29.2679
29.6783
32.7408
37.7109
38.1116
38.2946
38.6407
38.9035
38.5022
37.7839
37.9647
37.4971
36.6146
36.7564
36.3279
35.5239
35.6489
34.2442
34.596
34.7497
34.6271
34.1405
34.3828
33.6467
29.9754
30.337
27.4956
14.4388
14.6326
13.795
28.7451
29.1346
32.1572
37.1926
37.5796
37.823
38.296
38.554
38.1907
37.5452
37.7239
37.2753
36.4275
36.5676
36.1483
35.3593
35.4825
34.0867
34.3897
34.5446
34.3978
33.8202
34.0601
33.2887
29.5125
29.8576
27.0265
14.2135
14.3791
13.7265
28.2493
28.6187
31.6021
36.6918
37.0658
37.3653
37.9576
38.2108
37.8841
37.3091
37.4859
37.0558
36.2425
36.3811
35.971
35.197
35.3185
33.9276
34.182
34.3378
34.1679
33.5034
33.7407
32.9369
29.0698
29.4
26.5828
14.0215
14.1625
13.6731
27.7795
28.1294
31.074
36.208
36.5693
36.9209
37.6253
37.874
37.5821
37.0756
37.2505
36.8386
36.0595
36.1966
35.7955
35.0368
35.1568
33.7673
33.9735
34.1299
33.9378
33.1904
33.4248
32.5913
28.6455
28.9621
26.1614
13.8588
13.9782
13.6338
27.335
27.6661
30.5723
35.7406
36.0896
36.4895
37.299
37.5432
37.2849
36.8445
37.0176
36.6235
35.8783
36.014
35.622
34.8786
34.9971
33.6156
33.776
33.9214
33.7196
32.8934
33.1128
32.2634
28.2451
28.5421
25.7649
13.7226
13.8224
13.6084
26.9201
27.2278
30.103
35.3012
35.6262
36.0837
36.9921
37.2184
37.0055
36.6283
36.7872
36.4225
35.7101
35.8334
35.4612
34.7327
34.8394
42.6956
42.5506
41.6587
46.0866
47.538
48.6427
42.78
43.4703
43.0679
43.1605
43.1998
42.2735
49.6655
51.6764
52.0534
48.9755
49.8616
47.6639
42.5717
42.7249
42.1474
51.3106
52.8365
52.8898
52.1596
52.426
50.471
41.5319
41.7552
41.7187
51.8858
52.839
52.8576
52.6212
52.6793
51.6036
40.0154
40.3532
41.1298
40.3609
39.4638
39.5155
44.559
44.1554
41.5707
51.9762
53.8801
53.9806
52.8711
52.8839
51.9568
36.8219
37.4668
39.9762
44.079
38.5904
38.7684
40.2351
39.3144
40.4735
51.7575
51.5577
46.7273
51.7383
54.0481
53.9424
54.0073
54.0506
51.7685
41.8552
40.2873
39.4237
52.4042
49.9229
55.651
39.1784
40.1447
40.6192
53.3486
53.2454
41.4488
41.6787
42.1911
39.4951
40.5832
40.2522
50.4927
51.4871
52.1144
44.9559
46.138
45.2431
43.5368
42.4638
44.2724
41.1325
41.9195
42.4972
40.763
41.3349
40.6504
39.4919
39.3978
38.8618
41.5003
39.918
40.0887
39.6736
39.8598
41.4213
54.159
53.6002
53.3472
56.1579
56.062
55.5789
45.8642
45.1025
47.8531
42.928
44.0681
44.5168
43.0545
43.5805
42.5151
39.8421
39.7593
39.1699
41.7057
40.3327
40.4447
40.1422
40.2889
41.7058
42.9401
43.0407
42.2561
43.6653
43.6663
43.5599
44.2159
44.1334
44.3473
51.9053
50.3485
50.4015
50.6104
50.4849
52.0467
47.181
46.795
49.9028
44.2806
45.6164
45.9033
44.9242
45.2909
43.9875
40.1351
40.0669
39.4672
41.5713
40.585
40.6505
40.4773
40.5597
41.5973
42.0948
42.2837
41.9585
40.4543
41.5907
41.4401
42.4454
42.3053
41.7672
52.2805
50.3227
50.4796
48.0892
48.5459
51.9008
40.5373
40.4284
39.7668
41.2929
40.7256
40.784
40.6714
40.7075
41.3351
40.8511
41.1198
41.4289
36.2075
38.7128
38.6849
39.9102
39.7236
37.4924
40.0641
40.1634
41.5126
53.2976
48.5924
49.4402
51.8087
51.9471
53.0965
40.7939
40.6856
40.0806
40.8419
40.8735
40.9258
40.8025
40.8562
40.9074
38.9877
39.3919
40.7313
31.9064
32.5174
32.4296
34.4124
34.2982
33.093
28.0404
30.8419
37.7996
45.132
41.5094
36.9913
38.7106
38.727
44.5349
45.944
47.7651
46.9653
48.2336
48.4192
46.8208
42.9972
43.4731
42.9391
46.5526
46.1376
45.0829
55.4812
56.293
56.2383
52.6793
53.181
51.8644
45.84
47.1366
45.5038
50.7772
49.3824
48.7711
52.1744
51.7929
53.9875
44.9348
43.6265
43.5386
43.7642
43.6546
45.0419
42.2635
43.1977
43.0419
45.6808
45.7675
46.1897
43.7757
44.2172
44.8745
46.7051
47.8252
48.1423
46.324
46.7207
46.1171
52.2975
50.8998
50.7508
53.102
52.8801
53.6914
51.0121
51.5306
49.1088
54.1309
54.037
53.931
54.3077
54.3053
53.4619
54.9205
52.8229
52.517
53.8874
53.7591
54.744
47.8559
50.1236
50.8151
42.3268
42.714
42.5813
43.4491
43.3346
43.1875
42.1834
42.7722
42.9016
42.8824
42.372
42.5119
40.5485
40.6802
41.4188
44.2834
43.1903
43.6302
42.6594
42.8129
43.2248
51.7146
47.5077
47.9456
50.4458
50.4856
52.0202
52.7137
52.8133
51.1834
53.3434
54.1634
54.1902
53.5259
53.5295
53.3338
53.114
54.298
54.3049
54.217
54.2431
53.008
50.685
52.4973
52.6708
38.3705
40.274
40.0933
41.2864
41.1301
39.6352
41.783
41.8261
42.0297
38.9668
37.7916
37.9172
35.3417
35.4548
36.8779
41.0623
40.2734
40.4143
38.0433
38.1696
39.3445
52.8827
51.5245
51.6675
50.6423
50.7903
52.5178
33.4061
34.6745
34.5349
38.6115
38.3288
35.1464
41.174
40.459
40.7573
34.0388
33.0213
33.1146
36.5146
35.1262
35.2333
33.22
33.3486
34.4515
53.5422
50.7448
51.4562
49.715
50.4956
53.7078
40.2489
40.0506
40.0299
44.0974
31.8203
31.7742
32.3502
32.2767
31.7397
40.2211
38.1314
38.8516
40.3636
40.6399
43.0744
63.1747
62.1168
67.4001
42.0169
39.8676
40.1015
39.0775
38.9444
38.4782
40.6591
39.3742
39.6067
39.0005
39.2874
40.4998
41.9589
41.6923
40.9513
43.6602
42.3205
42.7874
41.7683
42.1521
43.3137
50.9261
53.3585
51.115
43.0477
43.0235
42.1076
45.6901
43.8387
43.7887
43.6797
43.8346
45.7612
48.3786
47.6335
50.77
45.1821
46.5653
46.7339
46.1548
46.3748
44.9937
45.2184
40.9318
41.5397
43.1274
43.4006
45.4522
51.7218
51.0965
43.8508
53.922
52.872
53.0576
51.6646
52.6685
53.8457
45.5112
43.3591
43.6086
42.9203
43.2647
45.3501