/*--------------------------------*- C++ -*----------------------------------*\
| =========                 |                                                 |
| \\      /  F ield         | OpenFOAM: The Open Source CFD Toolbox           |
|  \\    /   O peration     | Version:  v1912                                 |
|   \\  /    A nd           | Website:  www.openfoam.com                      |
|    \\/     M anipulation  |                                                 |
\*---------------------------------------------------------------------------*/
FoamFile
{
    version     2.0;
    format      ascii;
    class       volScalarField;
    location    "800";
    object      nut;
}
// * * * * * * * * * * * * * * * * * * * * * * * * * * * * * * * * * * * * * //

dimensions      [0 2 -1 0 0 0 0];


internalField   nonuniform List<scalar> 
12556
(
1.15562
1.15558
1.15553
1.15552
1.15589
1.15591
1.15593
1.15597
1.15603
1.15615
1.15633
1.15652
1.15666
1.15667
1.15656
1.15638
1.15621
1.15608
1.15599
1.15595
1.15555
1.15554
1.15558
1.15562
1.15486
1.15476
1.15466
1.15463
1.15492
1.15501
1.1551
1.15537
1.15557
1.15592
1.15642
1.15699
1.15741
1.15748
1.15719
1.15668
1.15616
1.15576
1.15533
1.15513
1.15473
1.1547
1.15478
1.15487
1.15407
1.15391
1.15377
1.15375
1.15399
1.15414
1.15435
1.1547
1.15521
1.15604
1.15721
1.13005
1.03496
1.03184
1.11096
1.15772
1.15656
1.15562
1.15488
1.15443
1.15396
1.15388
1.15397
1.15411
1.15326
1.15305
1.15288
1.15287
1.15309
1.15333
1.15372
1.15428
1.15535
1.15709
0.960845
0.780878
0.705518
0.716329
0.797553
0.948244
1.15788
1.15609
1.15477
1.15392
1.15327
1.1531
1.15317
1.15335
1.15244
1.15218
1.152
1.15201
1.15225
1.15262
1.15327
1.15423
1.15629
0.934017
0.656722
0.490256
0.420454
0.440951
0.528813
0.670344
0.882524
1.15748
1.15519
1.15368
1.15267
1.15235
1.15238
1.15257
1.15162
1.15132
1.15113
1.15118
1.15147
1.15202
1.15309
1.1547
1.09349
0.712921
0.449042
0.278438
0.208397
0.239884
0.333816
0.471263
0.662949
0.947094
1.15625
1.15377
1.1522
1.15164
1.15158
1.15177
1.1508
1.15047
1.15029
1.1504
1.15076
1.15156
1.15319
1.15569
0.94752
0.588692
0.330853
0.142319
0.0743549
0.114484
0.211734
0.342314
0.518183
0.770342
1.1532
1.15425
1.15187
1.15098
1.15078
1.15095
1.15
1.14966
1.14949
1.14968
1.15014
1.15125
1.15356
1.15701
0.887619
0.567393
0.329115
0.125518
0.0625497
0.154589
0.272087
0.432426
0.659024
1.02773
1.15507
1.15168
1.1504
1.15002
1.15014
1.14925
1.14889
1.14876
1.14905
1.14963
1.15111
1.15417
1.15846
0.895733
0.633345
0.476546
0.372067
0.0708189
0.145263
0.247096
0.39238
0.597993
0.946286
1.15616
1.15166
1.14991
1.14931
1.14937
1.14855
1.14819
1.1481
1.1485
1.14924
1.15112
1.15493
1.15992
0.932653
0.722765
0.659037
0.707117
0.095992
0.160073
0.252309
0.386583
0.576754
0.905367
1.1574
1.1518
1.14955
1.14872
1.1487
1.14793
1.14756
1.14752
1.14805
1.14896
1.15128
1.1558
1.16138
0.965819
0.777681
0.738154
0.605725
0.129771
0.189516
0.2785
0.407179
0.587247
0.899296
1.1587
1.15211
1.14936
1.14828
1.14818
1.14737
1.14701
1.14703
1.1477
1.1488
1.15156
1.15674
1.16283
0.985185
0.784095
0.698213
0.498897
0.165249
0.232023
0.324222
0.452283
0.626639
0.923956
1.16
1.15256
1.14933
1.14802
1.14784
1.14689
1.14654
1.14663
1.14745
1.14874
1.15194
1.15773
1.16426
1.0038
0.77342
0.615357
0.419091
0.042344
0.212283
0.29647
0.397032
0.526125
0.696741
0.978722
1.16122
1.15308
1.14944
1.14792
1.14767
1.14647
1.14613
1.14628
1.14725
1.1488
1.15248
1.15886
1.16574
1.0463
0.794101
0.57771
0.217152
0.0977025
0.314625
0.411425
0.513568
0.638185
0.802522
1.06657
1.1623
1.15362
1.14964
1.14795
1.14764
1.14611
1.14577
1.14598
1.14709
1.14885
1.1529
1.15977
1.16688
1.1552
0.897537
0.676706
0.0425733
0.147379
0.504032
0.626344
0.698785
0.801743
0.950874
1.16716
1.16317
1.15412
1.14988
1.14806
1.14771
1.14578
1.14544
1.1457
1.14693
1.14889
1.15329
1.16054
1.16774
1.16681
1.1065
0.756584
0.0324583
0.164174
0.521067
0.814044
0.98008
1.03042
1.15531
1.16803
1.16379
1.15453
1.15012
1.1482
1.14782
1.14547
1.14513
1.14543
1.14676
1.14891
1.15359
1.16112
1.16825
1.166
1.10829
0.629198
0.0293054
0.17781
0.532756
0.822769
1.01641
1.11503
1.15657
1.16842
1.16413
1.15482
1.15031
1.14833
1.14795
1.14518
1.14483
1.14515
1.14657
1.14887
1.15379
1.16149
1.16839
1.16414
1.08509
0.518755
0.0283418
0.189164
0.539419
0.828623
1.01881
1.116
1.15701
1.16841
1.16419
1.15496
1.15043
1.14842
1.14804
1.14489
1.14453
1.14485
1.14633
1.14878
1.15387
1.16167
1.16821
1.1612
1.05617
0.436809
0.0284241
0.19876
0.541976
0.832432
1.01994
1.11612
1.15687
1.16809
1.16403
1.15498
1.15047
1.14846
1.14808
1.14459
1.14422
1.14454
1.14606
1.14861
1.15385
1.16167
1.16772
1.15714
1.02279
0.382016
0.0291155
0.206975
0.542855
0.834219
1.02021
1.11568
1.15632
1.16753
1.16371
1.15489
1.15045
1.14845
1.14806
1.14429
1.14392
1.14423
1.14577
1.14839
1.15373
1.16151
1.16695
1.15194
0.985444
0.345403
0.0302025
0.214089
0.543238
0.833574
1.01976
1.11485
1.1555
1.1668
1.16325
1.15473
1.15036
1.14837
1.14799
1.14399
1.14361
1.14391
1.14547
1.14814
1.15354
1.16123
1.16594
1.14559
0.943357
0.319212
0.0315634
0.22031
0.543333
0.830879
1.01851
1.11372
1.15448
1.16597
1.16271
1.15451
1.15022
1.14825
1.14786
1.14367
1.1433
1.1436
1.14517
1.14786
1.1533
1.16084
1.16469
1.13794
0.898543
0.299733
0.0331215
0.2258
0.543167
0.827106
1.01632
1.11228
1.15331
1.16507
1.16212
1.15425
1.15004
1.14809
1.14768
1.14335
1.14299
1.14329
1.14487
1.14759
1.15303
1.16037
1.16319
1.12857
0.856593
0.284947
0.0348265
0.23069
0.542765
0.822932
1.01323
1.11051
1.15201
1.16412
1.16151
1.15396
1.14984
1.14789
1.14746
1.14301
1.14267
1.14299
1.14458
1.14731
1.15276
1.15984
1.16139
1.11698
0.820377
0.273585
0.0366436
0.235082
0.542168
0.818648
1.00949
1.1084
1.15058
1.16315
1.16088
1.15365
1.1496
1.14766
1.14721
1.14267
1.14236
1.14268
1.1443
1.14705
1.15248
1.15924
1.15919
1.10312
0.789636
0.264793
0.0385493
0.239061
0.541418
0.814358
1.00532
1.10598
1.14904
1.16215
1.16025
1.15333
1.14935
1.14741
1.14693
1.14233
1.14204
1.14239
1.14403
1.1468
1.15219
1.15857
1.1565
1.08763
0.763349
0.257967
0.0405278
0.2427
0.540558
0.810105
1.00093
1.10331
1.1474
1.16115
1.15961
1.153
1.14909
1.14715
1.14664
1.14198
1.14172
1.14209
1.14376
1.14655
1.1519
1.15779
1.15321
1.07137
0.740619
0.252668
0.0425692
0.246057
0.539627
0.805912
0.996414
1.10044
1.14567
1.16013
1.15898
1.15266
1.14882
1.14687
1.14633
1.14163
1.1414
1.1418
1.1435
1.14631
1.15159
1.15689
1.14929
1.055
0.720769
0.248568
0.0446675
0.249184
0.53866
0.8018
0.991857
1.09743
1.14388
1.15911
1.15835
1.15232
1.14854
1.14658
1.146
1.14128
1.14108
1.14151
1.14324
1.14607
1.15127
1.15584
1.14475
1.03895
0.703285
0.245418
0.0468207
0.252124
0.537687
0.797785
0.987304
1.09431
1.14203
1.15808
1.15773
1.15198
1.14825
1.14628
1.14568
1.14094
1.14077
1.14122
1.14299
1.14583
1.15093
1.15461
1.13965
1.02345
0.687766
0.24302
0.0490289
0.254915
0.536736
0.793881
0.98279
1.09112
1.14013
1.15704
1.15711
1.15164
1.14797
1.14598
1.14535
1.14059
1.14045
1.14094
1.14274
1.1456
1.15055
1.15319
1.13408
1.00861
0.673893
0.24122
0.0512945
0.257593
0.535831
0.790104
0.978341
1.08788
1.13819
1.156
1.15649
1.1513
1.14768
1.14568
1.14501
1.14025
1.14014
1.14066
1.1425
1.14536
1.15014
1.15156
1.12812
0.994442
0.661407
0.239891
0.0536218
0.260187
0.534994
0.786469
0.973976
1.08462
1.13623
1.15496
1.15588
1.15096
1.1474
1.14538
1.14468
1.1399
1.13983
1.14039
1.14227
1.14512
1.14969
1.14972
1.12186
0.980952
0.650092
0.238929
0.0560158
0.262725
0.534245
0.782989
0.969713
1.08135
1.13424
1.15392
1.15527
1.15062
1.14711
1.14509
1.14435
1.13958
1.13954
1.14014
1.14205
1.14488
1.14918
1.14767
1.11537
0.968104
0.639765
0.238248
0.0584833
0.265234
0.533601
0.779676
0.965566
1.0781
1.13224
1.15287
1.15467
1.1503
1.14685
1.14481
1.14405
1.1393
1.13928
1.13992
1.14186
1.14466
1.14864
1.14544
1.10872
0.955855
0.630274
0.237774
0.0610322
0.267739
0.533079
0.776544
0.961552
1.07488
1.13023
1.15184
1.15408
1.15003
1.14662
1.14457
1.14378
0.313573
0.0625507
0.0535935
0.718546
0.0870617
0.0654416
0.618857
0.121659
0.0910538
0.512404
0.153386
0.127171
0.426256
0.032544
0.0397965
0.189666
0.157389
0.261918
0.0645469
0.0339951
0.0929219
0.254172
0.192315
0.120587
0.0763391
0.0556131
0.107503
0.0326941
0.0231914
0.0684682
0.122974
0.130306
0.618927
0.798926
0.38593
0.0409831
0.0529748
0.0922818
0.136649
0.124514
0.732197
0.72875
0.804825
0.670465
0.204788
0.244724
0.0604163
0.0465502
0.125424
0.164805
0.14264
0.712454
0.629767
0.716997
0.565981
0.114283
0.161027
0.0974043
0.0768892
0.632674
0.527274
0.616635
0.476985
0.0581379
0.0819825
0.0183035
0.1383
0.130616
0.575757
0.350331
0.513658
0.368511
0.025467
0.0373848
0.0828005
0.085932
0.0680367
0.0967355
0.287858
0.0437817
0.0857288
0.051538
0.0342239
0.0555847
0.0356451
0.050434
0.250553
0.295802
0.724588
0.217004
0.189271
0.277573
0.223149
0.046152
0.0409676
0.0766986
0.0529925
0.0581587
0.0516482
0.0530136
0.0751969
0.165422
0.199157
0.657751
0.145165
0.116374
0.186595
0.147919
0.0743638
0.0618697
0.108661
0.0811136
0.0981236
0.0587079
0.0791614
0.104012
0.083293
0.112426
0.552651
0.0868153
0.0613876
0.114742
0.0880748
0.126531
0.100716
0.0378178
0.0568484
0.473019
0.0163967
0.0401811
0.0269158
0.0606234
0.0409633
0.0158676
0.143387
0.139922
0.0190766
0.00517865
0.0253622
0.361236
0.0490715
0.0186337
0.00912246
0.0267964
0.0190031
0.0467571
0.429497
0.332331
0.147927
0.169078
0.0964639
0.0522672
0.0126618
0.0105242
0.619647
0.303321
0.365446
0.0139954
0.158503
0.201687
0.173314
0.0136344
0.0507771
0.0457509
0.0614004
0.158086
0.146203
0.294449
0.108638
0.19453
0.0410578
0.0162411
0.0287683
0.0265618
0.033988
0.0541931
0.0436828
0.0302774
0.141976
0.126634
0.135914
0.100906
0.123087
0.138752
0.0225425
0.0147156
0.0377936
0.0294934
0.0526702
0.0423779
0.0234584
0.0374153
0.0281395
0.010904
0.0265646
0.0219398
0.0123514
0.0197187
0.025026
0.0493516
0.049975
0.0527135
0.0518611
0.019679
0.0146089
0.0881438
0.0187894
0.0260592
0.0139616
0.0178468
0.0852479
0.0725002
0.241596
0.224572
0.0634887
0.0538079
0.0143598
0.0345992
0.156716
0.14249
0.17729
0.161917
0.0352325
0.0524978
0.0420904
0.147268
0.064912
0.076626
0.0411411
0.0640748
0.169483
0.0537938
0.0303063
0.0189181
0.0689583
0.0336437
0.0597307
0.03184
0.0629805
0.0428031
0.0420731
0.208466
0.028504
0.207155
0.251167
0.0333841
0.0398565
0.0289378
0.0326742
0.243507
0.0442258
0.0439918
0.0551507
0.0724506
0.0678695
0.0790367
0.0742561
0.0554347
0.0604267
0.0605404
0.0555279
0.0661589
0.0618697
0.059673
0.130205
0.128354
0.168919
0.166573
0.0731369
0.0138764
0.0716631
0.077839
0.0757083
0.0994491
0.0977034
0.0272792
0.0383886
0.111174
0.0287964
0.0205255
0.0507792
0.19823
0.182456
0.21912
0.203412
0.0516176
0.0215114
0.0379745
0.0375542
0.0557085
0.0549581
0.00760576
0.0265746
0.077598
0.0668918
0.13831
0.112801
0.0118045
0.00731222
0.0215156
0.0169865
0.0260401
0.0115276
0.016494
0.013597
0.0257243
0.039987
0.0150975
0.0186401
0.00500103
0.0190904
0.0170975
0.633715
0.238258
0.335773
0.146497
0.00835189
0.00557793
0.142402
0.41563
0.286647
0.00683826
0.0164746
0.0148672
0.0929658
0.0813298
0.0279749
0.198907
0.164645
0.0642559
0.0119373
0.0209028
0.0163047
0.0105514
0.0156508
0.0111953
0.0426744
0.0275279
0.0254249
0.0516856
0.0563405
0.0224226
0.0258541
0.0166238
0.0163622
0.0482681
0.131719
0.336064
0.317494
0.361971
0.342434
0.136039
0.264492
0.247309
0.0736695
0.0265687
0.0698516
0.0652007
0.00965018
0.0146359
0.0717689
0.0482425
0.0301812
0.0282225
0.0416966
0.047836
0.0436104
0.0540089
0.049279
0.0431792
0.0451775
0.0179892
0.0168557
0.041953
0.179011
0.388778
0.368585
0.0505987
0.0518781
0.121319
0.0267346
0.0287477
0.0659742
0.0877856
0.10781
0.0998638
0.0645098
0.0870057
0.0810466
0.0968023
0.0894397
0.0654808
0.0981492
0.287782
0.270263
0.311462
0.29368
0.100314
0.0831833
0.0317587
0.0323142
0.0210389
0.022049
0.0647146
0.10886
0.0463633
0.0501054
0.0324906
0.0329199
0.0919918
0.114872
0.0402236
0.0571055
0.0074558
0.0181882
0.0390849
0.0297252
0.0584872
0.0200245
0.0207622
0.0181148
0.0484102
0.0144031
0.00425769
0.0778701
0.0541713
0.0638961
0.0599562
0.0249073
0.0193141
0.0254627
0.0559055
0.0177506
0.00999156
0.021358
0.0219512
0.00298383
0.0266258
0.0199623
0.0149578
0.00737374
0.0137814
0.0135471
0.013607
0.0230464
0.0199611
0.00769111
0.0380403
0.0369346
0.01913
0.0128506
0.00867963
0.0135154
0.0210116
0.0149291
0.0167642
0.03513
0.0143715
0.0128182
0.0146543
0.0159854
0.0267648
0.0144555
0.0113181
0.0160613
0.0147662
0.0115476
0.0183899
0.0165779
0.0214408
0.0190892
0.0137977
0.017701
0.0251687
0.02169
0.0323022
0.0267356
0.020916
0.0186417
0.0152998
0.0226047
0.0205254
0.0444712
0.0512463
0.0248059
0.0231964
0.0208305
0.02175
0.0553454
0.0151417
0.016059
0.0178909
0.0152306
0.0166324
0.0491038
0.0172123
0.0204597
0.0171152
0.0163877
0.0215337
0.0522577
0.0461805
0.0156433
0.0379504
0.033671
0.044036
0.0394285
0.016118
0.0156537
0.028243
0.0242406
0.0781653
0.0716588
0.0282049
0.0362864
0.0849166
0.0799416
0.0475269
0.0459393
0.0668725
0.111889
0.156631
0.0802285
0.102145
0.0675723
0.0531582
0.139579
0.121911
0.158895
0.145845
0.0586689
0.0478295
0.058805
0.073207
0.0423321
0.0483977
0.0369411
0.0339904
0.0471369
0.0275114
0.0301882
0.0259113
0.0376175
0.0334305
0.0309235
0.0360793
0.0386243
0.0390752
0.0373436
0.0270475
0.0868864
0.070424
0.0952916
0.0902459
0.0274467
0.0643764
0.0629137
0.0676784
0.0648833
0.0356474
0.111371
0.106983
0.118799
0.112949
0.0366088
0.0304407
0.100321
0.0965522
0.105585
0.101592
0.0308843
0.0198866
0.0184062
0.044908
0.0426047
0.0214908
0.0205269
0.0373401
0.036894
0.0382463
0.0374781
0.0358301
0.0350712
0.0367229
0.0360779
0.0605583
0.059018
0.0624546
0.0610474
0.053266
0.0394964
0.0584633
0.0557211
0.0275069
0.0245485
0.0324269
0.0287591
0.0125966
0.0195688
0.0184862
0.023584
0.020223
0.0306068
0.0315854
0.0820022
0.0199136
0.0194087
0.020829
0.0200918
0.0192173
0.0668218
0.0223637
0.0294429
0.0337363
0.0425063
0.106252
0.0295196
0.0239147
0.0347951
0.0324576
0.0220247
0.0211107
0.0234945
0.022357
0.093342
0.0330288
0.0333706
0.00826263
0.0248619
0.0135068
0.0143636
0.0132648
0.0237073
0.00739397
0.0189087
0.011173
0.0142398
0.0388182
0.0330903
0.0191506
0.0197958
0.0577933
0.0511403
0.0183302
0.0189307
0.0133668
0.0242819
0.0582469
0.0415835
0.0125903
0.0121644
0.0171494
0.0103945
0.0134665
0.0186038
0.0265191
0.00723492
0.0151701
0.00995416
0.0147633
0.0201568
0.0644572
0.138137
0.184032
0.0127137
0.011996
0.193044
0.255531
0.212885
0.00782857
0.0283058
0.0164563
0.0182356
0.139998
0.146094
0.168323
0.00571976
0.00910409
0.00670975
0.00567977
0.00695891
0.00542818
0.0700721
0.0447507
0.0269912
0.0296834
0.0271046
0.0306946
0.221967
0.445522
0.42374
0.475548
0.452911
0.22754
0.0358145
0.0302442
0.0162322
0.0601602
0.0699551
0.138069
0.0918784
0.086586
0.0365674
0.0320169
0.0369272
0.0371079
0.416607
0.395635
0.183811
0.138148
0.0552918
0.0575386
0.0597898
0.0733156
0.156728
0.0423291
0.100616
0.0938166
0.0146739
0.0150125
0.016936
0.0200484
0.0203943
0.0271897
0.0153518
0.0126731
0.0143147
0.0217144
0.0427241
0.0376785
0.0184108
0.0267468
0.0194471
0.0196993
0.0192613
0.0120877
0.0135711
0.0156994
0.0151878
0.0127921
0.0208678
0.0239138
0.0514005
0.039837
0.0423819
0.0390984
0.0290369
0.0374022
0.0175072
0.0199457
0.0110155
0.00731358
0.00724956
0.0139711
0.0117525
0.0282221
0.017975
0.0122228
0.01715
0.0221571
0.0210456
0.0303649
0.0315996
0.0188604
0.0150805
0.0155497
0.00980454
0.0136697
0.0153061
0.0598174
0.0542368
0.0225531
0.0143004
0.0185334
0.0177235
0.0147761
0.0169251
0.0162945
0.0510371
0.0416279
0.0432112
0.0655991
0.0918312
0.0907406
0.0425415
0.060853
0.0587049
0.089505
0.0879304
0.0629367
0.0439321
0.0532588
0.0440341
0.0336704
0.0365356
0.0296842
0.0457277
0.0476204
0.0685396
0.0247474
0.0321571
0.0315695
0.0485439
0.047903
0.0280887
0.0269725
0.0264578
0.0308236
0.0300535
0.03418
0.0548241
0.0542044
0.0578193
0.0573213
0.0387042
0.0294081
0.0498105
0.0491722
0.0535635
0.0529094
0.0319943
0.0538211
0.0549003
0.136073
0.123018
0.0522905
0.0534589
0.0810238
0.0838471
0.176235
0.0243021
0.0240555
0.0260929
0.0257503
0.0214867
0.0238194
0.0235881
0.159362
0.0760467
0.0800601
0.0140465
0.0141536
0.0171515
0.016703
0.0138895
0.0143204
0.0142672
0.0673797
0.0296399
0.0333089
0.109793
0.103056
0.0454138
0.053681
0.117659
0.111813
0.0274887
0.0276046
0.0382886
0.0368693
0.0269768
0.0273136
0.0116924
0.0183627
0.0267502
0.0187967
0.00733203
0.0118881
0.0194341
0.0138351
0.0147277
0.0180179
0.0182055
0.0262277
0.0110388
0.00724293
0.0105298
0.0139778
0.0249563
0.0176424
0.0178471
0.0164072
0.0260281
0.0226696
0.0139369
0.0134158
0.014732
0.0150606
0.0176973
0.0079551
0.00544707
0.00988287
0.0158642
0.0139901
0.0143287
0.012385
0.013518
0.0153281
0.0120896
0.00809682
0.00623427
0.0238443
0.0243987
0.0228115
0.0232719
0.0268109
0.0349247
0.0351104
0.0345028
0.0347377
0.0262113
0.0162291
0.026027
0.0259267
0.0268182
0.0262748
0.0160549
0.0297534
0.036478
0.0381511
0.0353176
0.0356739
0.028981
0.0177063
0.0259195
0.0259119
0.0258765
0.0258774
0.0172061
0.0218234
0.0223468
0.0224587
0.0219143
0.0319262
0.0457701
0.0454393
0.0213664
0.0301562
0.0300778
0.0305922
0.0302795
0.0217075
0.0120857
0.0111581
0.0143018
0.0128831
0.0199576
0.0196422
0.020601
0.0202793
0.0171572
0.0279348
0.0206911
0.0209122
0.0202563
0.0298614
0.0297609
0.0300166
0.0299462
0.0205018
0.0211922
0.0209101
0.0251502
0.0214059
0.0174293
0.00754927
0.011729
0.0148703
0.00735872
0.0195499
0.0146116
0.00356683
0.0251649
0.033947
0.0334824
0.018194
0.00967302
0.00681784
0.00527922
0.0117334
0.0126701
0.0189753
0.0192069
0.0267027
0.0195495
0.00863917
0.00724514
0.0164736
0.00571615
0.0098973
0.00809485
0.00586093
0.00725954
0.0134609
0.0109852
0.0118238
0.0147576
0.0143012
0.0389182
0.033982
0.0105866
0.0126168
0.0141088
0.0207972
0.0236069
0.0153088
0.0187621
0.0165919
0.0139786
0.00800731
0.0137097
0.0141263
0.00726639
0.0108013
0.0121036
0.0155785
0.0140787
0.0144705
0.0116074
0.0122365
0.0151392
0.0147069
0.0143388
0.0108923
0.0140996
0.0154643
0.0150874
0.0275407
0.0237646
0.0186918
0.0302618
0.032306
0.0342481
0.0277896
0.0246986
0.0221408
0.0316723
0.0328202
0.0249667
0.0292012
0.0215869
0.0242755
0.0340153
0.0342627
0.0333826
0.0337262
0.0236852
0.0210866
0.0315369
0.0311209
0.0153579
0.0156421
0.0168425
0.0151978
0.0151137
0.0158563
0.0168021
0.0166218
0.0184475
0.0288519
0.0277343
0.0306153
0.0298789
0.0197515
0.0139537
0.0144783
0.0179802
0.00909692
0.0134592
0.0134561
0.0158346
0.0135997
0.013628
0.0204659
0.0195059
0.0149377
0.0492765
0.0444596
0.0749091
0.0657139
0.0436828
0.0614297
0.0856714
0.0818123
0.0415424
0.0380584
0.0377586
0.026791
0.033433
0.0572814
0.0493118
0.0468714
0.0365899
0.0438861
0.0446087
0.0410093
0.0428484
0.035791
0.0283702
0.0295458
0.0382983
0.0316782
0.0308877
0.0330508
0.032712
0.0356788
0.0316504
0.0301086
0.0281204
0.0323256
0.0439334
0.0394469
0.026441
0.0277672
0.0472023
0.046141
0.0280859
0.0275174
0.0293487
0.028695
0.0558782
0.0553586
0.0348662
0.0376357
0.0568795
0.0563998
0.0510895
0.0504605
0.0299264
0.0313706
0.0522659
0.0516723
0.0193492
0.0259495
0.0259239
0.0259294
0.0259657
0.0189891
0.0213859
0.0249782
0.0237203
0.0258263
0.0255743
0.0209159
0.0371952
0.0242721
0.0246804
0.0236165
0.0239334
0.0370512
0.0378118
0.0261591
0.0266657
0.0251312
0.0256192
0.037618
0.0355746
0.0218957
0.0221625
0.0214606
0.0216572
0.0353206
0.0365346
0.0230381
0.023319
0.0224393
0.0227309
0.0363147
0.0248353
0.0245612
0.0600567
0.0410117
0.0413171
0.0403827
0.0407004
0.0595442
0.025427
0.0251227
0.02292
0.022583
0.0486446
0.0333313
0.0368364
0.0271515
0.0275301
0.0425945
0.0578386
0.0396886
0.0400516
0.038491
0.0392386
0.0570255
0.0233706
0.0231555
0.014691
0.0141898
0.0139435
0.0161815
0.0153964
0.0191643
0.0143548
0.014176
0.014836
0.0145618
0.0188497
0.022425
0.0157591
0.0167138
0.0143018
0.0148783
0.021219
0.0311055
0.0441603
0.0432628
0.0450953
0.0446988
0.0313827
0.0197419
0.0195763
0.0205522
0.0202778
0.0189667
0.0181389
0.022631
0.033799
0.0315111
0.0415319
0.0382157
0.0269145
0.0246132
0.0194873
0.0204039
0.0243084
0.0344374
0.0210701
0.0212634
0.0206752
0.020877
0.0338287
0.0217076
0.0214023
0.0230896
0.0227113
0.0136118
0.0158135
0.0153371
0.0172236
0.016449
0.0139063
0.013857
0.0135292
0.0148964
0.01434
0.00853337
0.0119818
0.0149773
0.0146461
0.0158605
0.0153794
0.0126245
0.0189883
0.018791
0.0194124
0.0191953
0.0242701
0.0261491
0.0355703
0.0182344
0.017999
0.0186031
0.0184216
0.0193661
0.029363
0.0291931
0.029643
0.0295106
0.019577
0.0184912
0.0282802
0.0273161
0.0289908
0.028724
0.0187112
0.0125806
0.0326648
0.030858
0.0225181
0.0128422
0.00951327
0.00948135
0.00651927
0.00928842
0.0124764
0.0156026
0.0127183
0.0141894
0.0138106
0.0263874
0.0184683
0.0187238
0.0104658
0.0107446
0.0102878
0.0134375
0.0130568
0.00691507
0.00707114
0.0143614
0.0110264
0.0133561
0.0156803
0.0173813
0.0232227
1.15485
1.15514
1.1555
1.15526
1.15575
1.1558
1.15594
1.15666
1.15626
1.15691
1.15771
1.15683
1.15794
1.12631
1.15732
1.11317
1.09945
1.1575
1.10545
1.15843
1.1573
1.15827
1.15761
1.15683
1.15737
1.15662
1.1563
1.1564
1.15578
1.15586
1.15435
1.15498
1.15506
1.15525
1.1563
1.1558
1.15672
1.11299
1.15691
1.05108
0.900513
1.15813
0.865158
0.796861
1.04843
0.786018
0.784955
1.02479
0.794
0.848164
1.08561
0.874612
0.983067
1.158
1.02894
1.15789
1.15683
1.15746
1.15624
1.15583
1.1542
1.15544
1.15503
1.15598
1.09577
1.1566
1.00704
0.782311
1.02409
0.723478
0.588023
0.815063
0.555504
0.494008
0.715608
0.485265
0.491634
0.706635
0.503316
0.562082
0.771204
0.58865
0.691069
0.903398
0.732153
0.888785
1.11571
0.951892
1.15764
1.1565
1.15453
1.15665
1.15567
1.14136
0.842765
1.02402
0.756289
0.548606
0.714444
0.492248
0.357767
0.522718
0.324246
0.261845
0.428924
0.254296
0.26806
0.428485
0.282624
0.348185
0.501871
0.375333
0.475257
0.629023
0.514309
0.65442
0.822176
0.710062
0.912274
1.1016
1.1554
1.08562
1.15705
0.976325
0.688898
0.795576
0.610333
0.409589
0.504992
0.351586
0.205599
0.312571
0.17047
0.0910964
0.215826
0.0894639
0.12263
0.224414
0.140051
0.208324
0.306307
0.235933
0.331778
0.432654
0.368545
0.497548
0.608673
0.548333
0.729853
0.858957
1.15666
1.00293
1.05781
0.89511
0.635142
0.666061
0.562994
0.372278
0.389407
0.316625
0.144321
0.182415
0.128282
0.0752897
0.117947
0.0368277
0.0463579
0.0806032
0.0866979
0.116312
0.137099
0.163426
0.25106
0.306075
0.2849
0.403103
0.468728
0.44926
0.61408
0.694389
1.15809
0.987218
0.993427
0.889304
0.669907
0.6366
0.611704
0.467486
0.38423
0.351752
0.303707
0.281914
0.134493
0.113591
0.10259
0.0616372
0.0881441
0.0938651
0.144634
0.219976
0.239206
0.249987
0.356781
0.387383
0.398756
0.549421
0.592707
1.15956
1.01118
0.990989
0.922854
0.744505
0.687391
0.70201
0.622637
0.50524
0.52541
0.508661
0.446015
0.438311
0.447271
0.36247
0.0799256
0.0988482
0.09365
0.154831
0.22172
0.217955
0.248829
0.346573
0.3513
0.38535
0.524718
0.539499
1.16102
1.04201
1.01925
0.958843
0.803261
0.762244
0.76884
0.720832
0.656243
0.69213
0.719698
0.679425
0.695218
0.52653
0.549632
0.108092
0.124439
0.114262
0.180986
0.244556
0.225693
0.270221
0.363017
0.348427
0.39979
0.531057
0.52376
1.16247
1.06304
1.04838
0.981265
0.823276
0.811881
0.785868
0.714802
0.728295
0.735595
0.763456
0.769967
0.59253
0.413045
0.433454
0.142199
0.160049
0.14583
0.219799
0.284977
0.252982
0.310694
0.402645
0.370727
0.438573
0.564454
0.53758
1.16391
1.08009
1.06695
0.99792
0.821723
0.823502
0.775095
0.66092
0.702311
0.669277
0.69573
0.698977
0.485381
0.310271
0.329031
0.173287
0.193599
0.18245
0.277196
0.348441
0.298257
0.375533
0.468916
0.416448
0.504506
0.626142
0.578119
1.1654
1.1135
1.08632
1.03018
0.836838
0.822508
0.781515
0.624971
0.64801
0.597776
0.552634
0.608049
0.397348
0.21469
0.232293
0.050325
0.110858
0.0969375
0.278769
0.352336
0.274116
0.376117
0.451756
0.369597
0.479149
0.571525
0.490676
0.605944
0.721559
0.647855
1.16662
1.1683
1.12898
1.11826
0.917908
0.850677
0.861567
0.694314
0.630313
0.584175
0.518359
0.503392
0.202366
0.0662957
0.0895134
0.110096
0.244772
0.216138
0.490073
0.543693
0.388776
0.561117
0.621243
0.486902
0.64464
0.724801
0.604373
0.75557
0.858173
0.75296
1.16755
1.16887
1.16849
1.16687
1.09364
0.9524
1.0412
0.919236
0.732403
0.788995
0.111348
0.182855
0.033932
0.0818493
0.0702804
0.160329
0.434204
0.420988
0.517379
0.744145
0.61277
0.811248
0.887718
0.677758
0.897019
0.944754
0.772753
0.966464
1.04798
0.902148
1.16815
1.16882
1.16892
1.16629
1.13837
1.1442
1.11306
0.859016
0.926794
0.659873
0.0794912
0.099978
0.0298115
0.095355
0.0854097
0.174639
0.446285
0.437807
0.530286
0.755293
0.747349
0.820904
0.977204
0.973119
1.01554
1.09667
1.01196
1.11461
1.14942
1.10729
1.16839
1.16807
1.1687
1.16471
1.12678
1.13588
1.09148
0.76426
0.835407
0.543876
0.0660012
0.0751636
0.0284588
0.107153
0.0984494
0.186508
0.452727
0.448348
0.538225
0.762946
0.75748
0.827372
0.980664
0.978251
1.01834
1.09818
1.09717
1.11585
1.15016
1.14969
1.16828
1.1666
1.16777
1.16204
1.11095
1.12321
1.06387
0.672561
0.740932
0.454546
0.0588797
0.0638144
0.0283348
0.117561
0.109875
0.196503
0.456261
0.453763
0.541578
0.76804
0.764447
0.831655
0.982584
0.981265
1.01975
1.09865
1.09837
1.11615
1.15021
1.15023
1.16787
1.16441
1.16612
1.15827
1.09128
1.10637
1.0315
0.591563
0.650854
0.393592
0.0547608
0.0576395
0.0288993
0.126804
0.119974
0.205034
0.458922
0.456978
0.542702
0.7704
0.768911
0.83399
0.983431
0.982884
1.02021
1.09844
1.09865
1.11583
1.14977
1.15013
1.16717
1.16148
1.16374
1.15335
1.06827
1.08583
0.99519
0.529382
0.574113
0.35337
0.0523037
0.054023
0.0299013
0.13506
0.128955
0.212401
0.461099
0.459509
0.543171
0.7698
0.770507
0.833961
0.983382
0.983504
1.01994
1.09775
1.0983
1.11509
1.14901
1.14961
1.16622
1.15779
1.16063
1.14729
1.04184
1.06202
0.954315
0.48506
0.516864
0.325026
0.0508708
0.0518662
0.0312022
0.142474
0.136988
0.218829
0.462823
0.461571
0.543335
0.767243
0.76929
0.831691
0.982285
0.983217
1.01891
1.09669
1.09752
1.11403
1.14801
1.14878
1.16503
1.15331
1.15675
1.13999
1.01099
1.03458
0.909687
0.452457
0.476021
0.3041
0.0501213
0.0506289
0.0327166
0.149167
0.144211
0.224489
0.464134
0.463187
0.543232
0.763893
0.766448
0.828104
0.979964
0.98182
1.01696
1.09524
1.09636
1.11267
1.14684
1.14773
1.16359
1.14787
1.15205
1.13111
0.976426
1.00259
0.86658
0.427419
0.445598
0.288281
0.0498562
0.0500154
0.0343886
0.155241
0.15074
0.229518
0.465092
0.464404
0.542885
0.760306
0.763008
0.823993
0.976574
0.979204
1.01408
1.09337
1.09482
1.11099
1.1455
1.14652
1.16187
1.14112
1.14632
1.1201
0.941766
0.967617
0.828882
0.4077
0.422054
0.276157
0.0499522
0.0498501
0.0361802
0.160785
0.156674
0.234025
0.46576
0.465284
0.542333
0.75666
0.759397
0.819722
0.97248
0.975602
1.01047
1.09105
1.09283
1.10896
1.14401
1.14514
1.15978
1.13272
1.13918
1.10677
0.909869
0.933474
0.796863
0.391929
0.403429
0.266786
0.0503286
0.0500225
0.0380656
0.165874
0.162097
0.238101
0.4662
0.46589
0.541617
0.753008
0.755747
0.815428
0.967999
0.971386
1.00639
1.08835
1.09041
1.10661
1.14235
1.14361
1.15722
1.12264
1.13035
1.09161
0.881491
0.902447
0.769555
0.379178
0.388488
0.259515
0.0509309
0.0504597
0.040027
0.170571
0.167082
0.241819
0.466465
0.466281
0.540781
0.749376
0.752098
0.811163
0.963331
0.966844
1.00204
1.08534
1.08762
1.104
1.14056
1.14192
1.15409
1.11119
1.11989
1.07547
0.856389
0.874926
0.746008
0.368784
0.376381
0.253869
0.051721
0.051112
0.0420533
0.174935
0.171691
0.245242
0.466602
0.46651
0.539864
0.745784
0.748474
0.806954
0.958594
0.96215
0.997549
1.08211
1.08455
1.10117
1.13865
1.14009
1.15033
1.09886
1.10817
1.05907
0.834106
0.850571
0.725492
0.360253
0.366493
0.249496
0.0526721
0.0519446
0.0441377
0.179015
0.17598
0.248421
0.466652
0.466621
0.538903
0.742249
0.744894
0.80282
0.953853
0.957407
0.992997
1.07871
1.08127
1.09819
1.13664
1.13816
1.14594
1.08609
1.09569
1.04292
0.814212
0.828923
0.707458
0.353211
0.358366
0.246128
0.0537646
0.0529326
0.0462772
0.182856
0.179996
0.251404
0.46665
0.466655
0.537929
0.738792
0.741377
0.798779
0.949151
0.952672
0.98844
1.07521
1.07785
1.0951
1.13456
1.13613
1.14098
1.07322
1.08287
1.02727
0.796342
0.809567
0.691479
0.347362
0.351646
0.243558
0.0549844
0.0540581
0.0484717
0.186497
0.183784
0.25423
0.466628
0.466645
0.53697
0.73543
0.737942
0.794845
0.944517
0.947985
0.983914
1.07164
1.07432
1.09192
1.13241
1.13402
1.13551
1.06048
1.07002
1.01225
0.780199
0.792156
0.677222
0.342477
0.346059
0.241621
0.056321
0.0553079
0.0507226
0.189975
0.187381
0.256932
0.466612
0.466622
0.536052
0.732181
0.734607
0.791036
0.939974
0.943372
0.979446
1.06803
1.07074
1.08869
1.13021
1.13186
1.12964
1.04799
1.05733
0.997919
0.765529
0.776402
0.664411
0.338368
0.341384
0.240185
0.0577668
0.0566724
0.0530339
0.193323
0.190823
0.259545
0.466626
0.466611
0.535196
0.72906
0.731388
0.787364
0.935538
0.938854
0.975058
1.06442
1.06713
1.08544
1.12797
1.12965
1.12344
1.03584
1.04492
0.984263
0.752122
0.762066
0.652821
0.334881
0.337443
0.23914
0.0593162
0.0581447
0.0554106
0.19657
0.194143
0.262094
0.466693
0.466637
0.534423
0.726082
0.728301
0.783844
0.931225
0.934448
0.970768
1.06081
1.06351
1.08217
1.1257
1.1274
1.11701
1.02406
1.03286
0.971258
0.739798
0.748946
0.642263
0.331891
0.334091
0.238396
0.0609653
0.0597193
0.0578592
0.199747
0.19737
0.264609
0.466832
0.46672
0.533751
0.723263
0.725362
0.780487
0.927049
0.930168
0.966591
1.05724
1.05992
1.07891
1.12342
1.12513
1.11039
1.01267
1.02118
0.958862
0.728403
0.736868
0.632575
0.329291
0.331208
0.237877
0.0627109
0.0613927
0.0603869
0.202879
0.200533
0.267112
0.467062
0.46688
0.533197
0.720615
0.722584
0.777309
0.923023
0.926028
0.962541
1.05371
1.05635
1.07568
1.12112
1.12284
1.10405
1.00219
1.00988
0.947578
0.718182
0.725684
0.623905
0.327037
0.32869
0.237528
0.0645451
0.0631621
0.0629942
0.205967
0.203658
0.269606
0.467416
0.467136
0.532816
0.718274
0.719981
0.774472
0.91938
0.922043
0.958864
1.05048
1.05284
1.07272
1.11902
1.12055
0.296465
0.242651
0.264874
0.0599353
0.0525173
0.056752
0.0449757
0.0444497
0.052864
0.557684
0.585025
0.729553
0.0836232
0.077978
0.0827417
0.0583997
0.0640495
0.0673169
0.440328
0.461222
0.631919
0.117537
0.113694
0.118668
0.0848456
0.0902729
0.0951668
0.335312
0.354272