/*--------------------------------*- C++ -*----------------------------------*\
| =========                 |                                                 |
| \\      /  F ield         | OpenFOAM: The Open Source CFD Toolbox           |
|  \\    /   O peration     | Version:  v1912                                 |
|   \\  /    A nd           | Website:  www.openfoam.com                      |
|    \\/     M anipulation  |                                                 |
\*---------------------------------------------------------------------------*/
FoamFile
{
    version     2.0;
    format      ascii;
    class       volScalarField;
    location    "800";
    object      omega;
}
// * * * * * * * * * * * * * * * * * * * * * * * * * * * * * * * * * * * * * //

dimensions      [0 0 -1 0 0 0 0];


internalField   nonuniform List<scalar> 
12556
(
31.8693
31.8706
31.8719
31.8739
31.9377
31.9387
31.9393
31.9406
31.9432
31.9476
31.9541
31.9616
31.9669
31.9674
31.9629
31.9561
31.9497
31.9449
31.9417
31.9399
31.8748
31.8723
31.8706
31.8691
31.7347
31.7377
31.7408
31.7448
31.8052
31.8094
31.8129
31.8467
31.8537
31.866
31.8838
31.904
31.9189
31.9212
31.9101
31.8919
31.8738
31.8599
31.8206
31.8134
31.7477
31.742
31.7382
31.7347
31.6014
31.6062
31.6109
31.6167
31.6747
31.6822
31.69
31.7257
31.7423
31.7704
31.8107
31.8542
31.8855
31.8902
31.8674
31.8291
31.789
31.7569
31.7064
31.6914
31.6237
31.6146
31.6083
31.6029
31.4702
31.4764
31.4824
31.4901
31.5455
31.5569
31.5709
31.6132
31.6478
31.7062
31.7874
31.8802
31.9455
31.9484
31.8943
31.8144
31.7362
31.6732
31.605
31.5767
31.5036
31.4899
31.4808
31.4733
31.3405
31.3481
31.3555
31.3651
31.4194
31.4355
31.4582
31.5112
31.579
31.692
31.8782
32.1252
32.3114
32.284
32.1072
31.9063
31.74
31.6236
31.5218
31.4713
31.388
31.3678
31.3552
31.3454
31.2123
31.2212
31.2301
31.2417
31.2961
31.3185
31.3542
31.4265
31.5397
31.7627
32.2249
33.1122
34.0369
33.6623
32.8304
32.2306
31.8504
31.6186
31.4614
31.3778
31.2769
31.2482
31.2311
31.2187
31.0859
31.0961
31.1066
31.1206
31.1754
31.2057
31.2589
31.3589
31.5365
31.955
33.0732
37.2781
43.0917
40.2278
34.963
33.0053
32.1259
31.6795
31.4249
31.297
31.1709
31.1311
31.1083
31.0931
30.9615
30.9731
30.9854
31.0025
31.0585
31.0985
31.1724
31.3036
31.5623
32.2298
34.3104
45.6279
65.5302
40.0526
34.4427
32.6076
31.8164
31.4123
31.2284
31.0701
31.0167
30.9872
30.9687
30.8396
30.8527
30.8671
30.8877
30.9459
30.9969
31.0933
31.2557
31.5999
32.4819
35.1749
52.3588
116.085
47.2045
36.4127
33.262
32.0194
31.4204
31.1697
30.9747
30.906
30.8687
30.8466
30.7207
30.7354
30.7522
30.7767
30.8377
30.9007
31.0198
31.2121
31.6362
32.6789
35.7829
59.7832
140.639
53.0176
38.3654
33.9641
32.2543
31.4416
31.1183
30.8849
30.7999
30.7542
30.7282
30.6053
30.6215
30.6408
30.6695
30.7341
30.8095
30.9506
31.172
31.6708
32.8556
36.528
69.4388
141.31
56.4502
39.9013
34.5879
32.4806
31.4656
31.0719
30.8004
30.6991
30.6448
30.6145
30.4934
30.5112
30.533
30.5662
30.6348
30.7226
30.8848
31.1358
31.7083
33.0491
37.6061
83.3431
131.178
57.8184
40.8746
35.0525
32.663
31.4819
31.0272
30.7199
30.6035
30.5407
30.5061
30.3849
30.4046
30.4294
30.4671
30.5391
30.6391
30.8212
31.1034
31.7514
33.2834
38.9727
97.6835
998.377
111.131
57.8245
41.3324
35.3316
32.7803
31.4829
30.9805
30.6419
30.5122
30.4416
30.4027
30.2795
30.3009
30.3283
30.3702
30.4486
30.5622
30.7646
31.0859
31.8301
33.6613
41.5585
180.688
500.825
105.044
57.1061
41.4014
35.4456
32.8285
31.4641
30.9286
30.5646
30.4235
30.3458
30.303
30.1763
30.1994
30.2294
30.2751
30.3582
30.4823
30.7016
31.0553
31.876
33.9953
45.8849
774.759
337.677
98.8902
55.8553
41.2036
35.4293
32.8162
31.4254
30.8691
30.4856
30.3355
30.2518
30.2054
30.0746
30.0994
30.1319
30.1811
30.2686
30.4017
30.6357
31.0196
31.9166
34.4021
53.1532
873.209
293.366
93.8376
54.6594
40.8966
35.3242
32.7506
31.3688
30.8012
30.4034
30.2468
30.1576
30.1084
29.9736
30
30.035
30.0873
30.1788
30.3193
30.5656
30.9766
31.9467
34.9313
63.0354
839.35
262.064
89.9263
53.5635
40.5544
35.1827
32.6595
31.2957
30.7233
30.3169
30.1557
30.062
30.0103
29.8727
29.9006
29.938
29.993
30.088
30.2345
30.491
30.9257
31.9694
35.593
74.9668
770.8
238.661
87.0955
52.6236
40.2152
35.0168
32.5482
31.2078
30.6358
30.2248
30.0607
29.9642
29.9102
29.7713
29.8005
29.8402
29.8978
29.9959
30.1471
30.4119
30.8677
31.9915
36.404
86.9396
698.701
220.414
85.0939
51.8293
39.8976
34.8429
32.4257
31.1098
30.5407
30.1277
29.9619
29.8629
29.8077
29.6691
29.6994
29.7412
29.8011
29.9021
30.0571
30.3291
30.8042
32.0197
37.3662
96.849
632.633
205.707
83.4716
51.1892
39.6075
34.6699
32.2977
31.0044
30.4395
30.0258
29.859
29.7583
29.7024
29.5659
29.5971
29.6408
29.7029
29.8064
29.9648
30.2432
30.7369
32.0595
38.5034
104.256
574.789
193.534
82.0194
50.726
39.3479
34.5022
32.1679
30.8939
30.3332
29.9198
29.7526
29.6507
29.5944
29.4619
29.4935
29.5388
29.6029
29.7089
29.8703
30.1548
30.6675
32.1158
39.893
109.772
524.898
183.241
80.6909
50.4087
39.1261
34.3425
32.0385
30.78
30.223
29.8103
29.6429
29.5403
29.484
29.357
29.3889
29.4355
29.5012
29.6095
29.7737
30.0645
30.5974
32.1954
41.5064
113.788
481.967
174.383
79.4699
50.1719
38.9489
34.1939
31.9112
30.6639
30.1099
29.698
29.5307
29.4277
29.3716
29.2515
29.2834
29.3309
29.3981
29.5082
29.6752
29.9726
30.5282
32.3132
43.12
116.574
444.902
166.643
78.3417
49.9715
38.8131
34.0587
31.7875
30.547
29.9948
29.5835
29.4164
29.3133
29.2575
29.1455
29.1773
29.2254
29.2939
29.4056
29.5752
29.8799
30.4625
32.4871
44.57
118.353
412.717
159.796
77.2922
49.7883
38.7086
33.9376
31.6685
30.43
29.8785
29.4676
29.3007
29.1976
29.1423
29.0393
29.0708
29.1194
29.1889
29.3018
29.4741
29.7871
30.4032
32.7215
45.8248
119.318
384.576
153.669
76.308
49.6148
38.6248
33.8296
31.5545
30.3138
29.7617
29.3508
29.1839
29.0809
29.0261
28.933
28.9642
29.013
29.0834
29.1974
29.3725
29.6951
30.3536
33.0024
46.9019
119.632
359.794
148.136
75.3778
49.4475
38.5541
33.7328
31.4454
30.1987
29.6448
29.2335
29.0666
28.9637
28.9095
28.8268
28.8575
28.9066
28.9778
29.0927
29.2707
29.6047
30.3164
33.3081
47.8245
119.434
337.814
143.095
74.4916
49.2838
38.4915
33.6449
31.3408
30.085
29.5282
29.116
28.949
28.8462
28.7925
28.7208
28.7511
28.8002
28.8722
28.9879
29.1691
29.5167
30.293
33.6205
48.6129
118.838
318.191
138.471
73.6416
49.122
38.4338
33.5644
31.2404
29.9729
29.4123
28.9986
28.8314
28.7287
28.6755
28.6152
28.645
28.6942
28.7668
28.8834
29.0681
29.4319
30.2831
33.9276
49.2842
117.938
300.559
134.199
72.8207
48.9603
38.3788
33.4895
31.1436
29.8625
29.2971
28.8816
28.7139
28.6113
28.5586
28.5101
28.5394
28.5885
28.6619
28.7792
28.9679
29.351
30.2856
34.2224
49.8534
116.812
284.624
130.231
72.0235
48.7973
38.3247
33.419
31.0501
29.7538
29.1828
28.7651
28.5969
28.4943
28.4421
28.4054
28.4343
28.4834
28.5574
28.6756
28.8689
29.2744
30.2987
34.5014
50.3332
115.521
270.143
126.526
71.2451
48.6314
38.2704
33.3518
30.9596
29.6469
29.0696
28.6493
28.4804
28.3777
28.3259
28.3014
28.3298
28.3789
28.4536
28.5728
28.7713
29.2026
30.3204
34.7631
50.7352
114.118
256.918
123.049
70.4817
48.4617
38.2147
33.2871
30.8716
29.5417
28.9575
28.5341
28.3644
28.2617
28.2102
28.198
28.2259
28.2751
28.3504
28.4707
28.6753
29.1356
30.3489
35.0072
51.07
112.641
244.784
119.774
69.7302
48.2869
38.157
33.224
30.7859
29.4381
28.8466
28.4198
28.2492
28.1463
28.0951
28.0957
28.1233
28.1724
28.2484
28.3696
28.5811
29.0734
30.3824
35.2342
51.3468
111.126
233.604
116.675
68.9876
48.1064
38.0964
33.1619
30.7021
29.3362
28.7369
28.3068
28.1352
28.0321
27.9811
27.9984
28.0256
28.0748
28.1514
28.2701
28.4894
29.0162
30.4198
35.445
51.5743
109.597
223.262
113.733
68.2519
47.9191
38.0323
33.1003
30.62
29.2365
28.6291
28.2
28.0275
27.9241
27.8733
51.6766
133.667
73.5235
58.8351
172.259
141.222
68.0388
170.748
173.669
81.2854
155.711
169.264
96.1552
1244.96
1053.08
138.748
153.535
151.654
696.023
1197.28
523.303
134.341
136.027
44.3079
42.5129
66.2802
40.2394
508.296
160.229
110.601
51.0632
43.2161
35.6301
51.091
46.6144
1317.45
1042.67
139.164
59.7937
53.5952
36.3151
57.1928
51.775
62.9984
212.466
181.717
859.886
1119.7
142.033
64.6173
61.3499
37.3016
65.8679
58.1074
74.0355
350.885
260.585
537.532
674.09
38.5949
78.0286
67.2147
86.6793
612.835
461.804
2239.19
326.298
405.965
40.9377
109.616
79.9877
110.086
1250.3
887.666
435.713
528.263
666.783
121.885
162.685
79.3936
117.489
1027.71
542.666
108.043
403.116
806.679
177.968
153.274
56.1186
211.197
235.766
168.535
206.034
1131.2
1314.14
156.65
1026.13
916.195
825.007
1027.38
155.035
254.78
217.67
64.1791
296.19
354.906
238.703
291.44
696.144
840.247
174.219
657.774
543.579
906.739
674.149
174.746
456.003
355.645
75.7155
450.296
598.727
358.934
445.286
418.507
520.66
880.181
624.322
87.3201
2615.23
849.903
1205.41
604.291
836.874
2761.08
301.402
317.389
2126.6
7834.64
1253.3
112.151
870.66
1732.29
6925.57
1207.94
1696.25
906.076
35.0021
46.1598
41.8056
48.8361
95.4576
69.7763
1760.76
663.613
55.1219
149.788
125.575
3306.39
132.781
66.3207
65.2852
3509.41
897.014
988.272
733.273
267.318
291.53
121.511
98.2481
49.6456
1242.98
174.944
477.109
130.098
363.667
99.1786
1028.77
1415.6
161.968
422.371
345.494
528.654
434.355
163.931
1756.57
3270.97
1085
62.272
52.5864
74.1322
130.437
63.8753
64.2016
1885.98
343.814
1665.13
463.331
1497.57
290.809
1117.96
1105.96
984.102
1000.55
2146.45
3099.54
591.43
2284.66
1644.99
3333.53
2416.37
610.694
508.479
168.686
179.858
739.455
852.906
3315.53
938.386
245.508
266.402
220.755
238.692
924.183
1036.7
1223.32
135.423
795.865
693.209
1177.05
801.661
141.364
97.3323
317.876
135.773
607.24
357.171
102.872
539.656
864.666
814.543
785.681
217.31
1491.42
218.259
185.14
1357.38
1204.51
1478.69
1376.2
190.47
1197.05
1206.06
975.935
338.357
332.475
338.222
339.129
969.535
910.357
305.325
278.442
328.989
312.62
921.607
324.22
328.027
260.047
263.162
714.121
3369.57
728.406
490.372
501.813
404.512
410.412
1576
1162.1
473.734
1481.05
2051.81
680.808
200.461
215.354
183.764
196.036
672.209
1845.38
881.511
888.705
642.405
648.903
3693.3
1505.04
622.71
707.058
273.249
327.269
2797.4
4892.67
1833.35
2525.8
1226.39
4228.28
2653
3975.11
1240.07
1033.51
3100.48
2182.53
1884.33
2140.84
2455.39
44.5444
165.179
116.377
261.182
3843.33
7231.01
352.051
123.847
131.343
1035.09
2582.55
3022.72
533.494
598.185
1434.89
244.293
260.527
706.618
124.115
86.9677
155.154
455.309
118.072
133.53
1277.59
2073.89
2219.22
1074.46
920.318
2084.92
1811.15
2983.87
2990.97
1076.12
311.02
125.884
132.453
117.742
123.778
302.272
155.764
165.255
502.152
1206.58
503.195
533.392
6024.15
3010.42
627.085
945.31
1915.2
2030.26
569.09
219.084
178.807
267.848
232.059
603.187
1161.98
2812.18
2959.41
1274.14
238.42
110.351
115.829
755.523
744.894
343.298
1750.94
1622.94
789.351
607.528
300.335
313.123
822.256
330.41
336.916
317.091
327.504
809.881
397.381
144.557
152.824
134.74
141.976
390.229
465.428
1095.83
1085.71
1600.46
1532.07
574.205
374.737
808.954
760.144
1082.94
1078.67
430.433
459.116
1115.58
825.257
3872.83
2249.45
865.864
1102.1
620.201
1671.17
1619.74
1827.19
721.747
3329.67
8933.61
463.097
646.537
542.41
571.831
1271.83
2081.96
1516.6
782.634
1824.65
5593.53
1889.98
1788.49
14258.9
1207.75
1609.71
1447.38
1669.77
1294.77
3466.28
3446.75
1755.94
2036.86
3691.52
1306.08
1333.47
272.643
1092.67
430.447
1173.28
317.252
2993.45
2532.62
1240.83
3211.68
3539.23
3257.23
2740.61
1489.63
3358.68
3843.06
2721.33
3199.19
4001.41
2207.78
2578.58
1827.05
2101.37
3802.96
1918.48
1073.31
802.469
1391.06
1152.3
711.041
452.123
1139.83
2439.32
2668.31
1230.36
1082.76
2264.71
2387.81
2283.64
2154.76
936.797
3172.86
3018.88
2608.14
3140.1
2917.93
1057.31
2828.82
2338.26
2510.5
2646.09
1979.21
920.05
1026.53
2854.67
1224.47
1365.7
1070.42
1182.77
2739.76
2806.78
1449.97
1671.92
457.219
492.173
1139.52
904.486
426.925
448.759
1121.8
1150.66
785.063
274.866
302.568
228.88
264.249
780.704
939.259
351.64
399.969
310.177
336.977
858.797
500.463
190.065
217.843
731.699
748.237
1565.54
1695.89
907.459
2128.24
1950.68
2263.01
1552.93
1461.23
1907.97
1624.49
682.974
1344
1550.77
1533
521.122
629.576
483.22
504.231
1520.13
673.202
680.89
651.327
670.581
1301.79
431.137
444.365
409.271
426.487
1278.19
1435.09
465.702
478.665
448.714
461.507
1424.37
2590.86
2761.37
1171.31
1252.46
2442.14
2520.34
1022.97
1023.93
1015.88
1023.14
1035.39
1046.95
1024.95
1031.94
693.895
703.626
683.292
691.024
760.434
990.298
707.454
732.116
1651.19
1847.35
1414.38
1583.1
3406.97
2326.48
2506.87
1923.18
2243.35
1124.44
1098.97
470.587
1712.09
1743.9
1651.14
1700.78
1757.59
558.788
1512.25
1164.38
1071.67
873.488
382.515
1213.28
1470.95
1051.66
1112.95
1577.04
1632.96
1493.49
1557.59
425.549
1078.59
1078.79
3583.03
1697.01
3539.53
3193.2
3540.42
1776.28
3909.48
2139.99
3838.32
3488.51
869.456
994.822
1735.49
1687.49
625.55
688.044
1805.3
1753.16
3532.35
1304.96
586.023
798.731
4875.27
5226.87
1894.24
4993.71
4132.47
2201.71
1210.05
4383.17
3101.25
5082.11
3282.22
1594.85
60.0267
40.8962
35.833
3655.56
3632.94
120.229
66.0952
66.4068
3651.02
1414.35
2606.11
2234.43
336.05
268.977
147.029
274.987
176.043
463.729
1642.71
280.025
305.842
50.6204
60.1926
110.828
422.089
890.815
1103.25
198.019
97.3026
101.958
91.4856
95.8098
193.765
1178.87
1366.15
2648.23
788.178
690.474
371.735
399.887
420.108
900.023
1167.76
1284.68
646.881
103.571
108.603
233.132
308.798
722.239
702.929
680.633
568.663
277.196
797.638
370.352
392.945
3196.07
3045.7
2486.78
1622.18
1593.12
1196.43
2926.92
3560.6
3381.27
1835.54
1011.42
1127.97
1754.71
1207.57
1675.35
1652.84
1671.72
1708.05
3451.15
2783.13
2941.76
3625.06
1960.19
1706.97
893.019
1269.26
165.433
127.412
253.762
1176.11
2396.22
2058.04
4003.3
4084.93
4160.87
3685.97
3897.63
83.4373
107.836
325.633
1721.45
1437.24
1343.08
2004.95
1859.37
2249.19
2945.31
2815
3464.59
3414.43
2903.66
815.226
889.967
1889.75
3227.4
2359.87
2480.02
3120.29
2485.61
2627.03
1060.58
1320.18
1202.07
791.894
558.074
562.922
1147.87
810.434
834.979
568.679
576.684
811.272
161.639
182.66
479.616
635.39
988.636
809.473
1213.3
1173.7
794.855
1652.78
1301.69
1318.3
917.036
924.126
1503.82
1478.44
1499.14
1341.73
1367.21
1336.39
859.6
864.42
842.995
845.641
1229.73
1464.83
903.813
910.395
869.721
875.417
1394.88
731.212
724.695
312.699
339.482
741.71
733.498
525.675
513.339
250.784
1576.68
1585.6
1512.42
1524.76
1729.7
1594.21
1602.88
273.255
551.339
530.095
3352.07
3332.37
2580.6
2671.93
3375.35
3295.09
3318.23
773.273
1574.6
1410.47
344.107
362.909
748.752
652.692
324.88
338.919
1185.67
1183.16
876.742
902.077
1203.4
1190.84
3678.6
1750.73
1194.53
1708.43
14115.8
2832.92
2080.76
3903.77
3455.35
1803.64
1785.66
1219.27
4354.68
4588.37
4520.4
3705.89
1277.6
1840.84
1820.18
2652.3
1497.76
1723.81
3515.88
3637.87
3079.5
2953.79
2346.64
1242.87
1576.58
1389.27
2725.41
3428.4
3252.11
3558
3517.84
2871.8
177.46
250.144
1259.23
2257.46
2215.52
2337.48
2302.68
2121.34
1612.51
1609.31
1621.05
1615.68
2160.84
3045.09
1879.18
1894.39
1814.03
1855.14
3064.72
1937.06
1561.58
1494.41
1604.98
1593.46
1983.44
2841.14
1921.73
1931.79
1906.73
1915.63
2912.78
2421
2374.31
2332.16
2399.36
1092.91
792.545
795.876
1577.66
1133.11
1132.75
1124.55
1132.07
1554.55
3714.54
3757.43
3424.07
3610.27
1649.85
1676.39
1598.72
1623.82
1909.44
1168.1
1569.49
1553.66
1654.96
1131.71
1132.55
1131.93
1131.53
1637.88
1555.13
1575.42
1312.54
1541.4
1910.75
3740.42
3662.83
3110.22
3793.29
1685.98
2200.19
11644.9
1259.75
948.71
959.694
1776.86
5660.4
5616.47
9012.31
5337.01
4860.65
1715.55
1696.13
1206.94
1645.26
1731.57
1860.11
1645.55
1849.58
1627.98
1291.61
1888.44
1733.04
3494
3476.49
3660.71
3104.49
3309.63
1287.75
1431.38
1012.01
534.169
656.45
1038.23
1088.34
773.613
991.86
1277.98
3397.16
3597.63
3497.4
3554.96
4011.18
3981.1
3745.82
2876.51
3619.74
3380.4
3944.51
3840.58
3040.02
3263.77
3454.83
4096.35
3599.79
2937.94
3089.86
1683.74
1516.45
1770.25
1287.78
1559.03
1735.56
1795.56
1737.31
2478.74
1725.05
1671.65
2173.27
1863.46
2533.73
2303.33
1632.14
1626.5
1650.12
1639.77
2349.98
2243.45
1538.72
1562.22
3138.83
3092.33
2792.47
3153.61
3163.52
2996.22
2901.89
2950.87
2621.13
1687.6
1753.88
1590.49
1630.68
2435.42
3322.32
3129.81
2372.38
3537.57
3520.53
3509.41
2769.05
3443.72
3435.42
2125.47
2235.06
3035.14
1090.75
1178.54
667.799
755.592
1126.02
825.966
589.534
614.685
1060.22
1020.55
700.032
1143.1
1259.03
764.791
1140.88
1102.61
1577.86
1296.88
1274.95
1389.32
1328.94
1611.03
2067.86
1988.29
1523.01
1891.71
1940.29
1774.65
1828.79
1499.64
1866.6
1990.81
2142.31
1828.73
987.296
1085.11
1558.68
1511.86
932.525
947.969
1436.13
1457.31
1391.18
1414.11
853.014
856.158
1320.38
1253.88
847.494
849.92
891.303
897.275
1449.48
1412.21
881.144
886.245
2651.1
1958.58
1970.79
1940.11
1947.23
2686.96
2442.18
2077.04
2196.59
1988.74
2018.82
2486.2
1023.11
1515.04
1495.62
1545.49
1530.75
1023.32
1022.53
1428.35
1407.23
1474.53
1452.31
1023.42
1039.19
1631.58
1617.26
1654.09
1644.28
1043.09
1026.48
1572.45
1559.35
1602.77
1587.85
1028.92
1557.49
1567.35
696.95
983.814
980.792
990.533
987.053
700.182
1536.33
1547.21
1629.59
1648.5
823.609
1156.72
1058.84
1387.89
1374.47
927.644
712.15
999.161
994.422
1020.44
1006.09
719.115
1611
1619.35
3154.42
3299.17
3365.97
2785.01
2964.44
2387.95
3314.07
3348.03
3219.24
3275.16
2442.62
2021.44
2929.8
2732.72
3300.91
3145.3
2135.47
1109.8
810.93
824.247
799.473
803.98
1103.09
1722.76
1733.05
1669.65
1688.78
1779.42
1869.09
1496.93
1029.92
1096.92
853.603
919.61
1266.71
1437.01
1799.79
1715.79
1450.86
1058.82
1674.23
1664.18
1696.37
1684.67
1073.59
1595.97
1614.67
1515.86
1537.21
3506.89
2734.35
2859.66
2451.11
2595.26
3393.33
3378.3
3500.08
2993.56
3181.47
3569.32
3811.05
3078.01
3233.28
2764.58
2923.28
3703.01
1731.23
1747.33
1695.88
1714.16
1334.34
1239.44
930.913
1794.27
1818.59
1762.74
1777.92
1718.95
1139.29
1143.23
1134.12
1136.36
1703.36
1791.18
1172.62
1211.41
1148.62
1156.84
1771.61
3646.65
981.372
1035.75
1410.97
4653.32
7519.28
7607.97
6498.14
6827.65
4937.25
2100.67
4692.47
3638.93
3856.42
1213.82
1760.56
1737.34
4383.19
4664.16
4751.17
4092.34
4386.3
5123.2
4790.63
3485.49
4406.73
4147.53
1954.41
1871.46
1374.92
31.7552
31.7647
31.8509
31.7689
31.7852
31.8611
31.792
31.8163
31.8772
31.8254
31.8534
31.8972
31.8622
31.8838
31.9149
31.8887
31.8943
31.922
31.8931
31.8806
31.9151
31.8742
31.8504
31.8984
31.8416
31.8159
31.8796
31.8079
31.7872
31.8641
31.6403
31.6605
31.7372
31.6694
31.7041
31.7622
31.7184
31.768
31.7998
31.7862
31.8435
31.8439
31.8616
31.9056
31.8798
31.9149
31.9231
31.8919
31.9191
31.8904
31.8751
31.8766
31.8281
31.8393
31.811
31.7613
31.7985
31.7457
31.7035
31.764
31.5354
31.5759
31.6373
31.5937
31.6609
31.6893
31.689
31.796
31.7652
31.8387
31.98
31.8578
32.0272
32.1419
31.9342
32.1643
32.169
31.9538
32.1516
32.0621
31.9115
32.025
31.9078
31.835
31.8685
31.7618
31.7547
31.7311
31.6544
31.6874
31.446
31.5162
31.558
31.5462
31.6741
31.658
31.7343
31.9881
31.8242
32.1024
32.55
32.062
32.7286
33.2187
32.2814
33.3096
33.2315
32.3108
33.1147
32.7024
32.157
32.5689
32.2157
31.9558
32.1173
31.8748
31.7769
31.8098
31.655
31.6487
31.3744
31.4833
31.5056
31.5341
31.7744
31.6906
31.8959
32.485
32.077
32.8032
34.557
32.8445
35.5873
40.1005
33.891
40.592
38.7087
33.8615
37.5245
34.8046
33.0241
34.2114
33.0225
32.3568
32.7545
32.1773
31.9292
32.0387
31.732
31.6661
31.3166
31.4734
31.479
31.554
31.9493
31.813
32.1593
33.2978
32.6679
34.0109
40.8479
35.5646
39.1687
45.0669
38.3168
58.8598
55.8931
42.9015
44.7733
41.0844
38.4247
38.4733
34.6945
33.3483
34.018
32.7403
32.2917
32.4673
31.9036
31.7658
31.2672
31.4776
31.4735
31.5903
32.1357
31.9977
32.4246
34.0003
33.5024
34.5767
35.9308
35.5369
46.8277
52.6543
50.7766
85.1401
58.734
50.5925
45.4246
37.2267
35.2663
35.8983
33.5559
32.9247
33.0883
32.1652
31.9619
31.2227
31.4859
31.4796
31.6274
32.2903
32.1775
32.6332
34.466
34.1313
35.3323
36.9919
36.7756
53.1473
62.7397
61.2456
128.916
79.794
72.817
51.7877
39.8667
37.913
37.9067
34.4687
33.7829
33.792
32.4757
32.2404
31.1817
31.4949
31.4881
31.6621
32.4239
32.3247
32.8111
34.9042
34.5704
35.9454
37.9746
37.6887
60.7977
81.7981
78.4906
142.928
89.633
87.4031
55.8092
41.9524
40.4531
39.5675
35.297
34.6891
34.4448
32.7816
32.5545
31.1445
31.5069
31.4975
31.6985
32.5607
32.4569
32.9975
35.4762
35.03
36.7624
39.4939
39.0577
70.9017
102.517
98.0896
138.283
89.9024
90.4729
57.6323
43.2738
42.3568
40.6831
35.924
35.4755
34.9534
33.0365
32.8513
31.1112
31.5238
31.5107
31.7401
32.718
32.5977
33.2203
36.2656
35.6529
37.9284
42.6806
41.0156
85.5094
132.808
125.987
126.339
93.8961
94.6505
57.908
43.8897
43.4884
41.2605
36.3103
36.043
35.2787
33.2126
33.0883
31.0929
31.5697
31.5288
31.8171
32.9654
32.7614
33.5817
37.6792
36.4999
39.3946
47.0578
45.4222
102.638
184.093
171.753
863.456
458.467
514.685
106.759
64.8715
65.8501
57.3231
43.9884
43.9543
41.4128
36.4786
36.3707
35.4306
33.3023
33.2427
31.0633
31.593
31.5763
31.865
33.1732
33.0174
33.9079
39.3388
38.021
42.4339
51.2421
51.9947
192.846
536.595
408.398
447.599
218.926
238.098
100.352
63.0596
64.5065
56.165
43.7329
43.9578
41.2741
36.48
36.4934
35.4464
33.3163
33.312
31.0292
31.6102
31.5982
31.9073
33.3933
33.2262
34.288
42.2257
39.9151
51.0867
324.682
211.259
867.699
518.738
610.959
302.924
115.812
121.614
94.9871
61.2829
62.6052
54.9565
43.3204
43.632
40.9741
36.3603
36.4562
35.3545
33.2597
33.3067
30.9881
31.6165
31.6129
31.9401
33.6572
33.4555
34.7878
46.3236
43.1396
60.3507
412.726
353.058
853.156
434.653
494.404
269.006
109.95
114.151
90.8025
59.7041
60.863
53.8227
42.8781
43.2133
40.6409
36.1987
36.3232
35.2212
33.1682
33.2389
30.9391
31.612
31.6163
31.9641
33.9729
33.7303
35.4139
51.5174
47.5254
71.8887
451.326
425.96
788.939
376.476
418.205
243.945
105.883
108.793
87.7076
58.3834
59.351
52.8445
42.4453
42.7674
40.2984
36.0095
36.1531
35.0595
33.0521
33.1411
30.8828
31.6005
31.6096
31.9857
34.3615
34.0626
36.1872
57.7193
52.9674
84.0694
461.674
455.969
716.35
333.88
364.639
224.595
102.77
105.047
85.544
57.2953
58.09
52.0145
42.048
42.3423
39.9745
35.8128
35.9605
34.8866
32.922
33.0205
30.8205
31.5867
31.5971
32.0117
34.8336
34.4715
37.1111
64.5276
59.4071
94.6279
456.203
461.43
648.403
301.333
324.954
209.115
100.065
102.064
83.8576
56.4569
57.0606
51.3331
41.6914
41.955
39.6774
35.6193
35.7639
34.7128
32.7858
32.8883
30.754
31.5752
31.5835
32.0482
35.3951
34.9653
38.1989
70.7763
66.1887
102.602
442.35
453.315
588.476
275.616
294.356
196.38
97.6413
99.4347
82.3701
55.8738
56.2892
50.8258
41.3785
41.6089
39.4097
35.4339
35.5721
34.5435
32.6482
32.7514
30.685
31.5698
31.5731
32.0999
36.0687
35.5512
39.5191
75.7462
72.1411
108.546
424.435
438.131
536.674
254.736
270.001
185.665
95.4594
97.0745
81.0123
55.4599
55.7588
50.478
41.1196
41.3082
39.1776
35.2597
35.3892
34.3815
32.5117
32.6139
30.6149
31.5743
31.5698
32.1726
36.9119
36.2612
41.0934
79.5959
76.8015
112.909
404.93
419.641
492.107
237.403
250.11
176.482
93.4843
94.9477
79.7658
55.1232
55.371
50.2265
40.9223
41.0646
38.989
35.1001
35.2183
34.2298
32.3784
32.478
30.5453
31.5954
31.5777
32.2791
37.9291
37.1528
42.7283
82.5806
80.4157
115.98
385.216
399.985
453.675
222.743
233.515
168.487
91.6822
93.0189
78.6159
54.8204
55.0452
50.0195
40.7783
40.882
38.8437
34.9584
35.0629
34.0911
32.25
32.3458
30.4784
31.6441
31.6045
32.4377
39.0059
38.1983
44.226
84.8609
83.2117
117.992
366.041
380.352
420.355
210.149
219.42
161.434
90.0235
91.2551
77.548
54.5367
54.748
49.833
40.6705
40.7486
38.7324
34.835
34.9258
33.9666
32.1277
32.2188
30.4172
31.7315
31.662
32.6578
40.0292
39.2696
45.5287
86.554
85.3352
119.144
347.785
361.381
391.271
199.182
207.268
155.141
88.4833
89.6282
76.5486
54.2665
54.468
49.6575
40.5843
40.6473
38.6443
34.7282
34.8069
33.8555
32.012
32.0981
30.3649
31.8604
31.7599
32.929
40.9535
40.2701
46.648
87.7564
86.8971
119.607
330.619
343.388
365.706
189.524
196.656
149.469
87.0414
88.1144
75.6058
54.0066
54.2006
49.4889
40.5106
40.565
38.5708
34.6348
34.7037
33.7561
31.9028
31.9841
30.3245
32.0242
31.8985
33.2305
41.7735
41.1681
47.6071
88.5511
87.9903
119.525
314.59
326.505
343.072
180.932
187.284
144.314
85.6811
86.6943
74.7095
53.7543
53.9429
49.3245
40.4441
40.4935
38.5066
34.5519
34.6132
33.6662
31.7994
31.8764
30.2975
32.2115
32.0693
33.5426
42.4962
41.963
48.4273
89.0096
88.6947
119.019
299.68
310.759
322.897
173.219
178.927
139.592
84.3888
85.3521
73.8511
53.5071
53.6921
49.1624
40.3813
40.4281
38.4479
34.477
34.5325
33.5839
31.7012
31.7744
30.2843
32.4111
32.2606
33.8518
43.1309
42.6628
49.1265
89.1936
89.0791
118.187
285.834
296.121
304.798
166.243
171.411
135.237
83.1535
84.075
73.0235
53.2628
53.4458
49.0009
40.3202
40.366
38.3924
34.4081
34.4593
33.5077
31.6075
31.6774
30.2839
32.6145
32.4619
34.1501
43.6871
43.277
49.72
89.1559
89.2031
117.111
272.981
282.531
288.462
159.887
164.6
131.197
81.9658
82.8524
72.2208
53.0193
53.2019
48.8382
40.2591
40.3049
38.3382
34.3436
34.3917
33.4362
31.5177
31.5847
30.2945
32.816
32.6652
34.4332
44.1732
43.8149
50.2209
88.9414
89.1173
115.856
261.046
269.915
273.638
154.061
158.385
127.43
80.8186
81.6755
71.4381
52.7749
52.9583
48.6732
40.1967
40.2436
38.284
34.2823
34.3281
33.3683
31.4314
31.4959
30.3143
33.0117
32.8655
34.6993
44.5973
44.2848
50.6414
88.5882
88.8648
114.477
249.951
258.197
260.116
148.69
152.679
123.899
79.7054
80.5373
70.6714
52.528
52.7134
48.5045
40.1322
40.1808
38.2288
34.223
34.2673
33.3031
31.3478
31.4102
30.3412
33.1997
33.0595
34.9478
44.9664
44.6944
50.9921
88.1282
88.4821
113.015
239.622
247.299
247.723
143.711
147.41
120.575
78.621
79.4317
69.9171
52.2773
52.4657
48.3311
40.0646
40.1156
38.1717
34.1649
34.2084
33.2397
31.2668
31.3274
30.3736
33.3788
33.2454
35.179
45.2873
45.0509
51.2826
87.5885
87.9998
111.507
229.991
237.151
236.316
139.074
142.521
117.434
77.5611
78.3539
69.1725
52.0216
52.2139
48.1521
39.9931
40.0471
38.1119
34.1072
34.1505
33.1774
31.1878
31.2469
30.4102
33.5486
33.4222
35.3938
45.566
45.3607
51.5216
86.9916
87.4438
109.979
220.996
227.685
225.774
134.736
137.963
114.455
76.5221
77.2996
68.4353
51.76
51.9568
47.9666
39.9172
39.9746
38.0487
34.0494
34.0928
33.1157
31.1104
31.1683
30.4476
33.7021
33.5896
35.585
45.8009
45.6298
51.7122
86.3667
86.8359
108.471
212.604
218.84
216.025
130.701
133.694
111.655
75.5242
76.2653
67.7226
51.5014
51.6936
47.7816
39.8403
39.8975
37.9851
33.9939
34.0349
33.0573
31.0386
31.0913
60.092
59.0874
51.029
125.494
183.64
210.408
82.8924
94.6309
81.9658
77.3924
73.8427
57.9444
170.244
267.969
268.743
218.43
239.082
148.097
96.6819
92.634
66.6974
172.177
243.102
234.141
268.259
264.91
174.522
123.86
117.862
79.3334
157.835
191.259
187.762
213.174
209.7
167.6
167.992
157.587
91.8478
1293.21
1582.09
1510.31
822.209
861.956
1113.01
144.894
260.645
238.917
184.252
180.878
151.365
377.713
312.938
139.385
757.472
1448.58
1416.5
2123.37
1825.51
1204.05
390.579
405.644
621.348
127.784
212.204
200.448
232.696
216.719
129.536
65.9077
48.4232
40.2956
1508.05
1055.41
1969.53
39.8883
47.9426
56.9708
1722.48
1720.43
60.0876
65.7091
73.4509
42.005
53.4798
47.1852
475.346
582.574
637.38
206.022
263.556
198.965
70.1938
61.6074
91.8554
48.4168
55.0799
58.8866
47.5736
51.2354
45.7598
37.4353
37.2067
35.4818
49.0028
39.3476
39.9502
38.7357
39.1826
48.2945
1315.47
1727.39
1726.01
1296.79
1303.81
1054.77
86.3038
81.7077
132.145
57.9913
68.5333
70.9304
62.4812
65.7248
55.9248
38.6586
38.2974
36.1217
54.6811
41.2898
42.2676
40.1832
40.9931
53.919
86.4033
82.9225
61.8709
207.29
155.401
158.61
138.332
140.976
185.612
880.787
1082.36
1056.84
1411.46
1396.79
1107.12
90.5175
90.0473
143.07
63.7494
75.8236
76.7569
72.9354
74.5615
62.6674
40.4791
39.9674
37.0198
62.2163
44.1305
45.4308
42.613
43.7334
61.1152
108.921
104.062
72.4319
335.946
214.705
218.835
190.436
194.564
267.136
554.824
706.382
680.425
1058.67
965.09
652.436
44.8939
43.2793
38.2507
73.0398
47.7272
49.5643
45.8981
47.2024
71.6013
142.894
135.244
87.7093
554.035
314.652
310.074
268.444
275.077
478.859
1816.43
1912.3
2363
358.033
662.066
586.717
495.04
478.815
394.122
51.2375
47.6753
40.0429
89.6715
53.2801
58.4315
50.2379
52.4332
86.8723
203.443
188.642
104.389
1247.4
920.365
929.009
659.258
667.17
892.299
2695.65
3486.7
302.354
600.748
2702.31
2070.91
1354.35
1192.79
689.457
126.064
193.598
165.115
293.921
266.894
155.939
85.1174
100.201
91.0988
153.466
144.945
112.806
1007.81
1269.57
1286.78
688.656
735.212
577.473
144.175
174.058
116.881
444.571
325.906
298.537
466.911
445.255
730.106
167.621
86.1226
90.0952
82.0819
84.9307
164.288
57.0754
72.3977
67.2248
216.651
388.475
372.591
493.698
481.532
227.204
174.192
317.177
300.882
368.476
356.353
200.895
1141.96
1435.51
1424.08
1719.71
1706.31
1306.61
261.063
266.944
160.65
1009.48
563.627
564.338
586.857
592.117
941.666
868.226
505.526
487.009
564.234
564.826
1001.75
149.819
244.78
258.025
249.236
182.767
186.535
161.874
165.179
222.789
65.4113
91.341
87.6032
300.637
382.31
375.873
445.728
441.256
350.986
247.75
509.358
497.616
368.147
359.425
286.471
718.458
1202.98
1092.08
1032.96
1010.63
822.58
254.275
246.026
173.341
641.164
495.154
505.633
282.117
295.871
590.83
873.936
573.135
580.522
515.98
526.177
761.504
174.874
263.189
256.807
435.577
255.748
262.028
223.193
227.759
369.675
77.4793
115.97
110.617
455.327
591.948
587.35
815.619
811.836
592.517
363.339
455.981
450.481
582.81
578.333
440.302
431.468
529.969
512.113
655.27
632.068
504.492
866.497
636.85
649.689
311.471
320.779
646.461
90.5539
154.411
145.608
856.984
1179.25
1177.51
609.628
821.174
818.49
1169.49
1141.29
811.364
311.862
487.39
439.172
564.429
505.529
295.792
2023.49
1645.86
1727.99
11097.2
2308.74
3523
935.658
941.681
1255.57
125.306
246.261
208.658
1083.82
1038.95
838.735
4817.43
4861.21
8821.24
944.243
1188.15
1133.53
36.5395
36.2639
34.8056
44.7151
38.0934
38.5928
37.1541
37.8942
44.1288
55.8129
54.3605
47.9055
86.0444
62.5654
65.2974
58.9134
61.5453
82.3142
940.253
1235.77
896.506
65.8606
64.3615
54.0943
139.449
77.5155
80.9501
72.3344
76.3353
136.003
95.2568
89.5752
137.066
66.1143
77.9781
78.0152
77.3995
77.7966
65.7752
944.107
1625.66
1403.3
1240.28
1187.68
954.372
407.241
442.565
826.457
274.711
351.811
339.943
425.214
364.857
282.813
109.465
68.9022
71.333
66.0608
68.2093