/*--------------------------------*- C++ -*----------------------------------*\
| =========                 |                                                 |
| \\      /  F ield         | OpenFOAM: The Open Source CFD Toolbox           |
|  \\    /   O peration     | Version:  v1912                                 |
|   \\  /    A nd           | Website:  www.openfoam.com                      |
|    \\/     M anipulation  |                                                 |
\*---------------------------------------------------------------------------*/
FoamFile
{
    version     2.0;
    format      ascii;
    class       volScalarField;
    location    "800";
    object      p;
}
// * * * * * * * * * * * * * * * * * * * * * * * * * * * * * * * * * * * * * //

dimensions      [0 2 -2 0 0 0 0];


internalField   nonuniform List<scalar> 
12556
(
658.447
657.652
655.689
651.588
646.09
633.837
613.947
582.229
534.324
465.213
370.963
251.182
111.427
-36.6682
-179.04
-304.364
-406.909
-486.17
-544.486
-585.619
-619.784
-635.758
-644.957
-649.281
658.924
658.406
657.047
653.992
648.499
638.035
620.307
593.964
550.693
486.485
396.105
277.371
134.692
-19.5016
-168.726
-299.581
-405.621
-486.675
-553.683
-592.36
-625.936
-640.088
-648.109
-651.855
660.141
660.254
660.24
659.43
655.519
649.214
637.149
615.283
579.657
522.398
434.749
309.775
149.729
-27.006
-194.666
-334.342
-440.71
-517.07
-579.482
-611.621
-640.332
-650.526
-656.048
-658.593
661.555
662.554
664.404
666.704
665.585
665.356
661.765
648.52
626.47
583.826
505.626
373.386
180.205
-43.468
-245.556
-397.943
-502.049
-569.073
-619.488
-640.819
-661.2
-665.674
-667.627
-668.448
662.206
664.212
668.162
674.054
676.803
684.107
691.67
691.574
690.146
674.432
623.57
493.265
237.559
-85.4594
-346.33
-510.082
-598.2
-642.171
-672.38
-678.201
-685.718
-682.94
-680.561
-679.294
661.123
664.131
670.178
679.712
687.006
702.274
721.822
737.801
764.399
792.929
805.852
727.783
353.783
-211.495
-553.872
-690.219
-731.181
-735.916
-734.382
-719.87
-710.747
-699.779
-692.651
-689.112
657.383
661.27
669.141
681.864
693.811
716.283
746.716
778.679
833.124
913.093
1037.88
1215.9
710.59
-662.329
-951.005
-951.755
-897.989
-841.6
-797.527
-760.358
-732.469
-713.384
-701.642
-695.91
650.16
654.686
663.867
678.871
694.919
722.664
760.787
804.921
877.776
988.674
1178.87
1587.36
-2055.15
-1569.87
-1261.89
-1068.46
-940.863
-851.149
-792.504
-746.578
-720.716
-705.183
-697.646
638.818
643.671
653.498
669.635
688.773
719.157
760.654
810.744
887.857
994.649
1136.68
1272.59
-3488.04
-2078.49
-1501.13
-1192.74
-1009.11
-882.947
-809.001
-749.224
-719.097
-701.215
-692.546
623.014
627.856
637.625
653.676
674.648
704.99
745.825
796.303
868.099
958.433
1058.6
1136.81
-3407.93
-2146.07
-1556.23
-1224.84
-1025.36
-883.86
-804.776
-737.948
-706.827
-688.423
-679.468
602.724
607.234
616.288
631.132
652.662
680.677
717.755
764.878
827.796
904.474
989.312
1068.51
-2633.42
-1854.32
-1426.79
-1157.85
-984.547
-851.682
-778.833
-712.456
-683.624
-666.519
-658.128
578.208
582.107
589.901
602.66
623.584
647.473
678.566
719.809
772.147
837.702
919.382
1020.63
-1758
-1407.91
-1186.15
-1019.39
-898.032
-791.889
-733.821
-674.491
-650.574
-636.231
-629.106
550.006
553.101
559.232
569.144
588.448
606.983
630.589
663.83
702.947
753.727
826.191
945.721
-774.959
-916.934
-957.809
-915.067
-849.496
-785.7
-714.421
-675.212
-627.33
-609.784
-599.082
-593.681
518.795
521.019
525.369
532.288
549.28
561.851
576.988
600.757
623.6
651.321
688.474
784.849
224.564
-390.011
-603.501
-673.815
-682.88
-667.433
-629.977
-609.406
-574.635
-563.857
-557.074
-553.564
485.399
486.667
489.07
492.727
506.798
512.934
519.181
532.501
537.491
536.882
520.093
456.195
179.606
-169.425
-381.016
-490.641
-540.285
-557.369
-547.004
-542.142
-519.93
-515.415
-512.292
-510.599
450.646
450.987
451.52
452.106
463.201
463.521
461.873
465.407
455.344
433.328
386.826
294.813
125.633
-88.0099
-254.888
-364.108
-428.09
-462.554
-470.608
-477.4
-465.929
-466.637
-466.623
-466.514
415.366
414.89
413.798
411.738
419.948
415.316
407.267
402.947
382.311
347.75
293.251
208.36
88.8884
-55.465
-181.042
-276.088
-341.41
-383.264
-403.059
-417.595
-414.501
-419.205
-421.629
-422.749
380.31
379.16
376.742
372.553
378.193
369.765
357.125
347.287
320.791
281.809
228.278
155.486
64.8463
-40.2894
-136.567
-215.872
-276.089
-319.236
-344.946
-363.867
-366.792
-374.239
-378.432
-380.437
346.092
344.42
340.994
335.229
338.742
327.694
312.172
298.968
270.123
231.115
181.827
120.286
48.52
-32.076
-107.826
-173.544
-226.832
-267.911
-295.675
-316.513
-323.322
-332.422
-337.743
-340.366
313.183
311.144
307.022
300.21
302.061
289.438
272.443
257.546
228.585
191.684
147.516
95.4414
37.0195
-26.979
-87.9682
-142.643
-188.98
-226.548
-254.061
-275.168
-284.216
-294.097
-300.022
-302.979
281.92
279.657
275.119
267.721
268.345
254.997
237.583
222.173
194.391
160.511
121.404
77.1296
28.6711
-23.4104
-73.4264
-119.225
-159.236
-192.852
-218.856
-239.205
-249.285
-259.313
-265.44
-268.523
252.519
250.15
245.433
237.823
237.599
224.168
207.071
191.925
166.012
135.445
101.015
63.1779
22.4643
-20.6558
-62.2496
-100.87
-135.335
-165.042
-188.922
-207.93
-218.209
-227.953
-233.992
-237.049
225.083
222.706
217.995
210.463
209.701
196.647
180.351
165.954
142.229
114.956
84.7405
52.2662
17.7607
-18.3711
-53.3147
-86.0627
-115.731
-141.784
-163.303
-180.679
-190.613
-199.796
-205.555
-208.481
199.633
197.321
192.756
185.514
184.458
172.093
156.894
143.529
122.097
97.9487
71.5
43.5475
14.1406
-16.3808
-45.9431
-73.8215
-99.3527
-122.082
-141.215
-156.853
-166.11
-174.571
-179.927
-182.657
176.12
173.927
169.61
162.805
161.642
150.162
136.227
124.044
104.886
83.6335
60.5482
36.456
11.3183
-14.5913
-39.7077
-63.4949
-85.4495
-105.193
-122.028
-135.934
-144.324
-151.985
-156.87
-159.365
154.452
152.415
148.415
142.142
141.01
130.529
117.933
106.997
90.0317
71.4324
51.355
30.5978
9.09344
-12.9503
-34.3277
-54.6336
-73.4811
-90.559
-105.236
-117.476
-124.909
-131.743
-136.127
-138.369
134.503
132.646
129.005
123.323
122.325
112.897
101.658
91.9802
77.0906
60.9143
43.5354
25.6911
7.32189
-11.4268
-29.6114
-46.9196
-63.0509
-77.7509
-90.4311
-101.103
-107.547
-113.563
-117.441
-119.426
116.121
114.459
111.203
106.141
105.353
96.9943
87.0941
78.6534
65.7106
51.7481
36.8007
21.5279
5.89748
-10.0014
-25.4214
-40.1188
-53.8588
-66.4332
-77.2774
-86.4922
-91.949
-97.1766
-100.559
-102.29
99.1434
97.6834
94.8257
90.3952
89.8734
82.5749
73.9744
66.7349
55.6096
43.675
30.931
17.951
4.74071
-8.66061
-21.6564
-34.0553
-45.673
-56.3398
-65.4982
-73.3653
-77.8577
-82.3351
-85.2397
-86.7268
83.402
82.1466
79.6904
75.8906
75.6784
69.417
62.0676
55.9861
46.5562
36.4877
25.7536
14.8388
3.79072
-7.39394
-18.238
-28.5909
-38.3085
-47.2532
-54.86
-61.4823
-65.0402
-68.8092
-71.2589
-72.5128
68.7168
67.6664
65.611
62.4359
62.5725
57.3203
51.1711
46.2028
38.3581
30.0169
21.1301
12.0947
3.00021
-6.19262
-15.1035
-23.6146
-31.6146
-38.9927
-45.1645
-50.6335
-53.2827
-56.3827
-58.3997
-59.4315
54.9392
54.0899
52.4299
49.8689
50.3779
46.1028
41.1055
37.2094
30.8533
24.1219
16.9473
9.64064
2.33174
-5.04872
-12.2012
-19.035
-25.4659
-31.4059
-36.2396
-40.634
-42.4067
-44.8747
-46.4818
-47.3042
41.8073
41.1638
39.9005
37.9534
38.9072
35.5966
31.7099
28.851
23.9015
18.682
13.1092
7.41119
1.75497
-3.95439
-9.4867
-14.7741
-19.7548
-24.3603
-27.9337
-31.3162
-32.1841
-34.0434
-35.2543
-35.871
29.4606
28.9972
28.1077
26.7424
28.0568
25.6519
22.8398
20.9921
17.3806
13.592
9.53203
5.3498
1.24517
-2.90146
-6.92101
-10.7645
-14.3886
-17.7407
-20.1124
-22.5378
-22.6306
-23.9241
-24.769
-25.2087
16.6858
16.4706
16.0007
15.2789
17.4958
16.1108
14.355
13.5133
11.1827
8.75513
6.13746
3.40366
0.783123
-1.87998
-4.46827
-6.94618
-9.28528
-11.4444
-12.6438
-14.1447
-12.9291
-13.6226
-14.0738
-14.2796
7.53717
7.35023
7.12016
6.70324
7.64164
6.74098
6.01936
6.31712
5.21263
4.07332
2.84992
1.50091
0.365287
-0.87474
-2.0934
-3.26388
-4.37159
-5.38374
-5.31606
-5.97618
-5.71412
-6.08203
-6.28951
-6.46219
1304.77
-3699.89
-2146.12
1147.31
-3706.35
-3786.79
1075.21
-2862.54
-3626.15
1027.29
-1915.5
-2742.48
953.031
-831.253
-864.727
-1034.18
-1799.84
811.318
312.881
-787.147
177.669
-403.324
-938.302
1588.13
871.818
-1839.1
-488.459
-4613.04
-2476.66
-3402.32
-2193.3
-1675.51
1077.4
1139.49
1262.31
-5216.69
-5311.66
-3473.05
-2395.47
-2301.26
1006.02
1065.71
1128.29
1107.54
1131.25
1169.24
-3977.68
-4663.44
-2741.65
-2109.85
-2359.15
938.027
1013.11
1058.64
1050.74
1088.48
1098.09
-2684.93
-3238.7
853.15
940.918
1005.87
992.061
1055.59
1074.89
-1571.81
-1499.45
-2008.87
726.681
799.507
929.013
900.178
1000.84
1020.99
522.851
284.636
321.57
1549.17
1268.52
2179.98
1618.8
-5304.38
-4684.39
-3233.86
-4495.08
-5161.73
1172.73
1191.39
1185.6
1189.06
1176.43
1250.25
1191.98
-4702.9
-5196.97
-3794.8
-5077.07
-4618.23
-5170.47
-5095.65
-3814.09
1100.64
1126
1098.6
1129.28
1102.77
1174.42
1132.18
-3319.66
-3924.87
-3213.23
-3828.59
-3249.76
-4578.97
-3919.08
-3325.38
1076.49
1088.3
1045.17
1091.47
1080.57
1101.29
1091.34
-2082.82
-2607.83
1023.36
1054.07
986.494
-1535.12
1059.48
1027.93
1078.95
1061.16
-1569.97
-973.472
-1428.99
-1527.89
1035.3
1001.03
889.646
-62.5308
1007.84
921.104
1025.93
1007.24
-139.423
1155.3
1290.53
1501.87
1479.66
1610.47
2060.21
-5266.39
-2707.75
1202.51
1195.59
1264.19
-3205.63
-1865.76
-1608.16
-1995.39
-1941.44
-1878.27
-2139.46
-191.337
-480.287
-840.062
1282.88
1548.67
1431.68
1229.26
2977.73
2154.42
-2404.78
-4330.18
-3004.58
-2181.09
-2468.45
-2267.71
-2562.78
-2054.25
-3172
-2637.47
-2386.43
-1161.23
-342.608
-481.259
1423.62
1794.54
2200.35
-2081.18
-312.02
1233.87
-5402.1
-3931.85
-5292.1
-2649.13
-5113.47
-3609.51
-5278.37
-5287.55
-4306.89
-4353.53
-2848.89
-3144.78
-2918.4
-3122.09
-2823.43
-3491.83
-3167.47
-2997.67
1064.28
1036.61
1026.17
-1548.74
-1795.69
-1872.57
1007.05
968.008
953.015
986.591
972.698
1008.04
1428.5
1249.89
1387.72
1269.85
1469.45
1178.37
1251.14
1349.08
1969.07
2141.25
2832.11
1519.39
2039.21
1875.36
2036.54
1486.98
-5129.83
-5093.41
1182.77
1180.68
1182.21
1213.59
1164.83
1178.05
1177.19
1165.86
1206.11
-4943.52
-4973.63
-4882.11
-4330.54
-4424.04
-4142.45
-4289.61
-4851.79
-5171.16
-4469.79
-4408.01
-4444.9
-4473.76
-5162.32
1114.03
1112.07
1157.11
1153.68
-3568.12
-3523.31
-3614.22
1087.38
1086.29
1093.79
1093.2
-2778.74
-2488.4
-2380.58
-2508.82
-2800.44
1033.61
1004.65
991.041
1022.28
1009.32
1036.95
-1207.41
1041.02
1037.26
1069.05
1068.39
-1882
-1206.56
-1221.31
-1466.86
946.732
923.811
995.372
1009.42
471.681
157.58
1014.37
-336.734
110.923
-254.374
1014.05
-392.017
-282.074
78.9007
-2990.09
-2069.39
-2207.26
560.472
536.8
764.948
656.888
660.297
956.164
196.605
-123.35
-296.338
3958.77
-2238.54
-2387.78
-900.782
-1139.63
-1161.18
-140.786
-378.029
-118.659
2320.36
2551.15
3016.79
-2212.33
-67.4777
1770.03
-5257.89
-5757.74
-5720.73
-5314.79
-4117.33
-4303.83
-4130.18
-4911.95
-4776.62
-4537.86
1091.14
1076.04
1069.98
1086.19
1078.34
1092.19
1048.88
1039.81
1065.28
1001.9
982.438
977.619
858.818
594.688
341.789
-5245.7
-5699.32
-5773.55
-4943.81
-4101.62
-3762.15
-4369.1
-4186.2
-4974.21
-4813.54
-5076
-4959.28
-5113.25
1109.33
1099.1
1089.16
1108.07
1110.02
1106.14
-4076.26
-3924.07
-3790.53
-3571.77
-3333.86
-3547.96
-4285.77
-3897.49
-4085.3
-3619.68
-3829.99
-4240.59
1082.9
1059.41
1051.77
1068.02
1061.79
1083.98
1091.18
1104.73
1101.17
1092.81
1103.65
1084.81
1097.63
1101.83
1106.83
1099.58
1096.78
1091.32
-2305.73
-2448.26
-2176.48
-1401.39
-1395.18
1053.81
1023.8
1073.56
1081.17
1092.01
1083.56
1063.96
-1699.45
913.818
912.79
875.589
975.725
967.951
998.004
124.274
373.061
133.736
1008.59
443.831
673.412
507.848
626.273
1015.22
1011.92
-4561.43
-3149.09
-4177.55
-3320.13
-3374.94
-1900.28
-2027.1
-2045.95
1203.68
1193.08
2683.74
2968.49
3631.12
2760.05
2552.47
-2540.45
-2391.76
-2343.73
-2400.02
-2559.31
-1178.3
-1012.53
-1018.72
-1020
-1183.14
-810.827
-969.24
-590.28
-606.382
-761.84
-400.356
-553.693
-493.179
-5631.68
-4970.94
-4483.36
-5407.14
-5103.7
-4292.65
-3600.79
-4283.45
-5612.78
-5572.7
-5262.18
-5310.26
-5697.92
-5634.23
-4514.48
-4357.25
-4165.85
-4410.99
-4580.22
-4186.41
-4361.66
-4622.96
-4492.72
-4733.15
-4562.36
-2978.01
-3029.81
-2998.84
-2915.76
-3037.91
-3351.65
-3250.47
-3380.69
-3079.07
-3207.33
-3302.73
-1752.21
-1726.12
-1855.62
989.128
984.438
999.229
1009.58
996.245
991.593
1328.96
1306.43
1331.98
1403.97
1333.68
1539.09
1432.83
1358.16
1205.68
1255.03
1224.92
1314.43
1267.65
1216.67
1694.71
1733.52
1581.16
1744.58
1664.27
-5640.32
-5672.1
-5220.49
-5796.67
-5796.19
-5792.19
-5633.85
-5495.49
-5803.53
-5666.48
-4951.21
-5480.11
-5625.84
1178.09
1182.63
1184.78
1183.87
1183.09
1180.41
1190.48
1191.82
1186.89
1189.55
1167.1
1198.03
1189.87
1218.08
1201.93
1167.56
1174.89
1185.02
1183.78
1188.2
1185.75
1175.64
-5211.19
-5112.3
-4848.06
-5076.73
-5348.55
-5235.08
1122.93
1117.86
1133.05
1123.65
1111.01
1110.23
1115.3
1110.94
1178.81
1167.39
1191.02
1182.35
1146.82
1135.52
1163.46
1151.36
-3594.42
-3729.92
-3424.04
-3552.42
-3648.89
-3972.7
-4127.28
-3775.83
-3924.49
1097.42
1103.66
1090.54
1109.12
1099.86
1104.04
1110.93
1099.25
1084.78
1103.23
1096.2
1099.98
1100.68
1096.26
1104.28
1103.44
1108.87
1104.02
1097.52
1101.6
1098.38
1097.05
1091.58
1096.53
1098.3
-2569.17
-2635.09
-2697.07
-2556.75
-2743.81
-2675.08
-1193.8
-1352.55
-1386.49
-1190.36
1051.9
1028.6
1078.19
1079.25
1072.02
1065.47
1085.55
1079.45
-1772.89
994.078
964.18
956.504
652.322
552.215
1007.77
243.825
414.919
299.559
1011.86
-489.881
-50.0352
181.612
-94.0086
998.477
-1798.8
-1469.81
-925.446
-2194.23
-2246.68
-1046.03
-1079.67
-1472.73
-2257.19
-973.963
-966.59
-814.357
-1982.95
-1518.64
-1459.34
3018.55
3374.99
3964.33
-1961.52
292.96
2416.47
-1070.7
-616.007
-2071.05
-4291.81
-4864.19
-5170.88
1148.74
1135.06
1120.25
1154.53
1140.11
1154.52
-1552.3
-1682.35
-1700.28
-2095.93
-1854.59
-1787.8
1004.75
998.974
1012.27
-5261.56
-5432.79
-4907.09
1115.53
1102.88
1112.91
1122
1123.9
1132.7
1135.2
1145.62
1140.97
1023.19
1011.98
1007.36
-1550.43
-1504.75
-1493.45
1032.53
1037.37
1029.52
-1632.71
-1647.54
-1559.51
-1391.45
-1377.37
-1509.21
1009.53
1024.29
1031.13
1030.98
1003.45
-5132.19
-3237.42
-1920.19
-1979.16
-1986.87
-2188.81
-2057.39
-2016.99
1213.89
-3617.86
-3092.63
-3659.15
-2303.49
-2361.1
-2227.91
-817.803
-833.095
-664.24
-665.211
-760.831
-1090.54
-445.965
-2228.75
-5455.41
-5207.38
-5033.09
-5745.26
-5684.86
-2891.88
-2921.93
-2876.05
-3161.09
-3152.4
-3125.68
-2750.23
-2872.07
-2951.74
-3459.82
-3409.95
-3454.11
-1864.67
-1841.44
-1871.5
1384.88
1416.76
1269.51
1289.34
1314.99
1294.86
1180.3
1199.12
1193.78
1276.28
1260.08
1235.85
1991.16
1793.77
1769.23
1931.26
1890.08
2031.74
1462.3
1504.77
1537.15
1177.65
1179.64
1189.17
1180.83
1181.67
1181.94
1201.88
1204.12
1191.44
1190.75
1167.17
1174.41
1172.98
1190
1185.9
1175.17
1173.42
1176.89
1178.84
1173.01
1174.83
1170.11
1116.99
1122.29
1119.67
1107.63
1110.6
1114.92
1164.79
1175.28
1165.43
1176.69
1172.33
1205.23
1201.65
1136.69
1167.93
1163.55
1144.41
1149.65
1161.1
-3747.49
-3799.73
-3494.9
-3542.09
-3567.09
-3851.95
-3873.36
-3741.66
-3876.53
-3735.27
1021.07
1014.59
1025.44
1046.23
1030.85
1024.21
1044.76
1050.09
1045.16
1034.08
1037.65
1040.6
-1879.68
968.24
967.947
974.481
739.187
976.383
343.239
488.383
615.223
1020.4
1017.47
1013.45
-395.195
-249.994
-223.888
-237.526
1011.58
1018.2
1020.87
-126.953
-201.084
-350.534
-2108.78
-2143.23
-2232
-2185.78
-2165.38
3785.44
4408.68
3472.71
-2286.39
-2314.36
-2245.23
-2405.93
-2354.38
-2341.02
-1052.17
-149.76
-2034.71
-5499.53
-5506.28
-5456.02
-5476.22
-5745.96
-5611.1
-5618.71
-5592.12
-5603.07
-5734.87
-4872.51
-4795.86
-4837.86
-4702.15
-4752.26
-4828.57
-5745.94
-5588.98
-5556.48
-5623.55
-5614.8
-5774.66
-5033.67
-4956.1
-4994.31
-4880.41
-4918.88
-4999.4
-5423.32
-5441.1
-5351.06
-5388.77
1104.09
1099.42
1099.54
1093.87
1090.78
1089.11
1095.23
1093.38
1097.56
-1507.87
-1560.34
-1393.53
-1464.23
1064.1
1065.37
1065.93
1063.38
1024.17
1027.36
1037.13
1021.17
1084.43
1082.09
1079.5
1087.62
1085.17
1088.81
1073.56
1072.14
1076.63
1061.04
1066.77
-1708.9
-1700.17
-1687.74
-1564.34
943.199
1003.15
1158.06
1000.1
989.677
987.161
1010.55
378.029
358.047
1143.41
1010.02
770.179
1016.27
1025.69
1020.61
1006.15
-4805.41
-5087.24
-4889.5
-3960.56
-3741.62
-2891.53
-4606.71
-4300.72
-3275.36
-3403.26
-2041.21
-2027.98
-2038.45
1208.35
1175.11
3206.23
3090.82
2908.99
2272.27
2138.49
2702.92
2457.67
2537.94
-2467.21
-2412.5
-2507.22
-1031.7
-1031.87
-1021.47
-1126.7
-847.067
-831.696
-818.232
-961.972
-912.179
-904.062
-590.976
-649.329
-649.202
-474.748
-475.726
-520.383
-5484.6
-5360.74
-5550.6
-5311.66
-5540.21
-5625.55
-5657.74
-5603.97
-5588.73
-5494.22
-5509.54
-5494.34
-5481.81
-5570.22
-5672.36
-5558.24
-5576.54
-5526.14
-5541.81
-5653.56
-4465.38
-4392.81
-4441.34
-4463.28
-4525.63
-4237.18
-4261.79
-4227.39
-4310.32
-4673.45
-4713.62
-4678.55
-4593.65
-4648.98
-4490.12
-4541.7
-4618.35
-3014.94
-2941.68
-2927.48
-2955.88
-2890.57
-2941.58
-3082.23
-3109.39
-3058.63
-3315.38
-3357.18
-3386.19
1354.17
1286.66
1222.29
1208.06
1187.89
1225.64
1246.79
1234.74
1703.67
1782.58
1834.79
2020.87
1906.82
1594.96
1559.14
1629.19
-5650.66
-5479.16
-5460.7
-5522.57
-5498.93
-5663
-5804.18
-5796.31
-5606.32
-5779.02
-5784.29
-5726.79
-5772.44
-5566.27
-5789.69
-5805.09
-5849.78
-5725.89
1179.86
1181.21
1178.81
1181.95
1181.61
1180.95
1196.59
1199.14
1191.8
1194.13
1176.37
1175.5
1167.85
1170.61
1181.51
1178.15
1177.27
1176.51
1172.8
1173.82
1176.69
1177.55
-5181.95
-5097.32
-5127
-5029.12
-5063.05
-5144.2
-5305.22
-5231.41
-5301.5
-5154.21
-5185.62
-5266.51
1121.85
1122.95
1123.06
1118.88
1121.67
1120.16
1128.7
1126.13
1133.56
1122.1
1122.15
1125.22
1111.14
1112.75
1111.74
1112.85
1113.19
1110.93
1113.12
1112.72
1115.46
1110.66
1110.84
1111.59
1185.82
1181.28
1175.14
1178.45
1182.45
1170.11
1174.26
1171.29
1195.2
1190.03
1150.92
1147.76
1142.89
1145.6
1148.76
1137.92
1133.24
1136.95
1159.49
1161.77
1165.94
1153.49
1157.61
1155.45
1159.44
1155.34
-3678.4
-3706.85
-3621.86
-3592.38
-3627.23
-4018.33
-4049.79
-4009.47
-4164.26
-4100.52
-4068.94
-3818.1
-3854.22
-3820.76
-3964.43
-3919.83
-3871.94
1098.69
1095.4
1094.01
1098.77
1097.18
1101.1
1104.7
1101.23
1106.72
1109.09
1100.69
1091.5
1088.2
1089.11
1092.96
1092.47
1092.12
1097.74
1093.79
1096.39
1106.65
1104.42
1107.14
1108.95
1111.11
1106.58
1107.62
1105.74
1098.28
1099.61
1096.31
1096.52
-2652.87
-2634.36
-2683.91
-2544.68
-2589.65
-2624.13
-2806.3
-2841.48
-2726.39
-2739.64
-2751.15
-1322.64
-1322.96
-1379.05
-1200.48
-1256.5
-1270.33
1054.7
1047.47
1065.7
1062.09
1034.06
1034.4
1030.7
1036.97
1036.33
1042.71
1039.78
1077.91
1076.06
1075.94
1077.76
1076.66
1078.26
1084.21
1078.05
1077.3
1076.37
1077.23
1081.79
-1822.24
982.993
980.096
992.429
607.858
632.15
704.73
561.109
571.162
544.509
1008.85
347.176
291.702
219.631
1011.98
1013.72
1011.71
-466.945
43.4325
-21.2945
161.297
150.245
161.382
-42.1478
-170.063
-155.323
-51.3994
1008.49
1017.66
1011.29
608.808
582.224
563.035
570.828
528.832
504.478
511.266
448.142
420.857
422.521
333.757
308.927
299.304
186.088
171.208
144.743
18.1446
18.3357
-24.8701
-147.646
-133.549
-186.698
-291.834
-269.74
-323.669
-405.98
-382.045
-430.048
-490.464
-468.94
639.178
621.203
590.353
613.089
580.293
539.32
565.831
508.769
460.13
484.221
391.351
344.839
353.476
220.436
192.449
170.701
14.3066
17.5181
-37.8596
-184.892
-154.626
-229.34
-345.521
-302.377
-378.522
-460.993
-416.996
-483.537
-539.074
-500.311
680.166
675.67
633.482
672.795
657.32
597.132
648.972
608.877
529.552
588.696
498.212
412.388
455.773
287.542
233.315
219.557
0.745005
12.346
-70.8282
-261.219
-199.19
-314.351
-442.162
-364.75
-475.651
-552.366
-479.815
-571.035
-611.946
-555.252
726.4
740.936
691.473
745.717
758.659
680.513
761.584
760.121
641.545
753.644
694.118
536.548
652.618
425.922
312.814
315.704
-51.9305
-6.42319
-164.833
-425.045
-290.785
-487.142
-612.981
-476.761
-638.232
-685.4
-581.582
-694.336
-708.804
-633.932
769.525
803.899
757.405
817.48
865.959
786.069
885.281
954.139
806.39
980.273
1053.51
765.446
1060.23
777.675
483.169
646.881
-298.544
-82.9894
-487.974
-788.532
-490.997
-829.694
-877.342
-668.936
-878.614
-863.093
-725.792
-854.386
-825.009
-736.551
800.205
849.742
817.588
869.774
944.804
889.865
976.452
1104.2
1001.05
1163.63
1500.62
1173.37
1402.64
1558.74
1172.1
996.927
-119.466
129.897
-965.629
-1017.36
-797.869
-1405.5
-1233.92
-960.466
-1185.21
-1062.07
-912.648
-1027.86
-942.003
-855.063
811.309
866.6
856.829
888.528
967.239
955.916
998.585
1111.5
1119.13
1179.91
1247.29
1250.36
1564.27
1653.77
1689.78
-2775.73
-2293.91
-1827.97
-1987.74
-1557.37
-1325.29
-1455.87
-1226.97
-1109.29
-1169.05
-1032.52
-968.361
801.691
854.867
866.104
875.274
944.242
964.696
969.692
1050.58
1098.44
1116.82
1149.64
1175.81
1245.51
1247.84
1276.7
-3602.6
-2938.3
-2803.08
-2170.78
-1679.91
-1611.02
-1561.64
-1294.08
-1254.7
-1226.57
-1068.34
-1047.35
774.174
821.544
848.288
839.433
898.082
934.303
919.122
984.455
1033.94
1040.5
1062.1
1081.54
1126.75
1135.6
1150.1
-3152.83
-2705.33
-2853.09
-1949.05
-1570.35
-1672.08
-1472.95
-1242.91
-1291.95
-1182.76
-1038.38
-1066.89
732.239
772.187
810.562
787.375
837.423
884.205
855.773
916.133
967.964
972.627
994.012
1010.2
1062.27
1073.56
1081.74
-2303.9
-2078.15
-2324.66
-1524.9
-1311.98
-1515.55
-1252.11
-1100.7
-1214.17
-1058.55
-952.541
-1021.35
678.733
709.534
757.696
721.446
761.404
819.987
776.634
830.868
897.153
899.447
924.726
942.877
1013.55
1031.8
1041.14
-1439.86
-1432.01
-1609.84
-1064.45
-1004.37
-1236.2
-981.904
-914.359
-1056.35
-892.811
-833.095
-924.792
616.433
635.875
692.027
643.323
667.951
739.651
677.262
711.408
804.733
796.356
818.042
864.533
929.254
961.51
976.565
-512.429
-593.709
-822.853
-491.165
-650.532
-959.109
-679.671
-724.157
-929.472
-729.206
-727.171
-866.259
-722.816
-703.949
-800.853
549.568
556.526
617.299
558.796
564.046
643.892
564.936
563.339
677.554
645.747
652.815
717.551
741.79
746.097
829.271
251.785
19.5632
-86.7658
-205.538
-383.671
-568.301
-425.388
-511.85
-664.062
-530.666
-566.452
-683.873
-573.127
-582.871
-672.391
481.873
477.577
536.46
475.191
463.621
538.013
457.583
429.584
526.975
416.06
353.959
475.581
325.175
191.605
266.374
137.898
-46.2281
-94.2399
-101.624
-242.645
-339.708
-280.608
-369.027
-470.246
-391.28
-441.297
-531.774
-453.329
-478.925
-555.088
417.979
405.158
458.687
399.514
376.976
440.546
367.157
329.119
401.46
313.472
250.156
322.635
225.858
130.997
172.849
96.6413
-23.3537
-37.8614
-61.295
-165.511
-218.697
-195.982
-273.629
-341.757
-295.063
-347.234
-415.392
-360.996
-393.269
-455.988
360.508
342.498
388.525
335.098
307.736
358.072
296.69
257.528
308.895
242.463
186.08
231.35
166.637
94.9092
120.328
69.9816
-15.6378
-20.6255
-43.1918
-121.793
-152.324
-145.832
-210.181
-255.282
-228.924
-277.155
-327.568
-290.7
-324.557
-374.532
310.366
289.915
328.44
281.862
253.504
292.909
242.595
205.789
243.036
192.105
143.645
173.896
127.912
71.3766
88.122
52.0632
-12.7255
-14.6433
-33.7429
-94.8213
-113.884
-113.986
-166.895
-197.841
-182.856
-225.464
-262.765
-237.922
-270.33
-309.794
267.288
246.251
278.22
238.214
210.849
241.878
200.667
167.354
195.129
155.202
113.9
135.253
100.928
55.0966
66.7612
39.5482
-11.449
-12.3145
-28.0688
-76.8048
-89.6716
-92.3312
-136.051
-158.236
-149.545
-186.477
-214.703
-197.574
-227.246
-258.646
230.489
209.996
236.552
202.34
176.901
201.642
167.66
138.005
159.291
127.317
92.1065
107.837
81.2325
43.3501
51.8091
30.526
-10.7227
-11.2381
-24.207
-63.9191
-73.2017
-76.6884
-113.113
-129.704
-124.53
-156.316
-178.229
-166.05
-192.586
-217.899
199.043
179.728
201.919
172.633
149.487
169.505
141.231
115.031
131.746
105.674
75.572
87.5567
66.3393
34.6016
40.9259
23.8547
-10.1504
-10.5734
-21.2908
-54.1674
-61.2414
-64.7993
-95.3896
-108.271
-105.079
-132.383
-149.829
-140.856
-164.284
-184.998
172.077
154.259
172.952
147.8
127.025
143.458
119.715
96.6581
110.061
88.4893
62.6748
72.0547
54.7613
27.9232
32.7654
18.8214
-9.58803
-10.0117
-18.9097
-46.4441
-52.0774
-55.3808
-81.2415
-91.5657
-89.4925
-112.946
-127.156
-120.294
-140.819
-158.029
148.827
132.639
148.526
126.831
108.361
122.041
101.921
81.6909
92.6346
74.5708
52.382
59.8888
45.556
22.7221
26.5025
14.9614
-8.98937
-9.44248
-16.8568
-40.103
-44.7479
-47.6658
-69.6357
-78.1329
-76.6809
-96.8319
-108.642
-103.19
-121.082
-135.585
128.658
114.121
127.744
108.948
92.6458
104.183
86.9945
69.2992
78.3781
63.1035
44.0094
50.1302
38.1001
18.6038
21.6033
11.9612
-8.34689
-8.83273
-15.0232
-34.7495
-38.6838
-41.1772
-59.8992
-67.047
-65.9243
-83.2355
-93.2225
-88.7255
-104.261
-116.642
111.044
98.1174
109.904
93.5504
79.2495
89.1001
74.3099
58.8899
66.5302
53.5114
37.085
42.1576
31.9635
15.2956
17.7095
9.60227
-7.66756
-8.1801
-13.3486
-30.1302
-33.5336
-35.6041
-51.5773
-57.7004
-56.7306
-71.5861
-80.159
-76.3152
-89.7529
-100.448
95.5555
84.1671
94.4534
80.1671
67.7005
76.2048
63.4056
50.0311
56.5441
45.3787
31.2743
35.5388
26.8409
12.6036
14.5711
7.7286
-6.96281
-7.4933
-11.7979
-26.0761
-29.069
-30.7365
-44.3534
-49.6785
-48.7545
-61.472
-68.9272
-65.5319
-77.104
-86.4414
81.836
71.8992
80.9552
68.4259
57.6377
65.0577
53.9283
42.3994
48.0189
38.3958
26.3319
29.9653
22.5083
10.3863
12.0095
6.22578
-6.24401
-6.78402
-10.3494
-22.4684
-25.1361
-26.4256
-37.9986
-42.6907
-41.7439
-52.586
-59.1455
-56.0545
-65.964
-74.1979
69.5901
61.0142
69.0585
58.0284
48.7783
55.3194
45.6029
35.7471
40.6526
32.3275
22.0741
25.2093
18.7974
8.5377
9.89304
5.0084
-5.52088
-6.06328
-8.9885
-19.2205
-21.6254
-22.5624
-32.3422
-36.5246
-35.5102
-44.6933
-50.5274
-47.6358
-56.0575
-63.3882
58.5701
51.2668
58.4794
48.7324
40.8974
46.7242
38.2113
29.8813
34.2136
26.9911
18.3597
21.0994
15.5789
6.97718
8.12327
4.0116
-4.80108
-5.34038
-7.70416
-16.2668
-18.4567
-19.0638
-27.2527
-31.0211
-29.9073
-37.6101
-42.853
-40.0813
-47.1636
-53.7529
48.5638
42.4516
48.9829
40.3367
33.8105
39.0577
31.5755
24.6467
28.5188
22.2405
15.0771
17.5024
12.7506
5.64174
6.62435
3.18506
-4.09006
-4.62234
-6.48726
-13.5548
-15.568
-15.8635
-22.625
-26.0561
-24.8182
-31.1871
-35.9477
-33.2323
-39.0998
-45.0813
39.3892
34.3958
40.3727
32.6725
27.3647
32.1444
25.5485
19.9168
23.4214
17.9572
12.1365
14.313
10.2307
4.48141
5.33697
2.48917
-3.39146
-3.91414
-5.32974
-11.0417
-12.9094
-12.9076
-18.3735
-21.5299
-20.1472
-25.3016
-29.6697
-26.9581
-31.7139
-37.1993
30.8864
26.9494
32.4825
25.5945
21.4292
25.8377
20.0053
15.5848
18.8003
14.0411
9.46279
11.4457
7.95062
3.45531
4.21372
1.89199
-2.70721
-3.21902
-4.22375
-8.69084
-10.4402
-10.1499
-14.4253
-17.3606
-15.8132
-19.8491
-23.9017
-21.1468
-24.8745
-29.9606
22.9154
19.9828
25.1675
18.9766
15.8909
20.0115
14.8371
11.5583
14.553
10.4062
6.99174
8.82841
5.85223
2.52951
3.21566
1.3675
-2.03763
-2.53848
-3.16131
-6.46984
-8.12461
-7.55048
-10.7179
-13.4781
-11.7467
-14.7397
-18.5428
-15.7025
-18.4683
-23.2386
15.3525
13.3814
18.3023
12.7072
10.6477
14.5563
9.94572
7.75271
10.5895
6.97317
4.66398
6.39866
3.88232
1.67539
2.31024
0.894862
-1.38045
-1.87234
-2.13306
-4.34879
-5.93135
-5.07271
-7.19575
-9.82205
-7.88581
-9.89436
-13.5065
-10.5405
-12.3946
-16.9235
8.09782
7.0486
11.7763
6.69044
5.60451
9.37185
5.23702
4.08539
6.8262
3.66554
2.41718
4.09734
1.98542
0.87302
1.47039
0.46214
-0.729432
-1.21743
-1.12731
-2.29967
-3.83079
-2.68316
-3.80936
-6.33822
-4.17596
-5.24402
-8.716
-5.58746
-6.56923
-10.9179
1.41197
1.18659
5.49459
1.11247
0.873581
4.36022
0.785937
0.493388
3.17902
0.396681
0.46316
1.84684
0.413242
-0.0160635
0.684926
-0.0813544
-0.232029
-0.563147
-0.288129
-0.463174
-1.79291
-0.522853
-0.703044
-2.9763
-0.763227
-0.943753
-4.10208
-1.00405
-1.19725
-5.13825
1312.58
1356.61
1342.43
-3579.83
-3982.06
-4169.25
-2251.38
-2627.63
-2451.37
1155.01
1169.54
1158.67
-3775.92
-4137.45
-4006.33
-4207.96
-4282.08
-3844.4
1084.95
1095.05
1082.42
-2981.05
-3189.44
-2986.49
-3953.1
-3782.64
-3534.08
1044.3
1052.31
1033.56
-2031.55
-2090.69
-1966.58
-2859.74
-2728.43
-2623.63
981.358
995.541
967.248
-880.069
-873.231
-825.68
-877.102
-963.493
-955.462
-1349.29
-1383.3
-992.111
-1843.06
-1720.22
-1684.95
854.53
893.865
846.398
185.543
444.049
581.95
-767.024
-614.594
-666.07
57.9049
-14.5073
115.647
-595.063
-444.177
-216.444
-869.55
-538.737
-668.504
2074.06
1712.2
1467.32
3800.19
4209.11
4742.54
1138.41
1593.05
1320.13
1109.14
2625.15
-1549.35
-1525.8
-1875.27
-42.0518
-393.456
-879.923
-4503.43
-4675.4
-4776.64
-2560.69
-3042.81
-2874.18
-2745.02
-2417.28
-2974.88
-2048.39
-2274.42
-2453.47
-1800.03
-2051.87
-1872.36
1102.48
1125.13
1096.87
1180.22
1150.06
1114.66
1211.64
1166.41
1197.18
-5234.51
-5364.75
-5345.93
-5459.96
-5458.04
-5315.37
-2902.61
-2934.21
-3594.23
-2400.48
-2684.59
-2667.87
-2581.5
-2657.58
-2370.07
1026.7
1043.91
1023.02
1089.48
1061.9
1038.11
1101.47
1073.07
1098.38
1116.16
1130.52
1116.95
1136.91
1133.19
1127.9
1163.91
1159.54
1164.97
-4019.75
-4076.46
-4027.05
-4746.88
-4705.16
-4622.92
-2413.55
-2628.46
-3054.84
-2211.45
-2419.62
-2293.08
-2613.65
-2528.56
-2296.12
960.856
977.728
955.652
1032.91
997.207
975.35
1028.16
1006.92
1039.19
1064.2
1070.93
1056.38
1088.99
1082.61
1081.45
1094.36
1091.79
1095.56
-2762.52
-2813.37
-2733.04
-3344.97
-3217.85
-3157.93
878.269
913.448
877.666
972.445
926.946
892.196
964.748
937.07
981.49
1017.23
1028.26
1006.03
1059.39
1047.54
1041.12
1064.34
1061.43
1070.11
-1566.77
-1614.01
-1623.46
-1716.29
-1774.73
-1535.67
-2037.32
-1961.21
-1935.3
741.566
799.927
762.603
867.843
813.564
752.45
878.753
831.974
885.993
938.558
956.225
920.823
999.922
994.396
993.457
1015.33
1013.08
1018.6
401.22
580.288
616.573
325.429
541.268
379.539
557.852
520.954
365.747
1486.9
1448.41
1549.3
1237.66
1269.05
1290.44
2130.5
2255.61
2325.57
1615.13
1707.18
1697.59
-5290.31
-5446.06
-5457.79
-4862.31
-4941.45
-4774.82
-3571.53
-3900.88
-3424.81
-4633.89
-4353.5
-4215.71
-4823.95
-4780.12
-5100.34
1180.22
1172.38
1159.09
1193.68
1177.09
1182.32
1171.22
1175.15
1188.98
1186.67
1184.1
1185.65
1187.01
1187.34
1179.35