/*--------------------------------*- C++ -*----------------------------------*\
| =========                 |                                                 |
| \\      /  F ield         | OpenFOAM: The Open Source CFD Toolbox           |
|  \\    /   O peration     | Version:  v1912                                 |
|   \\  /    A nd           | Website:  www.openfoam.com                      |
|    \\/     M anipulation  |                                                 |
\*---------------------------------------------------------------------------*/
FoamFile
{
    version     2.0;
    format      ascii;
    class       surfaceScalarField;
    location    "800";
    object      phi;
}
// * * * * * * * * * * * * * * * * * * * * * * * * * * * * * * * * * * * * * //

dimensions      [0 3 -1 0 0 0 0];
oriented        oriented;


internalField   nonuniform List<scalar> 
25162
(
0.00043301
0.916217
0.000532066
0.916601
0.000620602
0.916561
0.000298564
0.916595
0.000376835
0.458339
0.00030979
0.458311
0.000376142
-0.000387345
-0.000474777
0.458291
0.000534071
-0.000592964
0.458239
0.000688588
-0.000791776
0.458219
0.000902627
-0.00102958
0.4582
0.00116507
-0.00129993
0.458202
0.00143259
-0.00156085
0.458232
0.00166032
-0.0017357
0.458292
0.00177709
-0.00177886
0.458369
0.0017452
-0.00168032
0.458426
0.00158477
-0.0014765
0.458454
0.00135758
-0.0012245
0.458456
0.00110319
-0.000982208
0.458464
0.000832906
-0.000786105
0.458435
0.000700669
-0.000578038
0.458451
0.000476709
-0.00179835
0.918586
0.000281824
-0.000418992
-0.00112456
0.918676
-2.5032e-05
0.91575
0.913775
0.00119522
0.915022
0.00188744
0.915909
0.00213015
0.916319
0.00059408
0.917138
0.000993572
0.458091
0.000707188
-0.458204
-0.458193
-0.000860687
0.458
0.00105384
-0.458062
-0.00129358
0.45777
0.000744962
0.000840383
-0.228982
-0.000897889
0.228895
0.000984926
-0.00130037
-0.22893
0.228816
0.00141446
-0.00180928
-0.228887
0.22874
0.00195584
-0.00240235
-0.228882
0.228724
0.00255979
-0.0029759
-0.22893
0.228794
0.00311147
-0.00338807
-0.229045
0.228976
0.00345706
-0.00350062
-0.229194
0.229208
0.0034866
-0.00328268
-0.229312
0.229398
0.0031972
-0.00283542
-0.229381
0.229506
0.00271031
-0.00229237
-0.22939
0.229523
0.00216005
-0.00176917
-0.22937
0.229483
0.00165702
-0.458794
-0.0024508
0.460126
0.00111872
0.000103594
0.460813
-0.00171628
-0.4592
-0.00195905
0.9179
0.000745635
0.00189939
-0.00118936
0.917907
0.000264324
0.914297
0.914039
0.00151819
0.913504
0.00405759
0.913369
0.00684318
0.913533
0.00278919
0.914955
0.0062364
-0.458066
0.457912
0.00294323
-0.457837
-0.00290326
0.458512
0.00222832
-0.457377
-0.00227884
0.457188
0.00119772
0.00127052
-0.228525
-0.00148135
0.228364
0.00164212
-0.228311
-0.00222046
0.228085
0.00244608
-0.22812
-0.00321568
0.22784
0.00349564
-0.228056
-0.00441302
0.227741
0.00472784
-0.22824
-0.00563275
0.227978
0.00589493
-0.228721
-0.0065147
0.228596
0.00663998
-0.229343
-0.00675161
0.229406
0.00668873
-0.229863
-0.00627818
0.230068
0.00607372
-0.230124
-0.0053296
0.230405
0.00504905
-0.230149
-0.00420894
0.230429
0.00392933
-0.00286564
-0.23008
0.230697
0.00224925
-0.462618
0.000973947
0.461279
0.000365136
-0.459814
-0.000649778
0.459684
0.000779609
-0.000319104
0.919383
-0.000744914
-0.00041899
0.00134404
0.916243
0.000630485
0.91501
0.91467
0.000527222
0.912976
0.00114311
0.912753
0.00233829
0.912338
0.00313043
0.912057
0.00210617
-0.457177
0.456764
0.00354306
-0.460088
-0.0047224
0.457078
0.00773227
-0.458708
-0.00894403
0.460317
0.00198319
0.00535196
-0.227773
-0.00193171
0.227593
0.00211264
-0.227258
-0.00292721
0.226932
0.00325286
-0.226752
-0.00441299
0.226309
0.00485661
-0.226515
-0.00631641
0.225988
0.00684396
-0.226872
-0.00844702
0.226372
0.00894731
-0.228054
-0.010154
0.227803
0.0104051
-0.229664
-0.0105921
0.229794
0.0104623
-0.230935
-0.0096227
0.231324
0.00923403
-0.231498
-0.00788955
0.23199
0.00739686
-0.233804
-0.00119411
0.237679
-0.002681
-0.00281145
-0.231371
0.231308
0.00287454
-0.461066
-0.00436948
0.462047
0.0033884
-0.460268
-0.00236912
0.461098
0.00153835
0.00243752
0.919036
-0.00114904
-0.000942106
0.00177748
0.916903
0.000826208
0.915962
0.915496
0.000158086
0.912818
0.00036225
0.912549
0.000708259
0.911992
0.00127051
0.911031
0.00046324
-0.456512
0.455739
0.00204377
-0.455692
-0.00243625
0.455104
0.00302451
-0.454285
-0.00383312
0.453577
0.00240792
0.00213291
-0.228301
-0.00420563
0.226464
0.00604293
-0.22658
-0.00919891
0.228366
0.00741263
-0.22476
-0.00522582
0.224236
0.00574926
-0.223964
-0.00789881
0.223117
0.00874588
-0.224276
-0.0115562
0.22331
0.0125215
-0.226725
-0.0149636
0.226213
0.0154764
-0.230411
-0.0156982
0.230905
0.0152035
-0.23297
-0.0121297
0.233892
0.0112079
-0.241298
-0.00116944
0.238037
0.00443126
-0.233199
-0.00650639
0.233725
0.00598018
-0.00440311
-0.232451
0.232899
0.00395574
-0.463461
-0.00516117
0.464794
0.00382863
-0.461862
-0.00290977
0.462645
0.0021263
0.00322131
0.920573
-0.00275415
-0.002004
0.00178583
0.918339
0.000815664
0.916932
0.916312
-9.44883e-05
0.912913
-9.74218e-05
0.912552
0.00012953
0.911765
0.0002859
0.910591
0.000284332
-0.454874
0.454589
0.000571094
-0.454633
-0.00150943
0.453901
0.00224157
-0.45283
-0.00274609
0.451876
0.00181879
0.00188108
-0.225289
-0.00229147
0.225042
0.0025387
-0.223674
-0.00359379
0.223216
0.00405202
-0.223881
-0.00782681
0.221578
0.0101296
-0.221595
-0.0141699
0.222232
0.0135328
-0.219652
-0.01697
0.21934
0.0172819
-0.223882
-0.022366
0.22284
0.0234078
-0.234656
-0.020564
0.235104
0.0201165
-0.243571
-0.0103171
0.24137
0.012518
-0.236953
-0.0117707
0.238107
0.0106168
-0.235856
-0.00760194
0.236761
0.00669612
-0.00400764
-0.23468
0.235159
0.00352855
-0.465923
-0.005468
0.467073
0.0043185
-0.463044
-0.0034866
0.463404
0.00312646
0.00272485
0.922478
-0.00226567
-0.00236429
0.00151187
0.919552
0.000624828
0.917819
0.916936
-0.000475291
0.913388
-0.000824522
0.912901
-0.00102908
0.91197
2.23288e-05
0.910246
-0.000706449
-0.454459
0.454171
0.000310184
-0.452881
-0.000534568
0.452531
0.000884563
-0.451546
-0.00182782
0.451172
0.00105031
0.00115106
-0.22425
-0.0014162
0.224037
0.00162994
-0.222165
-0.00251318
0.221739
0.00293907
-0.218819
-0.00420754
0.21827
0.00475709
-0.215378
-0.0080052
0.213192
0.0101904
-0.213847
-0.0230157
0.108964
0.103501
0.0101662
0.0142317
-0.0179788
-0.108768
0.108148
0.0185988
-0.0149194
-0.244149
0.0286557
-0.0151883
0.122362
0.123238
-0.0217767
-0.244035
0.246853
0.0189594
-0.242665
-0.0117929
0.244164
0.0102934
-0.239382
-0.00742026
0.240261
0.00654065
-0.00438386
-0.236599
0.237172
0.00381077
-0.468228
-0.00481222
0.468872
0.00416905
-0.464219
-0.00314836
0.465037
0.00233028
0.00165934
0.923916
-0.00144522
-0.00165198
0.000789561
0.920422
0.000298926
0.918309
0.917235
-0.000869165
0.914257
-0.00168585
0.913718
-0.00230808
0.912592
-0.00116458
0.910804
-0.00170206
-0.45413
0.454134
-0.00116884
-0.452377
0.00121593
0.452278
-0.00111746
-0.449895
0.000958174
0.449612
-0.000291688
-0.000383886
-0.223549
-0.000280909
0.223449
0.000381127
-0.220949
-0.000558203
0.221031
0.00047662
-0.217112
-0.00078245
0.216868
0.00102708
-0.210489
-0.00190722
0.210245
0.00215082
-0.0987611
-0.00168465
0.098979
0.00146675
-0.0233149
-0.132544
0.134985
0.0208744
-0.0214117
-0.256485
0.259775
0.0181218
-0.248915
-0.0113363
0.250491
0.00976028
-0.24321
-0.00631644
0.244087
0.00543943
-0.00339239
-0.238831
0.2393
0.0029237
-0.469916
-0.00311793
0.470783
0.00225069
-0.465707
-0.00163086
0.46629
0.00104834
-0.000115233
0.924635
-5.95972e-05
-0.000544354
-0.000292281
0.920599
-0.000193312
0.91821
0.917042
-0.00125306
0.91551
-0.00243201
0.914897
-0.00367482
0.913835
-0.00212011
0.911887
-0.00263717
-0.454311
0.454488
-0.00229662
-0.452346
0.00249594
0.452532
-0.00268144
-0.449497
0.00284794
0.449648
-0.00139776
-0.00160037
-0.223632
0.00165795
0.223668
-0.00169363
-0.220927
0.00184235
0.220985
-0.00190026
-0.21681
0.00215547
0.216948
-0.00229405
-0.211006
0.00304188
0.211462
-0.00349778
-0.102499
0.00302338
0.102884
-0.00340806
-0.0105659
-0.147844
0.148632
0.00977775
-0.010067
-0.26759
0.269124
0.00853343
-0.254336
-0.00515038
0.255135
0.00435116
-0.245947
-0.00252332
0.246315
0.00215513
-0.00122559
-0.240374
0.240614
0.000984955
-0.471928
-0.000624439
0.472894
-0.00034131
-0.466592
0.000796522
0.466792
-0.000996997
-0.00229101
0.924215
0.00155523
0.0011563
-0.00164028
0.919948
-0.00085836
0.917429
0.916184
-0.00159966
0.91711
-0.00330492
0.916602
-0.00493197
0.915462
-0.0030659
0.913605
-0.00358386
-0.454846
0.455203
-0.00342348
-0.452789
0.00382926
0.453259
-0.00429993
-0.449959
0.0047385
0.450525
-0.00247892
-0.00282511
-0.22396
0.0029472
0.224102
-0.00308982
-0.221394
0.00360808
0.221597
-0.00381128
-0.217624
0.00452158
0.217913
-0.00481095
-0.212829
0.00586625
0.213251
-0.00628772
-0.104255
0.00378122
0.104362
-0.00193563
-0.00195258
0.00554636
-0.148023
0.147297
-0.00482047
0.00515339
-0.270033
0.269239
-0.00435994
-0.255798
0.00294554
0.255527
-0.00267462
-0.246787
0.00212239
0.246657
-0.00199316
0.00166328
-0.240833
0.240764
-0.00159414
-0.472926
0.003134
0.472533
-0.00274133
-0.466664
0.00269566
0.467075
-0.00310671
-0.00471742
0.922602
0.00342778
0.00290266
-0.00311048
0.918341
-0.00158076
0.915899
0.914603
-0.00203314
0.919143
-0.00404876
0.918618
-0.00618891
0.917602
-0.00398092
0.915871
-0.00447411
-0.455736
0.456267
-0.00451161
-0.453793
0.00515907
0.45438
-0.00574535
-0.451434
0.00642815
0.452576
-0.00369585
-0.00387422
-0.224682
0.00409224
0.224916
-0.00432546
-0.222355
0.00512324
0.222652
-0.00541937
-0.218898
0.00641873
0.219264
-0.00678452
-0.214431
0.00794509
0.214814
-0.00832792
-0.104953
0.00459684
0.105006
-0.00231386
-0.00233617
0.0148788
-0.140234
0.139068
-0.013713
0.0168685
-0.264511
0.262324
-0.0146816
-0.253354
0.00999612
0.252272
-0.00891374
-0.24558
0.00654704
0.244942
-0.00590954
0.00452103
-0.240068
0.239759
-0.00421171
-0.47183
0.00676015
0.470852
-0.00578261
-0.467366
0.00491
0.466578
-0.00412262
-0.00697453
0.920003
0.00494796
0.00462531
-0.00454643
0.915913
-0.00223857
0.913591
0.912364
-0.00242954
0.921573
-0.00486754
0.921056
-0.00742383
0.920158
-0.00480216
0.918455
-0.00520609
-0.456953
0.457638
-0.00548676
-0.455162
0.00624888
0.45598
-0.00706631
-0.453688
0.00795104
0.454959
-0.00453602
-0.00468531
-0.22572
0.00505691
0.226022
-0.00535855
-0.223662
0.00635919
0.22404
-0.0067369
-0.220486
0.00797402
0.220939
-0.0084274
-0.216058
0.00986035
0.216534
-0.0103363
-0.105356
0.00571052
0.105419
-0.00286879
-0.00290428
0.0184234
-0.131015
0.129841
-0.0172499
0.0226916
-0.25525
0.252857
-0.020298
-0.248434
0.0145919
0.247019
-0.0131774
-0.242443
0.00977775
0.241409
-0.00874367
0.00674474
-0.238165
0.237546
-0.00612554
-0.469642
0.00982118
0.468206
-0.00838457
-0.465727
0.00713199
0.464666
-0.00607154
-0.00902419
0.918101
0.00571085
0.0052152
-0.00580897
0.912698
-0.00281754
0.9106
0.909547
-0.006463
0.928036
-0.0130879
0.927681
-0.0197911
0.926861
-0.00572772
0.925562
-0.0211699
-0.458399
0.459268
-0.00659716
-0.456825
0.00750152
0.457847
-0.00852333
-0.456163
0.00952013
0.457034
-0.00515114
-0.00524036
-0.226993
0.00579763
0.227333
-0.00613732
-0.225256
0.00729103
0.225689
-0.00772384
-0.222441
0.00918909
0.222987
-0.00973541
-0.218272
0.0115867
0.218968
-0.00610467
-0.00617826
-0.0531391
0.0035548
0.0531707
-0.00358646
-0.0579236
0.00664951
0.0574376
-0.012971
0.00680752
0.0171045
-0.122738
0.242181
-0.0307171
0.0168406
-0.122671
-0.246146
0.0233479
0.24373
-0.0209321
-0.242239
0.01611
0.240765
-0.0146357
-0.238609
0.0112545
0.237683
-0.0103284
0.00802341
-0.235539
0.234896
-0.00738044
-0.466451
0.0119017
0.464694
-0.0101442
-0.463562
0.00884406
0.462361
-0.00764343
-0.0106431
0.915015
0.00713322
0.0065961
-0.00684527
0.9089
-0.00336962
0.907124
0.906177
-0.00289825
0.930934
-0.00587608
0.930659
-0.00901283
0.929998
-0.00612765
0.928971
-0.00629482
-0.46206
0.46296
-0.007028
-0.460669
0.00801078
0.461723
-0.00906533
-0.458878
0.0102107
0.460137
-0.00569768
-0.0057716
-0.228468
0.00637724
0.228841
-0.00675103
-0.227122
0.00800223
0.227595
-0.00847502
-0.224911
0.0101083
0.225543
-0.0107397
-0.221876
0.0130176
0.222821
-0.0069565
-0.00700632
-0.0546485
0.00887337
0.109689
-0.0545661
-0.00464634
-0.00470177
-0.111512
0.00933459
0.111461
-0.0183842
0.00910111
0.0306087
-0.2359
0.234063
-0.0287723
-0.237718
0.0194912
0.236445
-0.0182179
-0.237395
0.0149755
0.236837
-0.0144171
-0.235167
0.011213
0.234536
-0.0105817
0.0083597
-0.233052
0.232492
-0.0077995
-0.463192
0.0126673
0.461891
-0.0113668
-0.461145
0.0100924
0.459687
-0.00863462
-0.0100231
0.911147
0.00688413
0.00700635
-0.00750178
0.906379
-0.00366886
0.903291
0.902508
-0.00304552
0.933979
-0.00617208
0.933785
-0.00945599
0.933282
-0.00645417
0.932519
-0.00654946
-0.463919
0.464873
-0.00740865
-0.462804
0.00843482
0.463897
-0.00952835
-0.461414
0.0107084
0.4627
-0.00598172
-0.00601267
-0.229984
0.00668794
0.230365
-0.0070691
-0.229028
0.0083297
0.229497
-0.00879872
-0.227473
0.0104313
0.228102
-0.0110606
-0.225753
0.0133139
0.226666
-0.0142269
-0.112736
0.0175928
0.223808
-0.0168779
-0.111787
-0.225717
0.02286
0.226297
-0.0234396
-0.230676
0.0229325
0.23004
-0.0222959
-0.232696
0.0197324
0.231751
-0.0187878
-0.232691
0.0159813
0.231799
-0.0150901
-0.231735
0.0126204
0.230985
-0.0118705
0.00984042
-0.232117
0.22988
-0.00760294
-0.460781
0.0143621
0.458004
-0.011585
-0.458185
0.0104108
0.456439
-0.00866473
-0.0103791
0.90738
0.00713822
0.00700884
-0.00753707
0.903536
-0.00386391
0.899618
0.898644
-0.00311716
0.937097
-0.0063105
0.936979
-0.00964813
0.93662
-0.00659788
0.936097
-0.00662856
-0.465847
0.466816
-0.00756663
-0.464992
0.00859406
0.466078
-0.00967941
-0.463977
0.0108404
0.465227
-0.00604919
-0.00604201
-0.231489
0.00673578
0.231852
-0.00709906
-0.230848
0.00828107
0.231276
-0.00870914
-0.229865
0.0101338
0.230398
-0.010667
-0.228954
0.0124238
0.229582
-0.0130517
-0.221712
0.014715
0.221139
-0.0141419
-0.227592
0.0174319
0.227909
-0.0177489
-0.228867
0.0177686
0.228627
-0.017528
-0.229614
0.016281
0.229082
-0.0157492
-0.22957
0.0139849
0.228958
-0.0133727
-0.228998
0.0115625
0.228418
-0.0109825
0.00934402
-0.228208
0.2277
-0.00883535
-0.457593
0.014808
0.455203
-0.0124181
-0.453841
0.00929392
0.452528
-0.00798108
-0.00958592
0.90213
0.00767587
0.00715962
-0.00512487
0.899075
-0.00392049
0.898413
0.894724
-0.00311943
0.940216
-0.00630602
0.940165
-0.00961634
0.93993
-0.00657775
0.93961
-0.00655096
-0.467771
0.468723
-0.00752975
-0.467143
0.00852423
0.468182
-0.00956315
-0.466441
0.0106612
0.467606
-0.00593023
-0.00589655
-0.232893
0.00656576
0.233222
-0.00689415
-0.232473
0.00793603
0.232839
-0.0083026
-0.231804
0.00946561
0.232212
-0.00987345
-0.231157
0.0111357
0.231594
-0.0115724
-0.219872
0.0122843
0.219586
-0.0119983
-0.228609
0.0140824
0.228778
-0.0142519
-0.228136
0.0143088
0.228021
-0.0141943
-0.227849
0.0135081
0.227531
-0.0131897
-0.227443
0.0120591
0.227027
-0.0116436
-0.226905
0.010349
0.22647
-0.00991396
0.00863699
-0.226335
0.225921
-0.00822285
-0.451807
0.0139832
0.450356
-0.0125322
-0.451203
0.011143
0.449866
-0.00980606
-0.00882005
0.895964
0.00839781
0.00658795
-0.00475551
0.895011
-0.00356775
0.897226
0.891156
-0.00306319
0.943279
-0.00618177
0.943284
-0.00939861
0.943147
-0.00642123
0.942982
-0.00634994
-0.469635
0.470547
-0.00733309
-0.469187
0.00827091
0.470155
-0.00923862
-0.468718
0.0102476
0.469771
-0.0056772
-0.0056237
-0.234145
0.00624535
0.234431
-0.0065318
-0.23384
0.00741607
0.234142
-0.00771767
-0.233277
0.0086365
0.233585
-0.00894455
-0.232695
0.00986394
0.233002
-0.0101717
-0.219059
0.0104021
0.218975
-0.0103183
-0.229155
0.0117264
0.229247
-0.0118183
-0.227759
0.0118452
0.227689
-0.0117757
-0.226766
0.0113473
0.22656
-0.0111415
-0.225986
0.010381
0.225696
-0.0100907
-0.225338
0.00915173
0.225011
-0.00882479
0.00783232
-0.224821
0.224487
-0.00749882
-0.449011
0.0129188
0.447769
-0.0116769
-0.448621
0.0104615
0.447427
-0.00926782
-0.0117577
0.891711
0.00791697
0.00809437
-0.00772142
0.890975
-0.000987511
0.890492
0.890169
-0.00296008
0.946239
-0.00596262
0.946286
-0.00903671
0.946221
-0.00616131
0.946165
-0.00605819
-0.471401
0.472257
-0.00701767
-0.47108
0.00788517
0.471964
-0.00876905
-0.470764
0.00967783
0.471697
-0.00533913
-0.00527181
-0.235227
0.0058366
0.235472
-0.00608166
-0.234958
0.00681927
0.235203
-0.00706396
-0.234392
0.00778617
0.234627
-0.00802101
-0.233784
0.00870682
0.234003
-0.00892654
-0.218931
0.00892391
0.218971
-0.0089643
-0.229451
0.00994734
0.2295
-0.00999636
-0.227513
0.00999293
0.227462
-0.0099419
-0.226047
0.00964339
0.225904
-0.00949989
-0.224956
0.00895994
0.224745
-0.0087493
-0.224155
0.00805033
0.223905
-0.0078007
0.00702286
-0.223604
0.223336
-0.00675398
-0.446625
0.0117624
0.445571
-0.010709
-0.446327
0.0096578
0.445276
-0.00860682
-0.0110224
0.887836
0.00734523
0.0075516
-0.00727369
0.887226
-0.00361035
0.886828
0.886558
-0.0028224
0.949062
-0.00567464
0.949139
-0.0085732
0.949119
-0.00583036
0.949129
-0.00570691
-0.473043
0.473836
-0.00662294
-0.472804
0.00741452
0.4736
-0.00821129
-0.472572
0.00901967
0.473389
-0.00495448
-0.0048824
-0.236149
0.00538524
0.236357
-0.00559304
-0.235864
0.00620494
0.236062
-0.00640322
-0.235247
0.00697495
0.235429
-0.00715725
-0.234562
0.00768125
0.23472
-0.00783853
-0.219211
0.00773198
0.219321
-0.00784235
-0.229606
0.00854136
0.229629
-0.00856517
-0.227324
0.0085397
0.227282
-0.00849755
-0.225534
0.00827112
0.225427
-0.00816437
-0.224198
0.00776144
0.224039
-0.00760266
-0.223245
0.00706731
0.22305
-0.00687276
0.00625452
-0.222624
0.222405
-0.00603602
-0.444602
0.0106078
0.44371
-0.0097157
-0.444314
0.00881079
0.443395
-0.00789175
-0.0101946
0.884344
0.00673471
0.00695201
-0.00675743
0.883789
-0.00336342
0.883434
0.883195
-0.00266196
0.951724
-0.00534235
0.951819
-0.00804692
0.951824
-0.00545751
0.951862
-0.00532263
-0.474552
0.475278
-0.00618353
-0.474353
0.00689939
0.475066
-0.00761187
-0.474152
0.00832597
0.474864
-0.00455463
-0.00448324
-0.23693
0.00492601
0.237106
-0.0051019
-0.236599
0.00561033
0.236761
-0.00577198
-0.235915
0.00623057
0.23606
-0.0063751
-0.235119
0.00678371
0.235231
-0.00689554
-0.219713
0.00675227
0.219859
-0.00689803
-0.229675
0.0074003
0.229684
-0.00740862
-0.227164
0.00736836
0.227126
-0.00733125
-0.225145
0.00714852
0.225061
-0.00706486
-0.223619
0.00675107
0.223495
-0.00662714
-0.22253
0.00620559
0.222375
-0.00605065
0.00555109
-0.221826
0.221646
-0.00537153
-0.442888
0.00951009
0.442131
-0.00875237
-0.442557
0.00797329
0.441756
-0.00717149
-0.00933514
0.881218
0.00612259
0.00633898
-0.00621176
0.880665
-0.00309928
0.880322
0.880096
-0.00248848
0.954212
-0.00498564
0.954316
-0.00748862
0.954327
-0.00506414
0.954364
-0.00492657
-0.475927
0.476587
-0.00572432
-0.475737
0.0063679
0.476371
-0.007002
-0.475527
0.00763067
0.476147
-0.00415889
-0.00409089
-0.237591
0.00447889
0.23774
-0.00462807
-0.2372
0.00505271
0.237333
-0.00518573
-0.23645
0.00555921
0.236566
-0.00567618
-0.235513
0.00599964
0.235591
-0.00607809
-0.220323
0.00593242
0.220483
-0.00609242
-0.229692
0.00645482
0.229691
-0.00645329
-0.22702
0.0064035
0.226987
-0.00636971
-0.224835
0.00621579
0.224767
-0.00614751
-0.223162
0.00589448
0.223063
-0.00579486
-0.221956
0.00545465
0.22183
-0.00532874
0.00491852
-0.221168
0.221018
-0.00476917
-0.441431
0.00849366
0.440784
-0.00784686
-0.441026
0.00717451
0.440327
-0.00647494
-0.0084852
0.87843
0.00553354
0.00573941
-0.00566495
0.877845
-0.00283238
0.877489
0.877263
-0.00231078
0.956523
-0.00462228
0.956628
-0.00692515
0.95663
-0.00467006
0.956644
-0.00453469
-0.47717
0.477768
-0.00526767
-0.476968
0.00584458
0.477531
-0.00640795
-0.476724
0.00696117
0.477263
-0.0037821
-0.00371812
-0.238153
0.00405845
0.23828
-0.00418558
-0.237697
0.00454297
0.237808
-0.0046537
-0.236885
0.00496281
0.236981
-0.00505927
-0.235788
0.00531824
0.235842
-0.00537218
-0.220969
0.00524065
0.22113
-0.00540251
-0.229676
0.00566375
0.229668
-0.00565578
-0.226889
0.00560006
0.226858
-0.00556873
-0.224579
0.00543512
0.224522
-0.00537764
-0.222792
0.00516771
0.22271
-0.0050856
-0.221487
0.00480504
0.221383
-0.0047008
0.0043587
-0.220619
0.220493
-0.00423297
-0.440185
0.00757345
0.43963
-0.00701779
-0.43969
0.0064351
0.439079
-0.00582342
-0.00767485
0.875948
0.00498252
0.00517384
-0.00513826
0.875309
-0.00257365
0.874925
0.87469
-0.00213519
0.958658
-0.0042649
0.958757
-0.00637512
0.95874
-0.00428764
0.958715
-0.00415833
-0.478293
0.478832
-0.00482719
-0.478061
0.00534376
0.478562
-0.00584429
-0.477767
0.00633174
0.478237
-0.00343146
-0.00337088
-0.238632
0.00367101
0.238741
-0.00378
-0.238113
0.00408341
0.238206
-0.00417673
-0.237246
0.00443658
0.237327
-0.00451732
-0.235975
0.00472644
0.236011
-0.00476242
-0.22161
0.00465205
0.221767
-0.00480884
-0.229637
0.00499584
0.229625
-0.00498355
-0.226767
0.00492434
0.226738
-0.004895
-0.224362
0.00477655
0.224312
-0.00472703
-0.222484
0.00454886
0.222415
-0.00447974
-0.221096
0.00424406
0.221009
-0.00415637
0.00386711
-0.220155
0.220048
-0.00376006
-0.439113
0.00675056
0.438633
-0.00627001
-0.438522
0.00576257
0.437986
-0.00522607
-0.00692095
0.87374
0.00447759
0.00465191
-0.00464426
0.873032
-0.00232974
0.87261
0.87236
-0.00196667
0.960625
-0.00392321
0.960714
-0.00585246
0.960669
-0.00392583
0.960594
-0.00380559
-0.479304
0.47979
-0.00441247
-0.479033
0.00487519
0.479478
-0.00532054
-0.478678
0.00575112
0.47909
-0.00310926
-0.00305425
-0.239044
0.00331778
0.239138
-0.00341181
-0.238465
0.0036717
0.238544
-0.0037513
-0.237549
0.00397272
0.237618
-0.00404109
-0.236098
0.00421108
0.23612
-0.00423392
-0.222225
0.00414674
0.222373
-0.00429478
-0.229583
0.00442664
0.229568
-0.00441141
-0.226652
0.00435035
0.226625
-0.00432273
-0.224173
0.00421616
0.22413
-0.00417273
-0.222223
0.00401883
0.222164
-0.00395966
-0.220766
0.00375863
0.220691
-0.00368384
0.00343635
-0.219759
0.219667
-0.00334431
-0.438185
0.00602207
0.437766
-0.00560366
-0.437497
0.00515941
0.437025
-0.00468707
-0.00623327
0.871772
0.00402269
0.00417861
-0.00419075
0.870989
-0.00210492
0.870524
0.870255
-0.00180833
0.962433
-0.00360313
0.962509
-0.00536534
0.962432
-0.00359043
0.962299
-0.00347998
-0.480214
0.480653
-0.00402947
-0.479898
0.00444465
0.480295
-0.00484193
-0.479477
0.00522362
0.47984
-0.00281735
-0.00276932
-0.239401
0.00299973
0.239482
-0.00308141
-0.238766
0.00330612
0.238835
-0.00337483
-0.237807
0.00356576
0.237866
-0.00362423
-0.236174
0.00376319
0.236187
-0.00377651
-0.222802
0.0037119
0.222939
-0.00384955
-0.229519
0.00394014
0.229502
-0.00392289
-0.226544
0.00386108
0.226518
-0.00383498
-0.224007
0.00373802
0.223969
-0.00369941
-0.221999
0.00356456
0.221947
-0.00351318
-0.220483
0.00333942
0.220418
-0.00327487
0.00306087
-0.219418
0.219338
-0.00298102
-0.437375
0.00538242
0.437008
-0.00501566
-0.436594
0.00462456
0.436176
-0.00420686
-0.00561468
0.870014
0.00361691
0.00375537
-0.00378071
0.869155
-0.001901
0.868645
0.868354
-0.00166279
0.964096
-0.00330968
0.964156
-0.0049206
0.964042
-0.00328492
0.963849
-0.00318558
-0.481036
0.481433
-0.00368164
-0.48067
0.00405521
0.481026
-0.00441088
-0.480181
0.00475074
0.480502
-0.00255731
-0.00251477
-0.239711
0.00271777
0.239783
-0.00278929
-0.239027
0.00298557
0.239087
-0.00304558
-0.238029
0.00321205
0.238079
-0.00326253
-0.236216
0.00337677
0.236222
-0.00338326
-0.223336
0.00333933
0.223463
-0.00346623
-0.229448
0.00352579
0.229429
-0.00350714
-0.226442
0.00344526
0.226417
-0.0034205
-0.223859
0.00333145
0.223824
-0.00329673
-0.221803
0.00317707
0.221758
-0.0031319
-0.220238
0.00297989
0.220181
-0.00292354
0.00273659
-0.219121
0.219051
-0.00266669
-0.436664
0.00482512
0.43634
-0.00450141
-0.435794
0.00415504
0.435423
-0.00378383
-0.00506666
0.868439
0.00326038
0.00338149
-0.00341599
0.867505
-0.00171917
0.866948
0.866635
-0.00153137
0.965627
-0.00304523
0.965669
-0.00452115
0.965518
-0.00301106
0.965262
-0.00292322
-0.481779
0.482138
-0.00337052
-0.481362
0.00370796
0.481682
-0.00402788
-0.480805
0.00433212
0.481092
-0.0023283
-0.00229001
-0.239984
0.00247039
0.240047
-0.00253358
-0.239256
0.00270682
0.239309
-0.00275982
-0.238221
0.00290647
0.238265
-0.00295044
-0.236234
0.00304489
0.236236
-0.00304656
-0.223828
0.00302093
0.223944
-0.00313738
-0.229371
0.00317353
0.229352
-0.00315391
-0.226344
0.00309238
0.226321
-0.00306881
-0.223725
0.00298637
0.223693
-0.00295481
-0.22163
0.00284745
0.22159
-0.00280728
-0.220023
0.0026728
0.219973
-0.00262309
0.00245815
-0.21886
0.218798
-0.00239643
-0.436035
0.00434335
0.435747
-0.0040556
-0.435083
0.00374684
0.434751
-0.00341507
-0.00458701
0.867021
0.00295033
0.00305494
-0.00309579
0.866013
-0.00155921
0.865411
0.865076
-0.00141487
0.967042
-0.00281118
0.967066
-0.00416854
0.966876
-0.00276948
0.966556
-0.00269325
-0.482453
0.48278
-0.00309647
-0.481985
0.00340285
0.482275
-0.00369226
-0.481362
0.00396633
0.481619
-0.00212807
-0.00209497
-0.240225
0.00225478
0.240282
-0.00231111
-0.239459
0.00246559
0.239507
-0.0025129
-0.238388
0.00264332
0.238427
-0.00268194
-0.236235
0.00276048
0.236234
-0.00275883
-0.224279
0.00274904
0.224385
-0.00285566
-0.229292
0.00287414
0.229272
-0.00285386
-0.226252
0.00279292
0.226229
-0.00277042
-0.223603
0.00269355
0.223574
-0.00266462
-0.221476
0.00256732
0.22144
-0.00253122
-0.219832
0.00241103
0.219788
-0.00236673
0.00221985
-0.218629
0.218574
-0.00216488
-0.435475
0.00393066
0.435217
-0.00367288
-0.434445
0.00339568
0.434147
-0.00309721
-0.00417276
0.865736
0.00268405
0.00277314
-0.0028186
0.864659
-0.00142053
0.864013
0.863655
-0.00131371
0.968356
-0.00260819
0.96836
-0.00386333
0.968131
-0.00256037
0.967748
-0.00249536
-0.483068
0.483367
-0.00285946
-0.48255
0.00313943
0.482814
-0.00340308
-0.481863
0.00365186
0.482095
-0.00195588
-0.00192818
-0.240441
0.0020698
0.240492
-0.00212052
-0.239641
0.00225978
0.239684
-0.00230246
-0.238536
0.00241962
0.23857
-0.00245385
-0.236225
0.00251963
0.236221
-0.00251578
-0.224691
0.00251946
0.224789
-0.00261707
-0.22921
0.00262224
0.229189
-0.00260153
-0.226163
0.0025413
0.226142
-0.00251973
-0.22349
0.00244755
0.223464
-0.00242078
-0.221337
0.00233172
0.221304
-0.00229894
-0.219662
0.00219036
0.219622
-0.00215048
0.00201836
-0.218422
0.218372
-0.00196896
-0.434973
0.00358155
0.43474
-0.00334862
-0.433871
0.00309771
0.433601
-0.00282714
-0.0038206
0.864565
0.00245874
0.00253358
-0.00258254
0.863421
-0.0013023
0.862733
0.862353
-0.00122782
0.969584
-0.00243595
0.969568
-0.00360477
0.9693
-0.00238247
0.968855
-0.00232913
-0.483633
0.483909
-0.00265773
-0.483066
0.00291547
0.483308
-0.00315757
-0.482317
0.00338532
0.482529
-0.00180995
-0.00178734
-0.240637
0.00191328
0.240683
-0.00195945
-0.239806
0.00208639
0.239845
-0.00212531
-0.238667
0.00223164
0.238698
-0.00226225
-0.236208
0.00231785
0.236202
-0.00231263
-0.225069
0.00232764
0.225159
-0.0024171
-0.229127
0.00241232
0.229106
-0.00239135
-0.226078
0.00233185
0.226058
-0.00231109
-0.223386
0.00224283
0.223361
-0.00221784
-0.22121
0.00213552
0.22118
-0.00210543
-0.219508
0.00200629
0.219472
-0.00196998
0.0018499
-0.218235
0.21819
-0.00180506
-0.434518
0.00328958
0.434305
-0.00307714
-0.433349
0.002848
0.433102
-0.00260064
-0.00352652
0.863486
0.00227192
0.00233276
-0.00238517
0.86228
-0.00120338
0.861551
0.861149
-0.00115711
0.970741
-0.00229436
0.970706
-0.00339231
0.970398
-0.00223572
0.969892
-0.00219346
-0.484156
0.484412
-0.00249137
-0.48354
0.00273083
0.483765
-0.00295528
-0.482732
0.00316589
0.482928
-0.00168985
-0.00167165
-0.240816
0.00178455
0.240858
-0.00182709
-0.239957
0.00194423
0.239993
-0.00198016
-0.238785
0.00207776
0.238812
-0.00210544
-0.236185
0.00215301
0.236179
-0.00214704
-0.225416
0.00217148
0.225498
-0.00225367
-0.229043
0.00224156
0.229022
-0.00222046
-0.225996
0.00216163
0.225976
-0.00214153
-0.223288
0.00207647
0.223265
-0.00205293
-0.221093
0.001976
0.221065
-0.00194807
-0.219367
0.00185644
0.219334
-0.00182299
0.00171254
-0.218065
0.218023
-0.00167138
-0.434101
0.00305158
0.433906
-0.00285572
-0.43287
0.00264424
0.432642
-0.00241579
-0.00328744
0.862484
0.00212091
0.00216889
-0.00222465
0.861217
-0.00112281
0.860449
0.860027
-0.00110214
0.971843
-0.00218397
0.971787
-0.00322728
0.971441
-0.00212043
0.970875
-0.00208962
-0.484645
0.484884
-0.00235923
-0.483981
0.00258397
0.484192
-0.0027943
-0.483116
0.00299124
0.483299
-0.0015943
-0.0015796
-0.240981
0.0016821
0.241021
-0.0017218
-0.240097
0.00183132
0.240131
-0.0018649
-0.238892
0.00195559
0.238917
-0.00198092
-0.236161
0.00202229
0.236155
-0.00201605
-0.225735
0.00204829
0.225811
-0.00212407
-0.228958
0.00210667
0.228937
-0.00208553
-0.225917
0.00202725
0.225897
-0.00200769
-0.223196
0.00194515
0.223174
-0.00192274
-0.220984
0.00185002
0.220958
-0.00182377
-0.219237
0.00173799
0.219206
-0.00170677
0.00160386
-0.217907
0.217869
-0.00156562
-0.433717
0.00286343
0.433534
-0.0026807
-0.432427
0.00248324
0.432213
-0.0022699
-0.00310227
0.86154
0.00200545
0.0020407
-0.00209994
0.860215
-0.00106038
0.85941
0.858966
-0.00106034
0.972903
-0.00210137
0.972828
-0.00310241
0.972442
-0.00203253
0.971817
-0.00201188
-0.485105
0.485333
-0.00226068
-0.484396
0.00247398
0.484595
-0.00267336
-0.483476
0.0028598
0.483649
-0.00152158
-0.00151099
-0.241136
0.00160393
0.241174
-0.00164148
-0.240228
0.00174519
0.24026
-0.00177697
-0.23899
0.00186233
0.239014
-0.00188583
-0.236136
0.00192257
0.23613
-0.00191643
-0.226029
0.00195512
0.226099
-0.00202524
-0.228874
0.00200418
0.228852
-0.00198307
-0.225839
0.00192522
0.22582
-0.00190605
-0.223108
0.00184542
0.223086
-0.00182386
-0.220881
0.00175433
0.220856
-0.00172934
-0.219115
0.00164798
0.219085
-0.00161845
0.00152127
-0.21776
0.217724
-0.00148527
-0.433356
0.00272221
0.433184
-0.00254947
-0.432011
0.0023628
0.431809
-0.00216113
-0.00296287
0.86064
0.00191944
0.00194344
-0.0020068
0.859259
-0.00101302
0.858416
0.857953
-0.00103873
0.973942
-0.00205526
0.973845
-0.00303706
0.973424
-0.00198557
0.972747
-0.00198164
-0.485549
0.485758
-0.00219519
-0.48479
0.00239982
0.484982
-0.00259138
-0.483818
0.00277041
0.483984
-0.00147104
-0.00146519
-0.241284
0.00154915
0.24132
-0.0015851
-0.240353
0.00168456
0.240384
-0.00171503
-0.239082
0.00179648
0.239104
-0.00181864
-0.236112
0.00185223
0.236106
-0.0018465
-0.226302