/*--------------------------------*- C++ -*----------------------------------*\
| =========                 |                                                 |
| \\      /  F ield         | OpenFOAM: The Open Source CFD Toolbox           |
|  \\    /   O peration     | Version:  v1912                                 |
|   \\  /    A nd           | Website:  www.openfoam.com                      |
|    \\/     M anipulation  |                                                 |
\*---------------------------------------------------------------------------*/
FoamFile
{
    version     2.0;
    format      ascii;
    class       volVectorField;
    location    "800";
    object      U;
}
// * * * * * * * * * * * * * * * * * * * * * * * * * * * * * * * * * * * * * //

dimensions      [0 1 -1 0 0 0 0];


internalField   nonuniform List<vector> 
12556
(
(99.9993 0.00196298 -1.51308e-19)
(99.999 0.00677828 5.09431e-24)
(99.998 0.0147589 -1.60738e-19)
(99.9966 0.0272276 -1.57504e-19)
(100 0.0212732 6.49474e-20)
(99.9984 0.0365043 0)
(99.9975 0.0593255 0)
(99.9967 0.0917906 -1.12549e-19)
(99.9957 0.135406 1.31886e-20)
(99.9949 0.189904 -8.72496e-20)
(99.9948 0.250061 1.05546e-20)
(99.996 0.304602 0)
(99.9984 0.338751 0)
(100.001 0.341736 1.43569e-20)
(100.004 0.314174 -2.3927e-20)
(100.005 0.266471 1.50466e-20)
(100.005 0.211789 0)
(100.004 0.159948 2.54084e-20)
(100.004 0.115077 1.0459e-19)
(100.002 0.0824963 -2.96078e-20)
(100.009 0.0944214 -6.1877e-19)
(100.006 0.0598478 0)
(100.004 0.032291 -7.92676e-20)
(100.004 0.0103485 -5.25084e-19)
(99.9928 0.00514768 6.37265e-19)
(99.9893 0.0179475 1.69762e-19)
(99.9811 0.0396568 1.18501e-18)
(99.9676 0.0739381 -4.99824e-19)
(99.9698 0.102527 7.12431e-20)
(99.9491 0.174605 -7.29432e-22)
(99.9226 0.284754 0)
(99.9114 0.387699 -5.02652e-20)
(99.8807 0.577494 -4.67646e-20)
(99.8538 0.820794 -8.2235e-20)
(99.8434 1.09751 -3.42103e-20)
(99.8641 1.35884 -4.50852e-20)
(99.9207 1.5338 -9.22754e-21)
(99.9963 1.56455 4.87415e-23)
(100.062 1.44737 -3.57734e-21)
(100.1 1.23085 3.41657e-20)
(100.109 0.978691 -6.78608e-20)
(100.098 0.744003 0)
(100.112 0.565882 -4.82945e-19)
(100.081 0.392611 9.3622e-19)
(100.082 0.270285 6.31186e-19)
(100.06 0.171073 1.32667e-18)
(100.045 0.0920293 -1.33169e-18)
(100.039 0.0294208 6.29647e-19)
(99.9806 0.00607272 -6.37747e-19)
(99.9706 0.0219978 -1.36547e-18)
(99.9489 0.0513719 -3.05679e-18)
(99.9129 0.0998741 4.00166e-18)
(99.896 0.159886 -1.457e-19)
(99.834 0.280036 -1.38654e-19)
(99.7499 0.465924 -2.34814e-19)
(99.6978 0.676388 0)
(99.5917 1.03354 1.86032e-19)
(99.4963 1.5066 4.02356e-20)
(99.4599 2.07124 -1.0199e-19)
(99.548 2.62716 -1.07113e-21)
(99.7824 3.01063 1.39119e-20)
(100.088 3.07995 -2.49083e-22)
(100.341 2.82551 0)
(100.47 2.36648 2.60771e-20)
(100.48 1.84498 -6.99752e-20)
(100.422 1.36715 -1.67537e-19)
(100.375 0.971411 -2.91843e-18)
(100.278 0.663118 -6.49159e-19)
(100.23 0.412235 -6.49502e-19)
(100.167 0.259211 1.50061e-18)
(100.127 0.1387 -1.68886e-19)
(100.11 0.0441535 0)
(99.968 0.00337638 -3.20663e-19)
(99.949 0.0148123 2.40029e-18)
(99.9089 0.0427769 -6.86764e-19)
(99.8419 0.0950714 0)
(99.7929 0.176938 0)
(99.6705 0.327588 -1.12568e-18)
(99.4997 0.569382 -2.19379e-18)
(99.3567 0.877404 2.08553e-19)
(99.1122 1.38878 9.94724e-20)
(98.867 2.10647 4.72482e-20)
(98.745 3.01182 -1.32963e-19)
(98.9032 4.00327 3.71287e-20)
(99.464 4.74802 3.72022e-20)
(100.24 4.8652 0)
(100.843 4.34889 0)
(101.105 3.51792 -1.19713e-19)
(101.1 2.6598 0)
(100.946 1.91068 0)
(100.781 1.29253 1.05273e-18)
(100.576 0.862646 -8.21299e-19)
(100.437 0.501411 -1.66161e-18)
(100.317 0.310439 8.56227e-19)
(100.241 0.164161 -1.72187e-19)
(100.207 0.0519401 0)
(99.9637 -0.0037559 0)
(99.9343 -0.00614152 0)
(99.8732 0.00907105 3.45987e-19)
(99.7705 0.051776 5.15063e-19)
(99.6779 0.142665 3.75694e-19)
(99.4807 0.298694 0)
(99.1992 0.559594 0)
(98.9224 0.928595 0)
(98.4641 1.55674 1.75464e-18)
(97.9682 2.47805 2.34907e-19)
(97.5672 3.82081 0)
(97.6778 5.56741 2.14034e-19)
(98.8323 7.07123 2.56863e-20)
(100.599 7.23527 -2.10348e-20)
(101.806 6.13701 5.62598e-19)
(102.178 4.64406 1.66116e-18)
(102.028 3.32484 3.24265e-19)
(101.681 2.30572 -4.12551e-21)
(101.314 1.47664 -1.74888e-18)
(100.954 0.956428 1.46662e-19)
(100.68 0.518054 0)
(100.487 0.3126 1.75599e-19)
(100.368 0.16212 -1.32088e-19)
(100.313 0.0507656 -4.10725e-20)
(99.977 -0.0156042 0)
(99.9371 -0.0417434 0)
(99.855 -0.0515641 -6.9447e-19)
(99.7158 -0.0335887 1.39202e-18)
(99.573 0.0496469 0)
(99.2967 0.181385 0)
(98.8941 0.417935 4.56367e-19)
(98.452 0.792896 1.76394e-19)
(97.7365 1.41366 2.53252e-19)
(96.8226 2.41277 -1.24958e-18)
(95.755 4.17758 1.51619e-18)
(95.237 7.21781 -1.43276e-18)
(97.4368 10.7444 2.42611e-20)
(101.65 10.7718 0)
(103.734 8.15118 2.19052e-18)
(103.899 5.59444 0)
(103.313 3.71167 -2.88548e-19)
(102.589 2.42618 5.01684e-19)
(101.934 1.46372 4.48079e-19)
(101.374 0.910075 -3.0295e-19)
(100.926 0.445852 0)
(100.653 0.257039 0)
(100.487 0.128376 -4.45588e-20)
(100.408 0.0393323 -1.25554e-19)
(100.017 -0.0318653 1.58409e-19)
(99.9675 -0.0910482 -1.70533e-19)
(99.867 -0.13744 3.48004e-19)
(99.6958 -0.158743 -1.25712e-18)
(99.5022 -0.101894 1.30854e-21)
(99.1537 -0.0246976 4.64584e-19)
(98.6407 0.140001 -2.36234e-18)
(98.035 0.449524 -2.50003e-19)
(97.0809 0.924438 5.95687e-19)
(95.6591 1.73455 4.0208e-19)
(93.4716 3.30059 1.12239e-18)
(90.1454 7.39483 2.77279e-18)
(92.959 17.4668 3.18614e-19)
(105.558 16.3012 3.45752e-18)
(107.427 9.85805 0)
(106.389 5.89394 8.67455e-19)
(104.912 3.5656 -4.73594e-19)
(103.601 2.17135 -7.76928e-20)
(102.551 1.1952 0)
(101.78 0.69981 1.66749e-19)
(101.139 0.278457 1.14934e-19)
(100.785 0.141273 -1.38563e-19)
(100.573 0.0620049 -1.5837e-19)
(100.471 0.017412 3.56653e-19)
(100.092 -0.0516687 -1.58323e-19)
(100.035 -0.151308 1.70376e-19)
(99.9207 -0.24329 -2.16111e-19)
(99.7259 -0.315259 -1.42983e-19)
(99.4881 -0.301593 2.69591e-19)
(99.0856 -0.303084 1.5646e-19)
(98.4927 -0.248881 1.22552e-18)
(97.7686 -0.0708201 2.26954e-19)
(96.6677 0.140955 0)
(94.9444 0.464344 1.6493e-19)
(92.1398 0.839783 -9.36571e-19)
(86.6728 0.937638 9.91589e-19)
(117.401 20.8011 9.2445e-19)
(113.132 9.10247 -1.94639e-19)
(109.314 4.80034 1.43995e-19)
(106.532 2.64003 -2.30979e-19)
(104.541 1.45933 7.07132e-20)
(103.053 0.660991 -9.13086e-20)
(102.101 0.325345 3.76838e-19)
(101.275 0.0240095 -1.4079e-19)
(100.855 -0.0287222 1.17417e-19)
(100.606 -0.0335232 -2.29411e-20)
(100.485 -0.0138429 -3.3624e-19)
(100.207 -0.0737114 -7.63285e-20)
(100.146 -0.218456 -6.1243e-20)
(100.024 -0.361514 -2.09652e-20)
(99.8165 -0.491024 6.25419e-20)
(99.5459 -0.532078 -4.94183e-22)
(99.1148 -0.625242 0)
(98.4842 -0.699587 2.00402e-19)
(97.7096 -0.683905 -1.31877e-21)
(96.5924 -0.752871 4.17241e-21)
(94.9117 -0.897247 -2.09753e-19)
(92.6156 -1.37762 -9.29282e-20)
(90.3238 -2.90707 -3.30294e-20)
(130.452 9.35776 0)
(117.787 4.1067 6.5635e-19)
(111.538 1.99967 7.21723e-19)
(107.689 0.904174 3.4018e-20)
(105.168 0.32468 -2.10767e-19)
(103.328 -0.0924976 -9.63608e-20)
(102.262 -0.183592 2.13547e-19)
(101.3 -0.294408 4.85478e-20)
(100.838 -0.238279 0)
(100.565 -0.150272 1.81381e-19)
(100.431 -0.0518954 1.67971e-19)
(100.365 -0.0964557 1.503e-19)
(100.303 -0.287774 2.35174e-21)
(100.181 -0.483401 0)
(99.9722 -0.672501 8.25328e-21)
(99.6828 -0.773998 -3.69028e-20)
(99.2486 -0.960654 3.82158e-20)
(98.6208 -1.16192 0)
(97.8532 -1.30163 -4.02761e-21)
(96.8047 -1.59405 1.57853e-19)
(95.2846 -2.00765 1.83868e-19)
(93.4304 -2.64464 0)
(91.8562 -3.45619 -2.00411e-20)
(130.058 -5.16145 -9.42637e-19)
(118.368 -2.57719 0)
(111.994 -1.65946 1.86224e-19)
(107.942 -1.2687 -6.34726e-20)
(105.281 -1.04526 -4.06537e-19)
(103.299 -0.955451 8.26463e-19)
(102.213 -0.764007 0)
(101.19 -0.641496 -4.76641e-20)
(100.717 -0.4656 -2.01114e-19)
(100.438 -0.276758 2.24967e-20)
(100.299 -0.0931065 0)
(100.567 -0.118397 -7.39482e-20)
(100.507 -0.354618 7.95625e-20)
(100.39 -0.600484 7.76362e-20)
(100.192 -0.846723 -7.12952e-20)
(99.8972 -1.00843 -3.63342e-20)
(99.4822 -1.28151 0)
(98.8888 -1.59669 -7.44992e-20)
(98.1645 -1.87041 5.70414e-20)
(97.212 -2.3295 -2.81993e-19)
(95.8198 -2.90224 -1.62817e-19)
(94.1115 -3.56957 -4.15579e-19)
(92.6022 -4.13403 6.24567e-20)
(123.117 -13.9247 1.06229e-18)
(115.562 -7.88289 0)
(110.674 -4.92619 -1.37079e-18)
(107.227 -3.32198 0)
(104.831 -2.37646 -3.96223e-19)
(102.949 -1.79043 0)
(101.944 -1.33491 -5.09676e-19)
(100.941 -0.97807 -5.98345e-19)
(100.49 -0.686603 4.56163e-20)
(100.222 -0.400303 -1.45983e-19)
(100.087 -0.133457 2.00515e-20)
(100.81 -0.138158 2.71752e-19)
(100.755 -0.414591 0)
(100.649 -0.705043 -7.74027e-20)
(100.469 -1.00145 0)
(100.181 -1.21941 0)
(99.8032 -1.56609 -1.0521e-19)
(99.2676 -1.97603 -2.58238e-20)
(98.6093 -2.36155 9.08173e-22)
(97.7634 -2.95511 7.16077e-20)
(96.4716 -3.67419 1.59091e-19)
(94.775 -4.47076 -3.44328e-19)
(93.1405 -5.08806 2.92998e-22)
(115.045 -17.5695 -1.4223e-18)
(111.264 -10.792 3.10515e-19)
(108.276 -7.07391 -1.09906e-18)
(105.813 -4.84351 -5.19518e-20)
(103.931 -3.44151 -4.56668e-20)
(102.331 -2.48295 4.31758e-20)
(101.487 -1.82733 -6.21252e-19)
(100.571 -1.27052 3.54239e-19)
(100.166 -0.879978 0)
(99.9234 -0.509607 1.68443e-19)
(99.7994 -0.169313 0)
(101.088 -0.155193 -2.70392e-19)
(101.04 -0.466415 4.53365e-18)
(100.948 -0.794472 -9.0868e-18)
(100.792 -1.13345 -2.42672e-20)
(100.525 -1.39469 -3.1821e-20)
(100.197 -1.79795 0)
(99.7363 -2.27831 2.65826e-19)
(99.1598 -2.75453 -1.66697e-21)
(98.4428 -3.45826 -3.79738e-21)
(97.29 -4.33948 -7.28701e-20)
(95.6725 -5.41965 1.87447e-19)
(93.9483 -6.34861 0)
(104.328 -26.8209 -3.86713e-19)
(107.247 -16.7358 0)
(106.926 -11.444 2.86809e-20)
(105.582 -7.97363 0)
(104.092 -5.67919 9.10732e-20)
(102.778 -4.12482 1.22012e-18)
(101.543 -2.96568 -1.29846e-18)
(100.895 -2.19537 0)
(100.108 -1.49518 0)
(99.7659 -1.03098 5.27288e-19)
(99.557 -0.596516 9.76369e-20)
(99.4488 -0.198009 -2.97174e-19)
(101.394 -0.16799 0)
(101.354 -0.50527 0)
(101.278 -0.860639 0)
(101.151 -1.23103 0)
(100.905 -1.53381 0)
(100.629 -1.97811 0)
(100.249 -2.50963 0)
(99.7733 -3.04713 0)
(99.2093 -3.82353 0)
(98.2771 -4.83702 0)
(97.0126 -6.25543 0)
(95.5212 -8.43583 0)
(97.2565 -17.1381 0)
(102.485 -13.7893 0)
(103.505 -10.5209 1.08039e-18)
(103.18 -7.88022 0)
(102.404 -5.89757 0)
(101.568 -4.427 -9.87622e-19)
(100.687 -3.22754 -1.76444e-18)
(100.233 -2.42485 -6.50428e-19)
(99.5886 -1.64359 -8.43753e-19)
(99.3129 -1.13311 8.49509e-19)
(99.141 -0.656876 0)
(99.0509 -0.218129 7.98933e-19)
(101.72 -0.176409 0)
(101.689 -0.530815 0)
(101.631 -0.903004 0)
(101.533 -1.29167 0)
(101.318 -1.6183 0)
(101.101 -2.08131 0)
(100.809 -2.62972 0)
(100.438 -3.19265 0)
(100.043 -3.9737 0)
(99.4003 -4.98523 0)
(98.714 -6.38671 0)
(97.8338 -8.35675 0)
(98.6321 -10.8457 -5.51725e-29)
(100.498 -10.5219 0)
(101.319 -8.94653 0)
(101.335 -7.21158 0)
(100.951 -5.68283 0)
(100.443 -4.42548 -1.97139e-19)
(99.8519 -3.30158 0)
(99.5539 -2.52342 0)
(99.0451 -1.71751 -1.57468e-18)
(98.8319 -1.18656 7.93238e-19)
(98.6954 -0.690448 3.33346e-20)
(98.6233 -0.229467 -5.51962e-19)
(102.059 -0.180487 0)
(102.036 -0.543151 0)
(101.995 -0.922076 0)
(101.926 -1.31763 0)
(101.741 -1.65524 0)
(101.579 -2.11788 0)
(101.365 -2.65787 0)
(101.092 -3.21112 0)
(100.829 -3.94343 0)
(100.425 -4.82675 0)
(100.049 -5.91275 0)
(96.6156 -6.75467 0)
(99.3875 -8.25681 4.51542e-33)
(99.8089 -8.21076 0)
(100.072 -7.44305 0)
(100.036 -6.35353 0)
(99.7937 -5.23381 0)
(99.4686 -4.21981 0)
(99.0872 -3.2369 -5.63795e-19)
(98.8985 -2.51605 8.64958e-19)
(98.5045 -1.72666 4.91736e-19)
(98.3446 -1.19789 8.56217e-19)
(98.2385 -0.700256 -9.76232e-19)
(98.1824 -0.232764 0)
(102.401 -0.18061 0)
(102.386 -0.543492 0)
(102.36 -0.920238 0)
(102.315 -1.3126 0)
(102.16 -1.65027 0)
(102.044 -2.09712 0)
(101.895 -2.60821 0)
(101.697 -3.12536 0)
(101.525 -3.77079 0)
(101.244 -4.49115 0)
(100.967 -5.27184 0)
(95.8762 -5.56781 0)
(99.7965 -6.6423 9.65211e-38)
(99.5216 -6.62994 0)
(99.352 -6.20584 0)
(99.1534 -5.50729 0)
(98.9133 -4.70653 0)
(98.6724 -3.91581 0)
(98.4083 -3.0739 0)
(98.2913 -2.42994 0)
(97.9863 -1.68504 1.70394e-18)
(97.8678 -1.17521 -1.62749e-18)
(97.7857 -0.69002 -1.10531e-19)
(97.7425 -0.229514 1.0396e-19)
(102.74 -0.177358 0)
(102.732 -0.533636 0)
(102.718 -0.900855 0)
(102.693 -1.2818 0)
(102.563 -1.61043 0)
(102.483 -2.03098 0)
(102.38 -2.50083 0)
(102.234 -2.96733 0)
(102.108 -3.51499 0)
(101.864 -4.08392 0)
(101.608 -4.65264 0)
(95.5676 -4.70779 0)
(100.017 -5.50893 0)
(99.3681 -5.49274 0)
(98.9059 -5.22714 0)
(98.5468 -4.75703 0)
(98.2541 -4.17617 0)
(98.0295 -3.56148 0)
(97.8214 -2.85355 0)
(97.7432 -2.28977 0)
(97.5016 -1.60549 0)
(97.4125 -1.12539 0)
(97.3486 -0.664714 0)
(97.315 -0.221645 0)
(103.069 -0.171406 0)
(103.067 -0.515645 0)
(103.062 -0.867752 0)
(103.052 -1.23125 0)
(102.942 -1.54426 0)
(102.887 -1.93256 0)
(102.814 -2.35589 0)
(102.698 -2.7676 0)
(102.583 -3.22428 0)
(102.334 -3.67139 0)
(102.063 -4.09539 0)
(95.5404 -4.05157 0)
(100.136 -4.65721 0)
(99.2654 -4.63344 0)
(98.6068 -4.44812 0)
(98.1154 -4.11423 0)
(97.7552 -3.68188 0)
(97.5134 -3.20008 0)
(97.322 -2.60863 0)
(97.2586 -2.1208 0)
(97.0573 -1.5026 0)
(96.9864 -1.0582 0)
(96.9346 -0.62832 0)
(96.9082 -0.209593 0)
(103.386 -0.163453 0)
(103.387 -0.491659 0)
(103.389 -0.8248 0)
(103.388 -1.1669 0)
(103.294 -1.46015 0)
(103.254 -1.81389 0)
(103.195 -2.19049 0)
(103.092 -2.5496 0)
(102.967 -2.92844 0)
(102.695 -3.28248 0)
(102.389 -3.60601 0)
(95.679 -3.52829 0)
(100.197 -3.9892 0)
(99.185 -3.95927 0)
(98.3914 -3.81864 0)
(97.7966 -3.56936 0)
(97.3706 -3.23815 0)
(97.0969 -2.85508 0)
(96.8991 -2.36036 0)
(96.8341 -1.94022 0)
(96.6555 -1.38758 0)
(96.5939 -0.9814 0)
(96.5488 -0.585457 0)
(96.5268 -0.195215 0)
(103.686 -0.15417 0)
(103.69 -0.463699 0)
(103.695 -0.775559 0)
(103.699 -1.09406 0)
(103.616 -1.36544 0)
(103.583 -1.68484 0)
(103.528 -2.01747 0)
(103.425 -2.32906 0)
(103.28 -2.64386 0)
(102.978 -2.92793 0)
(102.621 -3.17959 0)
(95.9069 -3.09783 0)
(100.224 -3.44982 -5.23421e-34)
(99.1163 -3.41559 0)
(98.2269 -3.30213 0)
(97.5521 -3.10794 0)
(97.0678 -2.84706 0)
(96.7573 -2.53744 0)
(96.5405 -2.12144 0)
(96.464 -1.75965 0)
(96.295 -1.26871 0)
(96.236 -0.900794 0)
(96.1936 -0.539579 0)
(96.1739 -0.179814 0)
(103.967 -0.144143 0)
(103.972 -0.43353 0)
(103.979 -0.723064 0)
(103.984 -1.01718 0)
(103.908 -1.26606 0)
(103.876 -1.5529 0)
(103.818 -1.84576 0)
(103.708 -2.11577 0)
(103.536 -2.37879 0)
(103.205 -2.61023 0)
(102.786 -2.80889 0)
(96.1763 -2.73629 0)
(100.229 -3.00535 0)
(99.0546 -2.96838 0)
(98.0952 -2.87282 0)
(97.3583 -2.71615 0)
(96.8241 -2.50553 0)
(96.477 -2.25115 0)
(96.2353 -1.89886 0)
(96.1415 -1.58652 0)
(95.9732 -1.15179 0)
(95.9121 -0.820561 0)
(95.8694 -0.493254 0)
(95.8503 -0.16428 0)
(104.229 -0.133857 0)
(104.235 -0.402599 0)
(104.241 -0.669748 0)
(104.245 -0.939735 0)
(104.173 -1.16656 0)
(104.137 -1.42341 0)
(104.07 -1.6811 0)
(103.948 -1.91537 0)
(103.748 -2.13677 0)
(103.39 -2.32834 0)
(102.9 -2.48689 0)
(96.4588 -2.42848 0)
(100.221 -2.6339 -6.64422e-34)
(98.9978 -2.59533 0)
(97.9861 -2.51243 0)
(97.2006 -2.38242 0)
(96.6243 -2.20869 0)
(96.2427 -1.99651 0)
(95.974 -1.69588 0)
(95.86 -1.42515 0)
(95.6867 -1.04064 0)
(95.6205 -0.743538 0)
(95.5753 -0.448288 0)
(95.5557 -0.149225 0)
(104.471 -0.123691 0)
(104.477 -0.372033 0)
(104.482 -0.617466 0)
(104.482 -0.86431 0)
(104.411 -1.07017 0)
(104.368 -1.29997 0)
(104.289 -1.52699 0)
(104.153 -1.73077 0)
(103.925 -1.91874 0)
(103.544 -2.07972 0)
(102.978 -2.20732 0)
(96.7377 -2.16419 0)
(100.203 -2.32044 0)
(98.9449 -2.28109 0)
(97.893 -2.20764 0)
(97.0692 -2.09732 0)
(96.4575 -1.95139 0)
(96.0446 -1.77199 0)
(95.7487 -1.51352 0)
(95.6137 -1.27774 0)
(95.4318 -0.937514 0)
(95.3586 -0.671517 0)
(95.3097 -0.405873 0)
(95.2886 -0.135045 0)
(104.695 -0.113926 0)
(104.699 -0.342674 0)
(104.702 -0.567565 0)
(104.697 -0.792731 0)
(104.626 -0.979117 0)
(104.574 -1.18483 0)
(104.481 -1.38535 0)
(104.33 -1.56322 0)
(104.076 -1.72426 0)
(103.674 -1.86141 0)
(103.028 -1.96481 0)
(97.0041 -1.93621 0)
(100.179 -2.05428 2.17463e-34)
(98.8953 -2.01472 0)
(97.8122 -1.94865 0)
(96.9577 -1.85334 0)
(96.3162 -1.72885 0)
(95.8753 -1.57533 0)
(95.5532 -1.35152 0)
(95.3973 -1.14509 0)
(95.2049 -0.843613 0)
(95.1237 -0.60552 0)
(95.0703 -0.366734 0)
(95.0473 -0.121979 0)
(104.9 -0.104765 0)
(104.904 -0.315117 0)
(104.903 -0.520975 0)
(104.892 -0.726219 0)
(104.819 -0.894808 0)
(104.757 -1.0793 0)
(104.65 -1.25703 0)
(104.482 -1.41294 0)
(104.205 -1.55224 0)
(103.784 -1.67049 0)
(103.059 -1.75478 0)
(97.2536 -1.73919 0)
(100.15 -1.82751 0)
(98.8484 -1.78811 0)
(97.7408 -1.728 0)
(96.8615 -1.64445 0)
(96.195 -1.53681 0)
(95.729 -1.40403 0)
(95.3824 -1.20889 0)
(95.2064 -1.02715 0)
(95.0025 -0.759394 0)
(94.913 -0.546027 0)
(94.8547 -0.331255 0)
(94.8293 -0.110153 0)
(105.089 -0.0963411 0)
(105.091 -0.289764 0)
(105.086 -0.478298 0)
(105.069 -0.665528 0)
(104.994 -0.818082 0)
(104.921 -0.984031 0)
(104.799 -1.14226 0)
(104.616 -1.27956 0)
(104.317 -1.40125 0)
(103.879 -1.50432 0)
(103.076 -1.57343 0)
(97.4845 -1.56908 0)
(100.119 -1.63417 0)
(98.804 -1.59515 0)
(97.6769 -1.53995 0)
(96.7775 -1.46581 0)
(96.0897 -1.37164 0)
(95.6016 -1.25563 0)
(95.2322 -1.08437 0)
(95.0372 -0.923425 0)
(94.8215 -0.684842 0)
(94.7236 -0.493156 0)
(94.6602 -0.299585 0)
(94.6325 -0.0996116 0)
(105.263 -0.0887386 0)
(105.263 -0.266863 0)
(105.254 -0.43989 0)
(105.23 -0.61107 0)
(105.152 -0.749339 0)
(105.068 -0.899221 0)
(104.931 -1.04084 0)
(104.733 -1.1624 0)
(104.415 -1.26979 0)
(103.961 -1.36054 0)
(103.083 -1.41752 0)
(97.6968 -1.42266 0)
(100.085 -1.46961 0)
(98.7619 -1.43108 0)
(97.6191 -1.37999 0)
(96.7032 -1.31348 0)
(95.9974 -1.23018 0)
(95.4895 -1.12786 0)
(95.0991 -0.976561 0)
(94.8865 -0.833111 0)
(94.6589 -0.619658 0)
(94.5529 -0.446792 0)
(94.4845 -0.271712 0)
(94.4543 -0.090348 0)
(105.423 -0.0820045 0)
(105.421 -0.246553 0)
(105.408 -0.405933 0)
(105.377 -0.563029 0)
(105.295 -0.688709 0)
(105.2 -0.824792 0)
(105.049 -0.952354 0)
(104.836 -1.06063 0)
(104.503 -1.1564 0)
(104.033 -1.23708 0)
(103.083 -1.28438 0)
(97.8913 -1.29739 0)
(100.05 -1.33016 0)
(98.7217 -1.29218 0)
(97.5664 -1.24455 0)
(96.6367 -1.18428 0)
(95.9156 -1.10982 0)
(95.3901 -1.0187 0)
(94.9804 -0.884108 0)
(94.7513 -0.755331 0)
(94.5121 -0.563398 0)
(94.3983 -0.406692 0)
(94.325 -0.247536 0)
(94.2923 -0.0823258 0)
(105.572 -0.0761584 0)
(105.568 -0.228897 0)
(105.551 -0.376488 0)
(105.512 -0.521422 0)
(105.426 -0.636144 0)
(105.321 -0.760505 0)
(105.156 -0.876262 0)
(104.93 -0.973386 0)
(104.581 -1.05971 0)
(104.097 -1.13216 0)
(103.078 -1.17173 0)
(98.0694 -1.19118 0)
(100.014 -1.21291 0)
(98.6833 -1.17548 0)
(97.5179 -1.13076 0)
(96.5768 -1.07559 0)
(95.8422 -1.00832 0)
(95.3011 -0.926373 0)
(94.8736 -0.805739 0)
(94.6291 -0.689203 0)
(94.3787 -0.51555 0)
(94.2574 -0.37255 0)
(94.1795 -0.226903 0)
(94.1443 -0.0754906 0)
(105.71 -0.0712107 0)
(105.704 -0.213922 0)
(105.682 -0.351564 0)
(105.637 -0.486237 0)
(105.547 -0.591504 0)
(105.431 -0.706046 0)
(105.253 -0.812006 0)
(105.014 -0.899814 0)
(104.652 -0.978515 0)
(104.153 -1.04426 0)
(103.07 -1.07768 0)
(98.2325 -1.10235 0)
(99.9781 -1.11552 -3.10663e-35)
(98.6464 -1.0786 0)
(97.4728 -1.0363 0)
(96.522 -0.985285 0)
(95.7759 -0.923842 0)
(95.2207 -0.849351 0)
(94.7767 -0.740334 0)
(94.5179 -0.633907 0)
(94.2565 -0.475655 0)
(94.1283 -0.344062 0)
(94.0458 -0.209654 0)
(94.0083 -0.0697891 0)
(105.84 -0.06714 0)
(105.832 -0.201582 0)
(105.806 -0.33108 0)
(105.754 -0.457237 0)
(105.659 -0.554612 0)
(105.532 -0.661084 0)
(105.341 -0.759046 0)
(105.091 -0.839145 0)
(104.717 -0.911765 0)
(104.204 -0.972094 0)
(103.06 -1.00068 0)
(98.3822 -1.02953 0)
(99.9413 -1.03611 0)
(98.6107 -0.999649 0)
(97.4305 -0.959326 0)
(96.4714 -0.911655 0)
(95.7151 -0.854869 0)
(95.1471 -0.786365 0)
(94.6878 -0.686923 0)
(94.4156 -0.588714 0)
(94.1433 -0.44314 0)
(94.0082 -0.320895 0)
(93.9214 -0.195595 0)
(93.8815 -0.0651487 0)
(105.961 -0.0639899 0)
(105.951 -0.19196 0)
(105.921 -0.315126 0)
(105.863 -0.434849 0)
(105.763 -0.52531 0)
(105.627 -0.62531 0)
(105.424 -0.716895 0)
(105.163 -0.790688 0)
(104.778 -0.858555 0)
(104.25 -0.914582 0)
(103.049 -0.939448 0)
(98.5199 -0.971623 0)
(99.9045 -0.97319 0)
(98.5761 -0.937105 0)
(97.3904 -0.898355 0)
(96.4242 -0.853305 0)
(95.6588 -0.800158 0)
(95.0791 -0.736359 0)
(94.6054 -0.644701 0)
(94.3206 -0.553036 0)
(94.0385 -0.418074 0)
(93.8972 -0.302914 0)
(93.8063 -0.184671 0)
(93.7642 -0.0615676 0)
(106.084 -0.0615865 0)
(106.071 -0.184702 0)
(106.036 -0.303208 0)
(105.971 -0.41737 0)
(105.862 -0.503511 0)
(105.716 -0.598467 0)
(105.501 -0.685145 0)
(105.23 -0.753867 0)
(104.835 -0.81813 0)
(104.293 -0.870845 0)
(103.038 -0.892955 0)
(98.6471 -0.927773 0)
(99.8676 -0.925601 0)
(98.5423 -0.889789 0)
(97.3521 -0.85222 0)
(96.3796 -0.809139 0)
(95.6058 -0.75873 0)
(95.0153 -0.6985 0)
(94.528 -0.613022 0)
(94.2313 -0.526342 0)
(93.9349 -0.398729 0)
(93.7868 -0.289507 0)
(93.6917 -0.176447 0)
(93.6471 -0.0588433 0)
(106.18 -0.0603933 0)
(106.165 -0.180735 0)
(106.127 -0.296627 0)
(106.057 -0.410215 0)
(105.957 -0.489131 0)
(105.801 -0.580315 0)
(105.575 -0.663535 0)
(105.294 -0.728212 0)
(104.889 -0.789843 0)
(104.332 -0.840146 0)
(103.028 -0.860395 0)
(98.7651 -0.897374 0)
(99.8308 -0.892485 0)
(98.5091 -0.856797 0)
(97.315 -0.820015 0)
(96.3368 -0.778301 0)
(95.5554 -0.72982 0)
(94.9547 -0.672159 0)
(94.4544 -0.591382 0)
(94.1462 -0.508424 0)
(93.8521 -0.389833 0)
(93.6999 -0.281769 0)
(93.6015 -0.17176 0)
(93.5554 -0.0574151 0)
(106.345 -0.0590756 0)
(106.327 -0.177161 0)
(106.284 -0.29103 0)
(106.203 -0.399167 0)
(106.044 -0.481135 0)
(105.879 -0.570734 0)
(105.643 -0.652509 0)
(105.356 -0.713356 0)
(104.941 -0.773093 0)
(104.37 -0.821845 0)
(103.019 -0.841187 0)
(98.875 -0.880192 0)
(99.7941 -0.873279 0)
(98.4762 -0.837446 0)
(97.2788 -0.801057 0)
(96.2953 -0.760146 0)
(95.5067 -0.712846 0)
(94.8963 -0.656935 0)
(94.3865 -0.579568 0)
(94.0687 -0.498156 0)
(93.7144 -0.377663 0)
(93.552 -0.275156 0)
(93.4483 -0.167475 0)
(93.399 -0.0558433 0)
(89.9455 -2.79024 -9.60502e-22)
(132.006 12.4107 2.16584e-20)
(117.935 23.3054 -2.83389e-18)
(91.7429 -3.37789 -1.51425e-20)
(132.583 -4.14676 -1.87403e-19)
(132.869 10.1711 -6.39796e-19)
(92.5281 -4.04346 -6.18638e-20)
(125.164 -14.2552 -5.9101e-19)
(131.893 -5.82801 1.13115e-18)
(93.0665 -4.9456 1.28804e-19)
(116.508 -18.4312 3.53126e-18)
(124.087 -15.0446 -5.47528e-19)
(93.8898 -6.25023 -6.5214e-20)
(104.286 -27.5667 1.83506e-19)
(105.032 -27.1334 0)
(108.409 -18.4397 -1.73763e-18)
(115.441 -18.6486 -7.43977e-19)
(95.3079 -8.15347 0)
(96.0149 -18.2065 0)
(103.929 -27.4683 0)
(97.4201 -18.4439 1.68272e-19)
(102.756 -15.7387 -6.5241e-19)
(107.501 -18.2701 -2.08772e-19)
(86.6067 2.00944 -2.86532e-18)
(91.6945 16.1422 -3.05473e-19)
(115.287 23.4085 3.3858e-20)
(103.801 17.4426 -8.15938e-19)
(136.528 30.2969 1.94403e-19)
(117.202 39.326 5.05897e-18)
(129.623 11.3157 0)
(118.997 6.73691 2.77101e-19)
(114.281 10.8045 -2.2129e-19)
(93.2381 -2.37884 0)
(91.9163 -3.25284 2.00799e-20)
(90.5372 -2.56417 -6.34834e-20)
(143.804 1.68326 5.43235e-20)
(144.212 13.9451 0)
(130.623 -3.60923 3.77466e-19)
(120.851 -1.16273 -1.08776e-18)
(119.987 4.85481 -2.32338e-19)
(93.9509 -3.34871 -2.54821e-20)
(92.7085 -3.9601 -9.64324e-20)
(92.0332 -3.33766 -1.95501e-20)
(92.174 -3.70661 8.11668e-20)
(91.4458 -4.08397 2.67897e-20)
(91.0359 -3.79071 -3.19086e-20)
(133.807 -15.3813 6.9366e-19)
(139.41 -9.06162 0)
(124.105 -13.1548 -1.68448e-18)
(118.153 -7.79227 -2.34864e-18)
(120.509 -3.05166 0)
(94.5982 -4.23954 3.49498e-19)
(93.287 -4.86635 -1.59475e-19)
(92.7859 -4.05555 0)
(92.8016 -4.4393 4.23238e-20)
(91.7681 -4.61917 0)
(91.7719 -4.3246 5.75321e-20)
(122.846 -21.8709 -8.83591e-21)
(127.605 -19.7402 0)
(95.4116 -5.18198 -2.25386e-20)
(94.0542 -6.11352 -1.13911e-19)
(93.3655 -5.00494 0)
(93.4707 -5.56826 4.76649e-20)
(91.7403 -5.85003 5.92323e-20)
(91.779 -5.24121 -5.58913e-20)
(109.112 -28.3074 0)
(112.39 -23.4291 0)
(116.907 -23.3067 3.57823e-19)
(96.6283 -6.09596 0)
(95.4657 -7.85871 0)
(94.1771 -6.29448 0)
(94.4348 -7.0783 0)
(90.5672 -7.31453 -1.15189e-18)
(91.5091 -6.58142 5.17584e-19)
(98.5804 -8.50238 0)
(97.6199 -11.2344 1.02282e-27)
(96.0147 -17.483 -1.68666e-22)
(86.6142 -5.75353 -5.61301e-20)
(89.9433 -4.68996 3.29057e-20)
(79.0922 -0.232609 4.59866e-18)
(85.7749 -5.71388 2.72766e-19)
(144.081 14.8681 2.61352e-18)
(137.363 29.4198 -1.54702e-19)
(127.619 18.6419 -1.53232e-18)
(136.22 27.6972 9.13516e-19)
(143.127 14.689 -8.70398e-19)
(90.9949 -3.74018 0)
(90.7914 -3.6399 -3.67371e-20)
(91.338 -3.18876 0)
(90.6829 -3.6736 0)
(90.8525 -3.78053 0)
(90.1191 -4.49472 -4.77866e-20)
(90.6561 -3.7119 0)
(139.738 -8.51774 2.67478e-20)
(143.651 0.948494 5.45433e-20)
(133.293 1.99974 1.84841e-19)
(142.994 1.14915 -2.62291e-20)
(139.321 -8.18384 0)
(143.29 13.7853 -1.08361e-19)
(143.137 1.86025 2.06317e-19)
(133.317 3.00835 1.20637e-20)
(91.749 -4.29079 0)
(91.4994 -4.10937 -4.04094e-20)
(92.2714 -3.78965 -2.04772e-20)
(91.3418 -4.1467 7.82846e-20)
(91.5793 -4.31385 0)
(90.8709 -3.81116 5.55969e-21)
(91.3158 -4.13331 1.49766e-19)
(128.29 -19.3461 0)
(133.415 -15.7288 -1.68824e-19)
(128.294 -11.3144 -4.42292e-21)
(132.926 -15.2375 6.16783e-19)
(128.016 -18.6417 0)
(139.006 -8.72601 0)
(133.674 -14.6076 -3.74318e-19)
(129.282 -10.1267 0)
(91.7716 -5.20108 -3.88949e-23)
(91.7646 -4.65008 -1.26696e-19)
(92.8648 -4.5553 -1.47576e-19)
(91.5894 -4.64293 1.12826e-19)
(91.5007 -5.20612 0)
(91.5881 -4.33211 2.66943e-20)
(91.5983 -4.61272 2.17186e-19)
(117.559 -23.2143 3.67655e-19)
(122.173 -22.0949 -9.60374e-19)
(91.526 -6.53233 2.54425e-19)
(91.7353 -5.90023 -3.02021e-20)
(93.5173 -5.65094 6.36007e-20)
(107.257 -28.3453 0)
(91.2542 -5.88718 -2.28949e-19)
(90.5979 -6.49208 -3.46753e-19)
(91.5048 -5.24558 -6.14392e-20)
(91.2759 -5.84124 0)
(107.02 -28.2395 1.79159e-19)
(107.665 -22.8434 7.8285e-19)
(111.744 -23.4408 0)
(109.041 -28.3223 1.65906e-19)
(78.1198 -7.64325 2.6784e-19)
(90.5165 -7.38556 -4.60023e-21)
(94.5224 -7.20495 4.02754e-22)
(98.3389 -23.4593 2.68578e-20)
(88.8672 -7.22293 0)
(52.7245 -8.13694 1.18347e-19)
(90.5605 -6.5343 7.17021e-20)
(88.9218 -7.15803 1.42191e-18)
(98.8989 -24.1229 0)
(92.4161 -0.937357 -7.508e-20)
(90.2128 -2.39793 6.90284e-20)
(87.773 1.09943 8.49637e-19)
(87.9313 -1.53466 -4.04147e-19)
(85.9786 -4.87043 -3.16584e-19)
(80.6379 0.183542 2.04358e-18)
(135.711 51.4089 3.51406e-17)
(111.577 57.9746 4.16203e-19)
(91.153 -3.13395 -9.63583e-20)
(90.7505 -3.67144 1.81818e-20)
(90.0881 -4.31035 -2.98482e-21)
(122.224 -23.1803 -4.97439e-18)
(116.039 -17.3327 -1.5475e-18)
(113.369 -11.5663 0)
(117.065 -9.01166 5.0393e-19)
(106.817 -27.2953 3.10343e-18)
(114.68 -26.2908 -7.76834e-19)
(116.946 -25.9402 2.04853e-19)
(99.7585 -23.5653 2.28142e-19)
(103.4 -20.5151 -9.42092e-20)
(106.504 -22.3868 -1.8489e-18)
(89.8784 -4.44723 -1.29421e-20)
(86.7025 -4.98507 5.22309e-20)
(88.4803 -2.02558 6.15823e-21)
(89.376 -6.73808 9.27674e-20)
(68.2062 -2.05798 9.58575e-18)
(78.5079 -11.3844 -1.61119e-18)
(117.412 36.2057 -9.3554e-19)
(134.602 29.4464 -2.0981e-19)
(125.532 20.3435 1.31201e-18)
(117.286 -25.8489 0)
(119.542 -25.4047 0)
(119.754 -17.3891 0)
(121.989 -21.3973 4.5693e-19)
(117.467 -22.5344 -7.20332e-19)
(127.339 -19.0282 0)
(122.649 -21.1668 -2.45736e-19)
(120.842 -16.91 -9.88181e-19)
(106.42 -28.3599 1.24479e-19)
(90.7003 -26.8967 0)
(101.465 -26.3425 0)
(83.8423 22.8943 4.4187e-20)
(82.7686 10.2956 -1.07016e-18)
(78.7858 1.42465 7.41483e-18)
(113.984 38.7493 4.32086e-21)
(100.582 29.1023 9.60357e-19)
(85.471 25.4801 -4.16672e-20)
(137.897 48.9483 -1.577e-16)
(129.822 36.6441 -5.18421e-19)
(136.487 48.6671 2.26482e-17)
(112.588 54.2854 -4.89546e-19)
(134.004 50.2792 -3.45615e-18)
(126.948 37.9309 -1.00747e-18)
(144.299 7.07557 -2.3897e-19)
(144.346 7.8868 0)
(136.517 -12.8334 -1.89578e-19)
(136.897 -12.3975 7.71839e-19)
(121.94 -24.5616 2.90485e-19)
(122.624 -23.2993 -4.99803e-19)
(124.873 -21.0855 0)
(124.283 -23.2115 2.35066e-18)
(122.532 -24.2454 1.396e-19)
(125.392 -21.7561 6.35829e-18)
(124.373 -23.0818 1.19369e-18)
(125.553 -20.7836 -4.20741e-19)
(91.801 -5.53611 1.79952e-19)
(92.7491 -5.49169 1.39325e-19)
(92.8539 -5.74541 0)
(111.919 -26.2503 6.49296e-19)
(113.994 -26.3141 9.29745e-19)
(107.619 -27.4642 -1.02591e-17)
(91.3769 -6.95629 -1.43423e-19)
(93.3821 -6.99231 1.01628e-19)
(93.5066 -7.37874 -8.88727e-20)
(93.2244 -6.5646 5.01414e-20)
(93.3433 -6.87769 -1.011e-19)
(91.4098 -6.89085 -4.27874e-19)
(87.2998 -9.66114 -4.18848e-18)
(89.1721 -7.06643 5.72223e-18)
(88.5378 -5.44599 1.97776e-20)
(89.2657 -6.98239 -2.40946e-18)
(87.1758 -9.13578 7.15991e-18)
(89.8697 -5.06149 -1.23494e-18)
(89.4498 -6.69206 -1.30151e-18)
(89.0056 -5.2723 0)
(81.6467 -4.0014 0)
(78.8277 -9.92417 1.28522e-20)
(70.3564 -1.62227 -4.46261e-18)
(86.6293 -9.405 -1.29516e-19)
(80.098 -10.2236 1.42033e-18)
(82.7472 -4.7602 2.75591e-19)
(79.9737 -11.6154 -2.76011e-19)
(86.8266 -9.98131 3.58272e-19)
(142.024 21.4613 1.84921e-18)
(141.601 22.4679 -6.35109e-19)
(90.7736 -3.63489 2.09171e-20)
(89.6405 -3.62301 -4.2029e-22)
(90.7801 -3.64238 0)
(90.459 -4.0354 -3.93284e-20)
(89.9124 -4.04528 2.87168e-18)
(89.8584 -4.91203 -1.28057e-18)
(89.6838 -3.62979 -2.38108e-20)
(89.8831 -3.94283 -5.6612e-21)
(90.5274 -3.92547 2.64209e-20)
(141.746 -4.35742 -7.22561e-19)
(141.993 -3.72204 1.19992e-18)
(141.501 -3.4873 0)
(137.55 -1.90708 2.10721e-19)
(138.243 1.57882 -4.36328e-21)
(136.027 -6.06679 6.99975e-19)
(137.23 -3.00604 0)
(141.264 -4.1244 0)
(143.655 7.91097 -1.13297e-19)
(138.332 8.01222 1.10278e-19)
(137.558 12.1514 -2.18437e-19)
(138.374 2.8101 -9.42633e-20)
(138.436 6.67621 -8.15616e-20)
(143.629 7.10442 4.41115e-19)
(91.4883 -4.21144 1.51341e-19)
(91.5042 -4.22374 9.20221e-20)
(91.0649 -4.00147 1.16302e-20)
(91.0974 -4.0265 1.16996e-20)
(130.48 -17.8009 7.54247e-20)
(125.657 -21.4785 0)
(130.836 -17.527 7.72807e-20)
(91.5676 -4.89811 -1.19014e-19)
(91.5631 -4.93136 -2.95641e-20)
(91.6228 -4.44266 2.59475e-20)
(91.6234 -4.46273 -5.23819e-20)
(122.214 -24.3538 -2.69176e-19)
(120.016 -24.9844 0)
(120.18 -22.6698 -8.64262e-19)
(119.838 -25.3216 4.83746e-19)