/*--------------------------------*- C++ -*----------------------------------*\
| =========                 |                                                 |
| \\      /  F ield         | OpenFOAM: The Open Source CFD Toolbox           |
|  \\    /   O peration     | Version:  v1912                                 |
|   \\  /    A nd           | Website:  www.openfoam.com                      |
|    \\/     M anipulation  |                                                 |
\*---------------------------------------------------------------------------*/
FoamFile
{
    version     2.0;
    format      ascii;
    class       surfaceScalarField;
    location    "0.84";
    object      phi;
}
// * * * * * * * * * * * * * * * * * * * * * * * * * * * * * * * * * * * * * //

dimensions      [0 3 -1 0 0 0 0];
oriented        oriented;


internalField   nonuniform List<scalar> 
25162
(
0.000434553623
0.9162154464
0.0005357685527
0.9165987851
0.0006240142431
0.9165617543
0.0003015309115
0.9165957545
0.0003767288294
0.4583395768
0.0003119540891
0.458309957
0.0003806287133
-0.0003905857579
-0.0004810126259
0.4582873615
0.0005436511171
-0.0006031407468
0.4582370266
0.0007011141763
-0.0008075481274
0.4582150232
0.0009225249518
-0.001054686599
0.4581930105
0.001196676129
-0.001339654227
0.458192628
0.001482026231
-0.001621424646
0.4582199447
0.00173297992
-0.001820689592
0.4582808379
0.001873351667
-0.001885434593
0.4583629941
0.001857440527
-0.001795500653
0.458426196
0.00169930462
-0.001587079047
0.4584606035
0.001461475578
-0.001319714874
0.4584660537
0.001188661161
-0.001057538772
0.4584716354
0.0009009034144
-0.0008423341159
0.4584451593
0.0007471748523
-0.0006164129738
0.4584577165
0.0005086964567
-0.001741422256
0.9186224539
0.0002266014705
-0.0004576330842
-0.001085250929
0.9186938287
-3.270835109e-06
0.9157680199
0.9137967292
0.00119504187
0.9150204045
0.001888136124
0.9159056908
0.002133724951
0.9163161655
0.0005983515701
0.9171297882
0.001001339696
0.4580832003
0.0007141355378
-0.4581989842
-0.4581882954
-0.0008722759181
0.4579898565
0.001070714867
-0.4580477089
-0.001316526571
0.4577515035
0.000758471943
0.0008542599873
-0.2289654316
-0.0009209415381
0.2288868942
0.0009994789365
-0.001337942395
-0.2289064249
0.2288026444
0.001441722898
-0.001868682172
-0.2288568087
0.2287206799
0.00200481101
-0.002494692516
-0.2288489614
0.2286967108
0.002646943139
-0.003113919738
-0.2289031363
0.2287765868
0.003240573274
-0.003411167517
-0.2290368194
0.2289221742
0.003525639654
-0.003734744895
-0.2292059261
0.2291937962
0.003746874835
-0.003547523566
-0.2293175149
0.2294012466
0.003463791923
-0.00309402802
-0.2293848597
0.2295264667
0.002952421019
-0.002517180087
-0.2293945297
0.2295526564
0.002359053349
-0.001949148332
-0.2293656922
0.229508974
0.001805866536
-0.4588337436
-0.002727757545
0.460212055
0.001349446135
-8.637544311e-05
0.4608790064
-0.00156361426
-0.4592290167
-0.001779102492
0.9180534218
0.0005814789213
0.00176665566
-0.001081774399
0.9179965006
0.0003129991212
0.9143732464
0.9141097283
0.001515916784
0.9135044877
0.004054378701
0.9133672289
0.006843859712
0.9135266845
0.002783646448
0.914949162
0.006240839445
-0.4580559234
0.4578907081
0.002948861682
-0.4578214702
-0.002916950439
0.4584892771
0.002249143593
-0.4573484799
-0.002308204142
0.4571460364
0.001215583206
0.001295064418
-0.2285068315
-0.001507946262
0.2283419928
0.001672785006
-0.2282810131
-0.00226712041
0.2280491168
0.00249901666
-0.2280922602
-0.003052041835
0.2290709138
0.002082329077
-0.2302443697
0.001281961596
0.2311616502
-0.002159818055
-0.2299650131
0.003931233322
0.2302995962
-0.004236771755
-0.2283421918
0.004315178687
0.2281100175
-0.004087451482
-0.2271157301
0.002677184453
0.2263748387
-0.001970964467
-0.2278940733
-0.0008572013758
0.2267079041
0.002007495047
-0.2301756356
-0.005563976681
0.2302022224
0.005535589574
-0.230230744
-0.004635007113
0.23053542
0.004330331113
-0.003190617334
-0.2301640422
0.2308077351
0.002546924387
-0.4627670972
0.000483393317
0.4615125273
0.0007711765909
-0.4599280417
-0.000980525646
0.4598617717
0.001046795682
-2.508217656e-05
0.9197035712
-0.0009771492754
-0.000647917944
0.001508952472
0.9164624659
0.0007043823986
0.9151778165
0.9148141107
0.0005220343431
0.9129824534
0.001134102215
0.912755161
0.002333025009
0.9123277617
0.003135767226
0.9120398014
0.002106618359
-0.4571513411
0.4567393197
0.003547788622
-0.4600579451
-0.004731869569
0.4570416641
0.007748150551
-0.4586580786
-0.008967018937
0.4602631749
0.002000937166
0.005360985469
-0.2277379925
-0.001956466979
0.2275519615
0.002142498004
-0.2279104805
-0.002462842674
0.229349077
0.001046011775
-0.2329541862
0.002849886394
0.2341003075
-0.003898786994
-0.2334117306
0.006005494221
0.233843903
-0.006334204753
-0.2307284324
0.006382497283
0.2305828461
-0.006178971004
-0.2273117652
0.00531745842
0.2270140804
-0.005028017283
-0.2245190604
0.004201556501
0.2241391695
-0.003893584588
-0.2235170752
0.002507867267
0.2227200707
-0.001818744203
-0.2261378378
-0.001029609852
0.2248912645
0.002191021935
-0.2340015464
-0.001293735843
0.2373793245
-0.002087639961
-0.003290568332
-0.2315769272
0.2315571783
0.003310317223
-0.4614076766
-0.005046468887
0.4625162385
0.003937906998
-0.4605236635
-0.002809502679
0.4614479405
0.001885225681
0.002781538743
0.9195510967
-0.001405530756
-0.001223533498
0.00197169044
0.9172723142
0.0009132355087
0.9162362714
0.9157273462
0.0001466846344
0.9128357688
0.0003404032505
0.9125614424
0.00068087001
0.9119872949
0.001260624168
0.9110111059
0.0004489413561
-0.456486439
0.4557116764
0.002035386806
-0.4556495412
-0.002432731441
0.4550552097
0.003027062961
-0.4542255054
-0.003845866668
0.4535090804
0.002422633215
0.002139658401
-0.228247874
-0.004223403617
0.2265932866
0.005879287277
-0.2342192924
-0.004838215672
0.2376188262
0.001556600618
-0.2365927987
0.004375788099
0.237084496
-0.004694696854
-0.2336315952
0.003790364834
0.2329429652
-0.00296223617
-0.228763659
-0.0005373076935
0.2275530274
0.001812475013
-0.2259846491
-0.004713452528
0.2255636504
0.005125992601
-0.2242112493
-0.004498297132
0.2249351742
0.003691127361
-0.2218043311
-0.0004163170926
0.2222807964
-0.0002138534841
-0.2306750824
0.00944681885
0.2254847268
-0.004419665662
-0.2274457595
-0.001915123312
0.2262785751
0.002989608725
-0.004982874521
-0.23283174
0.2333355126
0.004479101966
-0.4640726096
-0.005960647009
0.4655620904
0.004471166137
-0.4623175773
-0.003414029966
0.4632138395
0.002517767739
0.003587830522
0.9213268155
-0.003053583152
-0.002309966168
0.001976631225
0.9188835135
0.0008990787905
0.9173138238
0.916626425
-0.0001156182253
0.912951387
-0.000138774241
0.9125845984
6.92501234e-05
0.9117792706
0.0002462015204
0.9105831818
0.0002509727778
-0.4548497488
0.4545551898
0.0005407605287
-0.4545797126
-0.001481895345
0.4538445628
0.002217045146
-0.4527432014
-0.002726163459
0.4517780252
0.001816433435
0.001874906241
-0.2290838323
-0.001266112385
0.2300690282
0.000342011258
-0.2368092443
0.001829876146
0.2373972202
-0.00222765974
-0.2380368092
-8.403720344e-05
0.2359539773
0.002376768359
-0.2296683736
-0.008661609854
0.2301796881
0.008274363932
-0.2218235396
-0.01597116453
0.2203021744
0.01752308332
-0.2237620616
-0.02459808227
0.222988725
0.02536961549
-0.2310640587
-0.01945309099
0.2328575068
0.01761190387
-0.2323259646
-0.004265534555
0.2313186612
0.005120570363
-0.2215928931
-0.003927591585
0.2221765932
0.003133280787
-0.2239502973
-0.002400454424
0.2236352169
0.002543677828
-0.003717679554
-0.2339742682
0.2336150444
0.00405315329
-0.466865871
-0.00627675472
0.4681850252
0.004957600516
-0.463724206
-0.003983575614
0.464195202
0.003512579637
0.003021793879
0.9235251811
-0.00252272189
-0.002697437608
0.001656639649
0.9202486678
0.0006856660416
0.9182847974
0.917312091
-0.000507424431
0.9134588114
-0.0008884307063
0.9129656047
-0.001123587996
0.9120144279
-4.167953551e-05
0.9102665042
-0.0007652308747
-0.4544367184
0.4541432419
0.0002517969686
-0.452822695
-0.0004729259076
0.4524747773
0.0008208436118
-0.4514439991
-0.001763564867
0.4511388782
0.00101497997
0.00105421072
-0.2320586079
5.417413625e-05
0.2326720228
-0.0005542503733
-0.2395221329
0.001367069372
0.238282945
0.0001103534288
-0.2330114508
-0.001286166282
0.2322352204
0.002270622007
-0.2196938619
-0.008113034404
0.2160315592
0.01184681307
-0.2125378343
-0.02721703742
0.1081578016
0.1025618977
0.01245782582
0.01657734656
-0.02070780491
-0.1088570626
0.1082471688
0.02131769869
-0.01700293558
-0.2456598615
0.03264371049
-0.01735130236
0.1232234369
0.1241469521
-0.02168300805
-0.2366888972
0.2405288723
0.01774141626
-0.2259007777
-0.009300106625
0.2280690921
0.006908496749
-0.223937629
-0.003159002072
0.2240177541
0.002863636515
-0.002960565359
-0.2315474185
0.2312116468
0.003213242588
-0.4695066861
-0.005454601682
0.4703063274
0.004654960436
-0.4651250247
-0.003516353639
0.4660537865
0.002587591809
0.0017886389
0.9251170827
-0.001585584846
-0.001794955664
0.0008385038033
0.9211988029
0.0003109377634
0.9188123635
0.9176230288
-0.0009134282345
0.9143722397
-0.001774923061
0.9138270995
-0.002443592423
0.9126830972
-0.00125418872
0.9108728334
-0.001795732975
-0.454118449
0.4541248588
-0.001260598566
-0.4523251556
0.001317615151
0.4522359589
-0.001228418487
-0.4500917983
0.001076685884
0.4501599663
-0.0004159994448
-0.0007175210839
-0.2337027116
3.120482901e-05
0.2337791885
3.352762769e-05
-0.2384162916
-0.0003667035196
0.2386128362
0.0004179411988
-0.2300911901
-0.001432925476
0.2297109756
0.002010336707
-0.2103429549
-0.004187497832
0.2095821179
0.004971768574
-0.09712103152
-0.003452919395
0.09725025523
0.003323695682
-0.02515481326
-0.1341935914
0.1367254183
0.02262298633
-0.02362110952
-0.2535210563
0.2575124547
0.01957597988
-0.2328930582
-0.01146769086
0.2344964916
0.00965082104
-0.2254411079
-0.005856463363
0.226087902
0.00496826099
-0.001924940175
-0.2310911593
0.2309924697
0.001905355732
-0.4714861478
-0.003411251002
0.4724634746
0.002433924233
-0.4668003271
-0.00175149692
0.4674317058
0.001120118242
-0.0002290992766
0.9258941531
-8.929878361e-06
-0.0005390412594
-0.0003919610801
0.9213616647
-0.000251423031
0.9186718254
0.9173716058
-0.001309872866
0.9156821125
-0.002547476791
0.9150647035
-0.003853827429
0.9139894479
-0.002238138287
0.912025571
-0.002768426671
-0.4543220521
0.4545098316
-0.002425917861
-0.4523162711
0.002644349499
0.4525206087
-0.002848687089
-0.4502530482
0.003033978646
0.4506461063
-0.001603803624
-0.001797575855
-0.2347069679
0.002048582909
0.2349023329
-0.00209141659
-0.2386394559
0.001916019489
0.2387386405
-0.001765568936
-0.2290799117
0.001235253172
0.2291340839
-0.001101885098
-0.2096297654
0.001198902334
0.2100332799
-0.001592327302
-0.1007894421
0.0022068682
0.1012295842
-0.002647010311
-0.01134456431
-0.149625494
0.1503619265
0.01060813176
-0.01195633639
-0.266880945
0.2686652044
0.0101421251
-0.238888725
-0.005836975322
0.2397890508
0.004733873309
-0.2275072433
-0.002171643011
0.2277868419
0.001645205846
-0.0006290424326
-0.2312469048
0.2312508594
0.0004913337636
-0.4736846904
-0.0004374511067
0.474676851
-0.0005547095261
-0.4677540037
0.001003208668
0.467933833
-0.001183038049
-0.002668956654
0.9253810678
0.0018247374
0.001357304617
-0.001902203147
0.9205949112
-0.0009932234023
0.9177628457
0.9163783824
-0.001668255511
0.917350368
-0.003444747443
0.9168411954
-0.005151672723
0.9156963731
-0.003213267413
0.9138394339
-0.003752268247
-0.4548926534
0.4552703456
-0.003590959588
-0.4527996811
0.004025112679
0.4532994386
-0.004524870181
-0.451203095
0.004995244514
0.4521041018
-0.002742067689
-0.003116259662
-0.2356116247
0.003389422884
0.2359202947
-0.003539863866
-0.2393117211
0.003774793803
0.2395851421
-0.003798954126
-0.2297064268
0.003859225766
0.2299644316
-0.003935988411
-0.2114430323
0.004538471634
0.2118974887
-0.004987340234
-0.1030227308
0.003356783584
0.1031814785
-0.001746498928
-0.00176903231
0.005222009309
-0.1493349752
0.1485452571
-0.004432291228
0.00379915341
-0.2691125246
0.2679709465
-0.002689346717
-0.2401605976
0.001087738238
0.2398037604
-0.0009332442896
-0.2281768195
0.001027072828
0.228064956
-0.001160363482
0.001565601451
-0.2315828441
0.2315692225
-0.0016841142
-0.4746815003
0.003855205627
0.4742064731
-0.00338017846
-0.4677525078
0.003249403667
0.4680794894
-0.003576385237
-0.005381718809
0.9235088396
0.003935195643
0.003318751314
-0.003543238798
0.9187564312
-0.00179607895
0.9160156858
0.9145823034
-0.002111681548
0.9194620496
-0.004208522571
0.9189380364
-0.006436967315
0.9179248179
-0.004156550679
0.9162405172
-0.004681499921
-0.4558303585
0.4563865054
-0.004712697607
-0.4538647808
0.005395068817
0.4544883282
-0.006018616135
-0.4533845449
0.006744105206
0.4549531872
-0.004030133427
-0.004227526556
-0.2370183129
0.004618306233
0.2374331001
-0.004868111525
-0.2405852668
0.005422845048
0.2409699828
-0.005558251239
-0.2308846858
0.005971130235
0.2312326216
-0.006144592073
-0.2132395798
0.006895671317
0.2136915973
-0.007345625957
-0.1040878762
0.004304966893
0.1041811354
-0.002186734907
-0.00221149124
0.01466140853
-0.1411097283
0.1398975696
-0.01344924986
0.01540612399
-0.2614897186
0.258444623
-0.01241509089
-0.2367851129
0.005963347618
0.2364797439
-0.005864449917
-0.2271955109
0.004458064715
0.2267596187
-0.004261217293
0.004204423246
-0.2318884864
0.231844121
-0.00427528765
-0.4733712632
0.007958642435
0.4722185347
-0.006805913944
-0.468264085
0.005778466404
0.4673342984
-0.004848679812
-0.007895840022
0.9204942149
0.005667715891
0.005242748841
-0.005136945008
0.9159975361
-0.002528702201
0.913407443
0.9120536012
-0.002515250315
0.9219772999
-0.005041681536
0.9214644677
-0.00768383847
0.9205669748
-0.005011167016
0.918909265
-0.005341419281
-0.4570916463
0.4577864438
-0.005705964481
-0.4553088518
0.00650850386
0.4561687791
-0.007368431182
-0.456575499
0.008302140865
0.458081377
-0.004965076704
-0.004767051231
-0.2388114847
0.005738702421
0.2393260192
-0.006081204021
-0.2422581867
0.006881220271
0.2427292058
-0.007103391889
-0.2323834456
0.007730281056
0.2327915438
-0.007971679379
-0.2151787533
0.008903854135
0.2157492264
-0.009474143761
-0.1047922728
0.005464667004
0.1048907171
-0.002763141688
-0.002799969638
0.01816158404
-0.1315838826
0.1303703768
-0.01694807828
0.02057920243
-0.2490242676
0.245728217
-0.01737162334
-0.232035179
0.01183756959
0.2289768612
-0.008997038342
-0.2249127286
0.005692051043
0.2240947528
-0.005100687307
0.006226861771
-0.231779648
0.2317196803
-0.006254860762
-0.4708005275
0.01135136464
0.4691328796
-0.009683716731
-0.4663324175
0.008232739579
0.4650910443
-0.006991366463
-0.01013608094
0.9181079769
0.006519424852
0.006002894167
-0.00652551328
0.9123869685
-0.003168715677
0.9100506454
0.9088848856
-0.006556174561
0.9285334745
-0.01327856072
0.9281868539
-0.02008010706
0.9273685212
-0.005953718954
0.9261042531
-0.02132137613
-0.45863285
0.4595017718
-0.006822640646
-0.4570574138
0.007767999998
0.4581238543
-0.008834440457
-0.4604982691
0.009877611196
0.4625955282
-0.005999903367
-0.005853357683
-0.2407333793
0.007446321943
0.2415902032
-0.008124192121
-0.2442089772
0.008313672515
0.2445036151
-0.008361949824
-0.2340745713
0.008487212189
0.2351033348
-0.009355492764
-0.2177882338
0.01058549419
0.2185777912
-0.005648670242
-0.00572638143
-0.05300248739
0.003420756417
0.05304452296
-0.003462791983
-0.05793299655
0.006606060155
0.05745094692
-0.01288259341
0.006758582887
0.01682554228
-0.1230961987
0.2428099509
-0.02997930006
0.01647871515
-0.1230387095
-0.2368850568
0.01977904016
0.232935961
-0.01595725359
-0.2235962421
0.01129774381
0.222267729
-0.01020275471
-0.2224450201
0.008665175849
0.2220459302
-0.008471105162
0.00825308844
-0.2321618823
0.2320371328
-0.00817519842
-0.4671404347
0.01357455169
0.4651496775
-0.0115837945
-0.4638025219
0.0100674516
0.4624070935
-0.008672023184
-0.01188656344
0.9145511734
0.007945906277
0.007497460652
-0.007650476996
0.9081508821
-0.003763667485
0.906163836
0.9051212181
-0.00299342692
0.9315269014
-0.006070410487
0.9312638374
-0.009318713855
0.9306168246
-0.006344586617
0.9296258859
-0.006495760044
-0.4623811088
0.4632941577
-0.007257635497
-0.4609876113
0.008278962898
0.4620829204
-0.009374271997
-0.4653032166
0.0105616156
0.4655897118
-0.005458235917
-0.005247133339
-0.2435289011
0.005478578506
0.2437388413
-0.005499861249
-0.2463125125
0.00578195059
0.2468024568
-0.006026371251
-0.2359531438
0.007505109187
0.2369146392
-0.008320042341
-0.2216930881
0.01186477732
0.2226753192
-0.006415176486
-0.006431831901
-0.05464914641
0.008385341039
0.1097017006
-0.05458208891
-0.004407004111
-0.004448802197
-0.1115825898
0.009185759981
0.1115159527
-0.01805834597
0.008939223025
0.02968360348
-0.2361081985
0.233628169
-0.02720916299
-0.225034121
0.01494846449
0.2233262386
-0.01340208174
-0.219833919
0.01070143587
0.2177152126
-0.008813081542
-0.2212909445
0.007118616705
0.2226082993
-0.008601459723
0.009059929862
-0.2326245172
0.2324031628
-0.00884554907
-0.463409564
0.0143795899
0.4618683284
-0.01283835431
-0.461001
0.01134743438
0.4593601898
-0.009706624138
-0.01135798047
0.910157533
0.007808708575
0.007942912377
-0.00835648182
0.9051493834
-0.004087579036
0.9018949332
0.901033639
-0.003143848644
0.9346707501
-0.006371189421
0.9344911782
-0.009767534915
0.9340131701
-0.006655219377
0.9332790348
-0.006765464438
-0.4642952185
0.4652785843
-0.007638585186
-0.4631999432
0.008703675381
0.4643299617
-0.009833693834
-0.4650561229
0.01105129431
0.4643752396
-0.00509750175
-0.005218065914
-0.2433326211
0.003793367025
0.2428433228
-0.003144365603
-0.247779398
0.001703827337
0.2478621405
-0.001553936543
-0.2404748504
0.002669505148
0.2416545407
-0.003680663856
-0.2276172651
0.008948119381
0.2301643921
-0.0114603057
-0.1127187237
0.0163455964
0.2242337097
-0.01580854805
-0.1120520344
-0.225671725
0.02175529994
0.2262725044
-0.02235607931
-0.2265215141
0.01885483921
0.224472563
-0.0168694581
-0.2175170493
0.01229099435
0.2163601385
-0.011326533
-0.2142191097
0.009997253773
0.2139647711
-0.009971414158
-0.2224195093
0.01057836831
0.2214830878
-0.009761816964
0.01088451215
-0.2321804132
0.2298767022
-0.008580801194
-0.4605250589
0.01598964515
0.4575300973
-0.01299468348
-0.4576992454
0.01164543624
0.4557894433
-0.009735634084
-0.01172793334
0.9058728822
0.008080989514
0.007931594613
-0.008404763585
0.9018262137
-0.004290454411
0.897780624
0.8967431846
-0.003216318134
0.9378870682
-0.006509596528
0.9377844566
-0.009956912751
0.9374604863
-0.006792126314
0.936961938
-0.006847689645
-0.4662796535
0.4672811465
-0.007793619364
-0.4654570331
0.008858100766
0.4665748828
-0.009975950434
-0.4645225612
0.01116954115
0.4657745357
-0.006198009782
-0.006223318295
-0.2403345112
0.003993547394
0.2391812837
-0.002743176018
-0.2470289722
-0.0007001753773
0.2463528305
0.001568296869
-0.2442349112
-0.002688988237
0.2446276879
0.002473550646
-0.2361598917
-8.644407652e-05
0.2374910797
-0.001150680811
-0.2247734085
0.004856978298
0.22542694
-0.005490387806
-0.2252265577
0.007689852537
0.2249360384
-0.007432358278
-0.2201937882
0.005553621553
0.2194314071
-0.004905158961
-0.2144265655
0.003933188954
0.2143540417
-0.004049408049
-0.2146208669
0.00567745701
0.2153127844
-0.006549471986
-0.2231509392
0.009540423251
0.2240472842
-0.01050059901
0.01026826892
-0.2280635768
0.2275092229
-0.009713915111
-0.456940272
0.01627346632
0.4543992619
-0.01373245629
-0.4530559009
0.01046761671
0.4515993865
-0.009011102391
-0.01089208619
0.9001424215
0.008569316856
0.008053229992
-0.005972518406
0.8969066459
-0.004338788287
0.8961468939
0.8924043964
-0.003217470547
0.9411045388
-0.006501994609
0.9410689807
-0.009917558922
0.9408760506
-0.006774559009
0.9405771318
-0.006758193727
-0.4682579289
0.4692373462
-0.007753976397
-0.467669704
0.008782560478
0.4687381944
-0.009851050878
-0.4670172883
0.01097842787
0.4682119474
-0.006109577569
-0.006063509309
-0.2350290013
0.006723734021
0.233869565
-0.005551211024
-0.2431395177
0.0007010804758
0.2417302506
0.0008249014975
-0.2441652473
-0.004486304043
0.2434950927
0.005299550693
-0.2395470461
-0.006415849686
0.2396575273
0.006405693796
-0.2275433857
-0.005799834982
0.2281635222
0.005208915562
-0.2249218779
-0.004109265335
0.2251516381
0.003834314833
-0.2190137346
-0.002789929584
0.2194201921
0.002270221149
-0.2158264397
0.0001691186661
0.2168162355
-0.001302921942
-0.2186217983
0.005460598804
0.220047893
-0.006985916191
-0.2266419741
0.0111464834
0.2262780402
-0.01078313859
0.009427914602
-0.226035928
0.225591863
-0.008983849587
-0.450866755
0.0152935757
0.449298228
-0.01372504876
-0.4501577458
0.01222196118
0.4486996732
-0.01076388861
-0.01005318461
0.8935404047
0.009214784663
0.007440416808
-0.00556869477
0.8924221561
-0.003968778808
0.894546978
0.8884356175
-0.003159193599
0.9442637324
-0.006373553572
0.9442833407
-0.009691729178
0.9441942262
-0.006622251323
0.9440522914
-0.006544637462
-0.4701767275
0.4711077177
-0.007553241499
-0.4697702227
0.008522162344
0.4707655836
-0.009517523273
-0.4693525472
0.01055371694
0.4704343204
-0.005855030672
-0.005780459432
-0.2344990957
0.006426117751
0.2347917875
-0.00671880952
-0.2369233958
0.006663053698
0.2352678876
-0.004986441672
-0.2403199496
0.0001967598641
0.2390053117
0.00118980293
-0.2386848929
-0.004375897699
0.2380434485
0.005082914906
-0.2295230256
-0.006212374592
0.2297725574
0.005984439089
-0.2263277551
-0.005039391596
0.2268209135
0.004513579279
-0.2218302188
-0.001922366316
0.2229042358
0.0007775934393
-0.2208137687
0.003418199444
0.2223451871
-0.005015237535
-0.2247870848
0.009993896072
0.2256208422
-0.0108348187
-0.2250975173
0.009888926395
0.2247583577
-0.009549766872
0.008507375595
-0.2244203439
0.2240657302
-0.008152761837
-0.4478509337
0.01407076531
0.4465210426
-0.01274087427
-0.4473568049
0.01143479414
0.446064498
-0.01014248716
-0.01289113048
0.8888899757
0.008652414452
0.008889145015
-0.008471434767
0.8880024604
-0.001370224098
0.8874457673
0.8870653935
-0.003053544146
0.9473172765
-0.00614942344
0.94737922
-0.009320397045
0.9473651999
-0.006362939023
0.9473357935
-0.006240960039
-0.4719934321
0.4728627327
-0.007232239645
-0.4717171013
0.008128411708
0.4726271329
-0.009038443329
-0.4714554995
0.009973189199
0.4724161278
-0.005512918401
-0.00542089906
-0.2356061666
0.006011414928
0.2358574676
-0.006262715941
-0.2353651045
0.007019617767
0.2356167785
-0.007271291723
-0.2349723335
0.008017150905
0.2350593927
-0.008103264737
-0.2356750612
0.00555182148
0.2348532475
-0.004715795988
-0.2298198772
0.003117405711
0.2295356698
-0.002826346201
-0.2284215261
0.003892668074
0.2289537104
-0.004434769703
-0.2263861507
0.007068859995
0.2275054547
-0.008200426078
-0.226226075
0.01023734238
0.2260948357
-0.01010610301
-0.2248873625
0.009587146113
0.2246784172
-0.009378200815
-0.2238727665
0.008669544749
0.2236154277
-0.008412205964
0.007599596593
-0.2231325249
0.2228463432
-0.007313414941
-0.4453001287
0.01276851284
0.4441802594
-0.01164864351
-0.4448844726
0.01052545291
0.4437530368
-0.009394017118
-0.01205440468
0.884664124
0.008002499444
0.008277756935
-0.007962494655
0.8839105503
-0.003955328694
0.8834386014
0.8831100648
-0.002912947585
0.9502302241
-0.005855715841
0.9503219882
-0.008846614411
0.9503560984
-0.006029998658
0.9503981464
-0.005878968707
-0.4736847324
0.4744855134
-0.006830779653
-0.4734908717
0.007648866462
0.4743122524
-0.008470247113
-0.4733187627
0.009302969286
0.4741631754
-0.00512032168
-0.00502706034
-0.2365525897
0.005552975541
0.2367664526
-0.005766838369
-0.2362983607
0.006397363273
0.2365032409
-0.006602243459
-0.2357005443
0.007194213716
0.2358885181
-0.007382187517
-0.2347623473
0.00790697338
0.2349198189
-0.008064444915
-0.2285048307
0.008322775294
0.2282880905
-0.008106035095
-0.2296827044
0.008921813434
0.2297212083
-0.008960317368
-0.2278384658
0.008988834763
0.2278135512
-0.008963920147
-0.2257573931
0.008776881854
0.2256600447
-0.008679533504
-0.2241364533
0.00829343316
0.2239794455
-0.008136425359
-0.2229358921
0.007595385251
0.2227359909
-0.007395483976
0.006751662729
-0.2220972241
0.2218648256
-0.006519264215
-0.4431520615
0.01149067675
0.4422065108
-0.01054512602
-0.442724594
0.009581657042
0.4417385101
-0.008595573191
-0.01112748671
0.8808640962
0.007321483137
0.007606031405
-0.007384586862
0.8801676505
-0.003678050746
0.8797320652
0.879432014
-0.002749423479
0.9529796476
-0.005517442407
0.9530900072
-0.008309839655
0.9531484957
-0.005652140327
0.9532261633
-0.005485716173
-0.4752394322
0.4759709917
-0.006383699878
-0.4750881559
0.007124125434
0.4758236501
-0.007859619703
-0.4749519036
0.008596210118
0.4756881414
-0.004707298322
-0.004625149531
-0.2373572514
0.005085561428
0.2375390042
-0.005267314231
-0.2370590657
0.005793172852
0.2372266091
-0.005960716308
-0.2363880823
0.006435171651
0.2365357951
-0.006582884479
-0.2353312314
0.00698862585
0.2354505138
-0.007107908209
-0.2277885341
0.007230136834
0.2276660688
-0.007107671593
-0.2298046944
0.007743765509
0.2298239868
-0.007763057874
-0.2277409641
0.007763348025
0.2277173831
-0.007739767047
-0.2254023752
0.007587941304
0.2253259939
-0.007511559947
-0.2235644965
0.007210919396
0.2234420445
-0.007088467465
-0.2222019814
0.006662866928
0.2220430002
-0.006503885802
0.00598480863
-0.2212579208
0.2210676062
-0.005794494007
-0.4413358287
0.01028982892
0.4405336798
-0.009487680052
-0.4408443626
0.008659745588
0.4399856622
-0.007801045193
-0.01017712778
0.8774664454
0.006647410679
0.006927367826
-0.006780549009
0.8767710717
-0.003385005414
0.8763365217
0.8760470086
-0.00257291187
0.9555525595
-0.005154860125
0.9556719554
-0.007741527252
0.9557351628
-0.005251240953
0.9558183493
-0.005082472319
-0.4766565568
0.4773217874
-0.005916471565
-0.4765165352
0.006583138638
0.4771722296
-0.007238833029
-0.4763750129
0.007888613157
0.4770158537
-0.004299626533
-0.004229827419
-0.2380411885
0.004630297543
0.2381958664
-0.004784975459
-0.2376827912
0.005225413885
0.2378208222
-0.005363444834
-0.2369315919
0.00574812357
0.2370495834
-0.005866115
-0.2357629363
0.006186006607
0.2358535062
-0.006276576505
-0.2274043284
0.006323709594
0.2273467702
-0.006266151429
-0.2298625506
0.006764973411
0.2298700047
-0.006772427499
-0.2276481505
0.006754956994
0.2276255341
-0.006732340575
-0.225119358
0.006603788753
0.225056892
-0.006541322733
-0.2231131363
0.006298481367
0.2230145796
-0.006199924692
-0.2216135195
0.005856176608
0.2214842742
-0.005726931272
0.005300894776
-0.2205682851
0.2204102091
-0.005142818696
-0.4397933595
0.009186369685
0.4391092698
-0.008502279995
-0.4392076767
0.00778823213
0.4384589343
-0.007039489809
-0.009246237774
0.8744384866
0.006005104145
0.006269092507
-0.006180781061
0.873705615
-0.00309174282
0.8732474834
0.8729552658
-0.002392455086
0.9579450146
-0.004786140607
0.958065641
-0.007169345953
0.9581183681
-0.004849964151
0.9581838635
-0.004684896009
-0.4779418538
0.4785444677
-0.005452578106
-0.4777892666
0.006051240037
0.47837294
-0.006634913395
-0.4776139986
0.007207965745
0.4781724865
-0.003912944799
-0.00385350878
-0.2386239627
0.004202381411
0.2387561608
-0.004334579438
-0.2381983909
0.00470594878
0.2383131776
-0.004820735508
-0.2373684138
0.005136644521
0.2374642672
-0.005232497943
-0.2360902919
0.005488682172
0.2361587537
-0.005557143972
-0.2272435226
0.005564936815
0.2272284582
-0.005549872368
-0.2298796527
0.005946134333
0.2298792843
-0.005945765866
-0.2275589216
0.005916709185
0.2275371182
-0.00589490574
-0.2248851083
0.005782809725
0.2248324053
-0.00573010678
-0.2227461815
0.005528075306
0.2226647085
-0.005446602217
-0.2211315425
0.005162445712
0.2210243544
-0.005055257622
0.004699637826
-0.2199933583
0.2198602281
-0.004566507589
-0.4384755868
0.008194184525
0.4378878538
-0.007606451505
-0.4377802464
0.006987332839
0.4371252774
-0.006332363906
-0.00836559117
0.8717426065
0.005409153881
0.005652317354
-0.005607469629
0.8709474935
-0.002809752234
0.870449766
0.8701455136
-0.002214563911
0.9601595785
-0.004424203752
0.9602752808
-0.006612135189
0.9603062996
-0.004460949377
0.9603370133
-0.004304335667
-0.4791038944
0.4796488115
-0.00500586653
-0.478922169
0.005543145815
0.4794420095
-0.006062986374
-0.4786939781
0.00656942236
0.4791823641
-0.00355614898
-0.003501659355
-0.2391228546
0.003808686065
0.2392364066
-0.003922238071
-0.2386286687
0.004237722045
0.2387250867
-0.004334140087
-0.2377253651
0.004597015145
0.2378045169
-0.004676166888
-0.2363373117
0.004883780421
0.2363888447
-0.004935313475
-0.2272282337
0.004924503775
0.2272405839
-0.004936853973
-0.2298696399
0.005255731467
0.2298640054
-0.005250096959
-0.2274728353
0.005213379474
0.2274517751
-0.00519231936
-0.2246856923
0.005092492553
0.2246401641
-0.005046964379
-0.2224403378
0.004874919422
0.2223714876
-0.00480606922
-0.2207292642
0.004566488293
0.2206388102
-0.004476034375
0.004174689813
-0.219507481
0.2193939503
-0.00406115918
-0.4373413155
0.007312305166
0.4368324375
-0.006803427196
-0.4365309398
0.006263482544
0.435955676
-0.005688218752
-0.007551803552
0.869340765
0.004867005071
0.005086639968
-0.005073298435
0.8684689884
-0.002545763392
0.867922231
0.8675997502
-0.002044290334
0.9622038688
-0.004078958531
0.962309949
-0.006084008565
0.9623113496
-0.004093491935
0.9622953618
-0.003948865084
-0.4801532415
0.480645901
-0.004586151451
-0.479931549
0.005068820569
0.480395418
-0.005532689587
-0.4796401017
0.005981427565
0.4800695167
-0.003230151494
-0.003180691028
-0.2395521002
0.003450404847
0.2396502155
-0.003548520153
-0.2389913428
0.003818633366
0.2390731549
-0.003900445459
-0.2380216489
0.004122026127
0.2380879528
-0.004188330049
-0.2365230697
0.004358155939
0.2365617984
-0.004396884574
-0.2273058507
0.004379035184
0.2273352436
-0.004408428134
-0.2298412443
0.004668749394
0.2298319536
-0.004659458705
-0.2273896749
0.004617646031
0.2273693203
-0.00459729143
-0.2245122712
0.004507037039
0.2244722366
-0.004467002385
-0.2221801914
0.004317816515
0.2221209736
-0.004258598644
-0.2203879724
0.004053277112
0.220310508
-0.003975812686
0.00371712872
-0.2190918159
0.2189939392
-0.003619252049
-0.4363573737
0.00653593753
0.4359133298
-0.006091893642
-0.4354327984
0.005618068175
0.4349251411
-0.005110410867
-0.006814056926