/*--------------------------------*- C++ -*----------------------------------*\
| =========                 |                                                 |
| \\      /  F ield         | OpenFOAM: The Open Source CFD Toolbox           |
|  \\    /   O peration     | Version:  v1912                                 |
|   \\  /    A nd           | Website:  www.openfoam.com                      |
|    \\/     M anipulation  |                                                 |
\*---------------------------------------------------------------------------*/
FoamFile
{
    version     2.0;
    format      ascii;
    class       surfaceVectorField;
    location    "0.84";
    object      Uf;
}
// * * * * * * * * * * * * * * * * * * * * * * * * * * * * * * * * * * * * * //

dimensions      [0 1 -1 0 0 0 0];


internalField   nonuniform List<vector> 
25162
(
(99.99901603 0.004027687512 -1.800309908e-21)
(99.99622802 0.003574381812 5.335064188e-21)
(99.99842413 0.0100000751 -1.778120228e-21)
(99.99440942 0.01244443939 1.800147308e-21)
(99.99727618 0.0202946356 -3.546774322e-21)
(99.99036559 0.02726899203 1.070359411e-20)
(99.99868416 0.02368958077 1.098300299e-21)
(99.98316059 0.05191557463 -7.048460166e-21)
(99.99254515 0.05289630508 -1.179099083e-21)
(99.99771646 0.04343962334 1.708177678e-21)
(99.99927888 0.02612731186 8.464213796e-22)
(99.99125561 0.07389267032 1.6986126e-21)
(99.99798889 0.04216942583 8.310422467e-22)
(99.99851355 0.03281733754 -8.564360743e-22)
(99.9974929 0.05394486718 8.310083045e-22)
(99.98630737 0.1216678286 1.654650615e-21)
(99.99723249 0.06858765291 0)
(99.99705691 0.08483770826 -3.040632652e-21)
(99.98185518 0.187891489 -3.040616827e-21)
(99.99662704 0.1042464721 -7.89321855e-22)
(99.99612681 0.1268104222 2.650110136e-21)
(99.97597428 0.2780683839 2.894514754e-21)
(99.99564679 0.1525331242 3.568992109e-22)
(99.99523947 0.1811316176 -2.369143311e-21)
(99.97111618 0.3922441739 3.392439102e-22)
(99.99495138 0.2120418079 -2.42267408e-21)
(99.99484979 0.2443385383 2.51715805e-22)
(99.9699141 0.5206964443 -1.611648814e-21)
(99.99501693 0.2765332039 2.148489799e-21)
(99.99550766 0.3068410325 1.836882312e-21)
(99.97544244 0.6411483051 -8.0955556e-22)
(99.99633013 0.3331753066 0)
(99.9974631 0.3534506217 0)
(99.98839022 0.7218318674 1.735519164e-22)
(99.99884124 0.3658996848 0)
(100.0003496 0.3697785508 4.032108082e-22)
(100.0050972 0.7368890589 -6.635708719e-24)
(100.0017564 0.3643549557 9.007715198e-22)
(100.0029243 0.3509512399 -1.875103454e-22)
(100.0188807 0.6837663346 -5.652945237e-22)
(100.0038428 0.3307515595 -1.008202464e-21)
(100.0044664 0.305603587 8.341360901e-23)
(100.0264405 0.583947701 1.650782686e-21)
(100.0047973 0.277340436 4.219076234e-22)
(100.0048587 0.2476807857 0)
(100.0276039 0.4660171069 0)
(100.0047188 0.2181678066 0)
(100.0045712 0.1898207154 7.153951092e-22)
(100.0244325 0.3535443891 1.481216382e-21)
(100.0047008 0.1637029108 -3.624489781e-21)
(100.0045939 0.1383123482 -1.350260412e-21)
(100.0208166 0.2535013189 2.94405699e-21)
(100.0039884 0.116065106 2.943837301e-21)
(100.002989 0.09720051254 -8.332989641e-22)
(100.0126293 0.176329815 -4.808695407e-23)
(100.0007944 0.08370951344 1.621570603e-21)
(100.008181 0.08256487602 -7.272693181e-21)
(100.0462622 0.2022341716 4.445204525e-22)
(100.016354 0.1804226402 -2.597080198e-21)
(100.0027205 0.08345125742 -1.523683997e-21)
(100.0058446 0.04830423153 -9.168301825e-22)
(100.0320414 0.1256612562 1.452811016e-20)
(100.0049234 0.02288195064 -7.370258528e-21)
(100.0238868 0.0675449223 -1.549125416e-20)
(100.0215638 0.0213814701 1.357080018e-21)
(99.99088136 0.01106433016 8.90819542e-21)
(99.98582977 0.005560895316 2.133600422e-22)
(99.98511452 0.02777209001 1.423146506e-20)
(99.97875029 0.01996712689 -1.245633852e-20)
(99.97433321 0.0564209828 7.381453798e-21)
(99.96355632 0.04529436217 -1.933590945e-20)
(99.96837193 0.09293449486 -1.257793054e-21)
(99.93778807 0.08838857729 3.718667011e-20)
(99.94624076 0.1169673175 -8.190310382e-21)
(99.9526359 0.1199580332 -1.755707628e-21)
(99.96376869 0.1199654715 3.458227626e-21)
(99.97793084 0.08479238929 1.720329178e-21)
(99.9646731 0.1441880013 1.681203606e-21)
(99.95322454 0.1568794113 1.709716358e-21)
(99.92131059 0.2076069759 -3.454219307e-21)
(99.94125797 0.2032352009 -1.802057512e-23)
(99.9448732 0.2366705394 1.654910292e-21)
(99.92701048 0.2606520663 -1.504424187e-23)
(99.8801109 0.3411693879 0)
(99.91939982 0.3075551865 0)
(99.89747584 0.3522424876 -2.058547805e-21)
(99.92342518 0.3580702393 -4.049464587e-21)
(99.91378448 0.3765049798 -4.604772578e-23)
(99.8890752 0.4356436691 -9.107948141e-21)
(99.90638954 0.4131844498 -3.13115141e-21)
(99.88191447 0.56457037 2.865388641e-23)
(99.89748193 0.5339267537 -2.059651229e-21)
(99.84988151 0.6533697614 -1.128807032e-20)
(99.87520876 0.6154071021 -2.750124189e-21)
(99.85356066 0.8106219712 -5.163828572e-21)
(99.875582 0.7600567699 -4.860270249e-21)
(99.81598195 0.9355400026 4.707183948e-22)
(99.84939171 0.8742674354 -6.195548073e-21)
(99.84061521 1.099302329 -5.158453705e-23)
(99.86969441 1.020053627 -4.060738368e-21)
(99.80306821 1.263871559 -6.255246293e-21)
(99.84292657 1.170441994 -3.049514572e-21)
(99.85979827 1.386987057 -3.583808888e-21)
(99.89306308 1.270768479 -5.115150014e-21)
(99.83127523 1.585666554 8.026903392e-21)
(99.87196016 1.452897661 -3.363357865e-21)
(99.91943558 1.60244345 -6.416830354e-22)
(99.95000375 1.446948306 -1.300818591e-21)
(99.90905771 1.815896758 -1.357329643e-20)
(99.94004177 1.646096758 -6.642545265e-22)
(100.0041747 1.675044885 1.646243637e-22)
(100.0212486 1.489253979 -2.685245211e-22)
(100.0140522 1.875565246 -2.421204874e-23)
(100.024941 1.682534171 -6.210396955e-22)
(100.0830532 1.591693085 -2.247227038e-22)
(100.0703126 1.39014024 -2.076345101e-22)
(100.1050063 1.754708102 -7.793409468e-23)
(100.0981074 1.554380719 1.843641156e-21)
(100.1323558 1.383318609 2.160290218e-21)
(100.0978637 1.190652733 3.75613e-21)
(100.1576665 1.502735008 3.75692653e-21)
(100.1379269 1.319205232 4.940550766e-22)
(100.1462694 1.117834077 -6.131535052e-21)
(100.1021356 0.9512881699 -5.723317677e-21)
(100.1691604 1.199141843 -2.065375072e-21)
(100.1441044 1.046034725 -2.036541558e-21)
(100.1330605 0.8566868986 -4.900422402e-21)
(100.0874176 0.7232219216 4.51113807e-22)
(100.1479534 0.9076560598 -1.316507124e-21)
(100.1264642 0.7918779422 5.369202316e-21)
(100.0839238 0.5025556129 -1.253564211e-20)
(100.1334286 0.6835030175 -1.253466812e-20)
(100.1881853 0.7419930938 1.267912457e-20)
(100.1162776 0.5719245255 -2.572195812e-20)
(100.0990799 0.4753072244 1.104642906e-20)
(100.1380428 0.50888446 -1.582656906e-20)
(100.0814363 0.392903316 2.252805588e-20)
(100.0609456 0.3466127395 2.503553831e-20)
(100.0774495 0.2409554326 2.157930965e-20)
(100.1752433 0.3788617452 -2.02351158e-22)
(100.1331476 0.4228143161 4.510742704e-20)
(100.0784594 0.3336869721 2.460475467e-21)
(100.0564988 0.1416092933 -7.051109753e-22)
(100.125265 0.2343446932 3.099599419e-20)
(100.0459239 0.06536890915 -7.208135704e-21)
(100.0957661 0.1261302152 -1.643664102e-20)
(100.0832232 0.03984113258 7.365894167e-21)
(99.97582434 0.01346419477 -2.138200872e-20)
(99.97312147 0.004526959185 -1.068627247e-20)
(99.95995002 0.03543216611 -4.631038385e-20)
(99.95807125 0.01805114144 1.005290347e-20)
(99.93102833 0.07518106436 9.896295942e-21)
(99.92626391 0.04628099566 -3.920439694e-20)
(99.8996508 0.1364355217 2.367865205e-20)
(99.87432074 0.09708480203 4.263235329e-20)
(99.86574856 0.149744795 -3.82031345e-20)
(99.91393958 0.1483676222 -7.015188242e-21)
(99.86694852 0.1664854078 -5.212587159e-20)
(99.8785521 0.1867081666 -3.518632523e-21)
(99.86269925 0.2607062472 -6.890128982e-21)
(99.84698892 0.2493110252 -3.435283868e-21)
(99.79044284 0.3003549188 2.408087424e-20)
(99.80973568 0.3267042577 6.79172331e-21)
(99.79202602 0.4332278916 -5.969994599e-21)
(99.76607822 0.4221492152 4.388655469e-21)
(99.68240772 0.50799706 -3.396484166e-20)
(99.7388375 0.5208627961 2.37906538e-21)
(99.69654998 0.5579052871 -1.477266333e-20)
(99.72290282 0.6562864127 -6.120861202e-21)
(99.70208894 0.6528499224 0)
(99.65084227 0.7202695969 6.323474692e-21)
(99.67611963 0.7298770923 -6.103700179e-21)
(99.62390098 1.002284086 2.992095256e-21)
(99.59231858 1.005553905 1.17333046e-20)
(99.52462001 1.107798787 5.816925424e-21)
(99.56415676 1.111700657 1.458244613e-20)
(99.53224216 1.461526383 5.345783727e-21)
(99.48568427 1.479761591 2.577537666e-21)
(99.40485662 1.628706452 3.821830279e-20)
(99.46406564 1.616331039 5.357737194e-21)
(99.48984213 2.018066744 6.768599215e-20)
(99.42602614 2.067373016 6.771565886e-20)
(99.34625668 2.271465489 -7.109460893e-20)
(99.42708431 2.222967422 -4.228985559e-22)
(99.55975471 2.579161774 1.960996241e-19)
(99.48635525 2.678991537 1.546068739e-21)
(99.43544532 2.924069304 1.35884559e-20)
(99.52656057 2.815149696 1.542825295e-21)
(99.76745779 2.984856488 -3.652345233e-22)
(99.703838 3.148373783 3.797349405e-22)
(99.70304426 3.403279708 1.184791689e-21)
(99.77873177 3.221154188 3.786267466e-22)
(100.0488971 3.088437915 8.994102698e-21)
(100.0196853 3.303914636 1.657676548e-20)
(100.0700018 3.521041804 1.655112207e-20)
(100.0996608 3.285198351 -1.437474298e-21)
(100.2957316 2.874224973 -1.762292809e-20)
(100.3099101 3.109895224 -2.596433905e-21)
(100.3871892 3.262597338 3.718579173e-20)
(100.3659294 3.014620943 -1.004858095e-21)
(100.4358178 2.439718233 2.607611804e-21)
(100.4839409 2.663382965 1.716865522e-21)
(100.5623184 2.754971106 5.525195907e-21)
(100.505701 2.528194709 5.589220243e-21)
(100.4596523 1.919344076 -5.694325084e-21)
(100.5245999 2.108881691 -1.322534126e-20)
(100.5909205 2.156165124 -4.618661429e-21)
(100.5180741 1.968536619 5.16531596e-21)
(100.4747133 1.574313846 -1.635074318e-20)
(100.410469 1.427223545 -1.103322633e-20)
(100.5248683 1.592506289 -1.104810508e-20)
(100.4575503 1.451843898 5.896317306e-21)
(100.3328407 0.966954887 -4.952747794e-20)
(100.4429728 1.179308256 -2.594003181e-20)
(100.5190777 1.172840957 -7.509729599e-20)
(100.3879857 0.9811084305 -3.521231391e-20)
(100.2475486 0.6590933376 -5.70759973e-20)
(100.3347811 0.8095635727 2.260826957e-20)
(100.3852738 0.791938629 -2.708442691e-20)
(100.2846892 0.6629443008 -2.369820608e-20)
(100.2166186 0.3695377795 9.378827883e-21)
(100.3721719 0.5068799555 -2.457479396e-20)
(100.3449231 0.6117905209 -1.670872301e-22)
(100.2576551 0.5469697441 -1.40561727e-20)
(100.1597118 0.2158295037 1.451513543e-20)
(100.269885 0.3103807225 2.585563027e-20)
(100.1289578 0.09922506069 -1.850877927e-21)
(100.205778 0.1661914196 -3.740377379e-21)
(100.1768015 0.05219237444 0)
(99.95923452 0.008379877898 2.146730232e-20)
(99.96523177 -0.0006404059949 -3.580284513e-21)
(99.92924896 0.02721974222 1.804695717e-20)
(99.94033925 0.003111331977 2.506861288e-20)
(99.87533735 0.06783116648 -7.177249284e-21)
(99.88804315 0.02402444395 -3.555226237e-21)
(99.8054948 0.1483059636 0)
(99.80184805 0.06966624426 5.467315839e-21)
(99.76711928 0.14174796 1.663034633e-20)
(99.81458366 0.1739427295 -4.866241694e-20)
(99.75736233 0.1687758623 1.250335003e-20)
(99.75929363 0.2092301896 0)
(99.70711028 0.323684014 2.427501788e-22)
(99.69745261 0.286994994 -2.766150085e-20)
(99.61531815 0.328402647 -2.764289219e-20)
(99.62345468 0.3852281733 5.609149863e-20)
(99.55547155 0.5601073586 -8.34136793e-20)
(99.53608941 0.5079922035 2.992398778e-20)
(99.41459913 0.5829338226 -5.575962753e-20)
(99.4622665 0.6549270367 -2.776566118e-20)
(99.40487616 0.6657351711 -4.558006747e-20)
(99.38898216 0.8709343269 6.581960763e-21)
(99.36820673 0.8387866484 1.308628289e-20)
(99.28814388 0.9048933479 3.305778609e-20)
(99.31040704 0.9466052346 6.527067944e-21)
(99.15567804 1.375395309 4.790659975e-21)
(99.11927426 1.337876583 1.915347881e-20)
(99.00972073 1.445027188 6.764116223e-23)
(99.05137443 1.494604464 6.380336041e-21)
(98.91358901 2.094102485 0)
(98.84928296 2.059276406 -5.809434119e-21)
(98.71379812 2.229919314 -1.898528999e-19)
(98.79053744 2.277305645 -5.657620261e-21)
(98.78174806 3.019110176 1.545751547e-19)
(98.67684373 3.010691885 1.698485802e-19)
(98.5393184 3.264249982 3.438684595e-19)
(98.66796474 3.278036333 4.552703766e-19)
(98.92132185 4.03289877 2.466412696e-19)
(98.77644079 4.096915419 4.153274517e-21)
(98.69137005 4.433833867 -1.365315356e-20)
(98.86693022 4.35444155 2.441370149e-19)
(99.44603416 4.799102164 2.577059226e-19)
(99.30401214 4.977099122 3.865315115e-21)
(99.33526247 5.328771879 -6.820164919e-21)
(99.49333157 5.110491206 1.902750835e-19)
(100.1835813 4.956022032 5.986315858e-20)
(100.1108155 5.232130023 2.323551345e-23)
(100.2476723 5.495396341 -2.321278764e-20)
(100.308242 5.180172642 8.985777585e-20)
(100.7805517 4.499266663 -7.274398364e-20)
(100.7992851 4.801568533 1.280333348e-19)
(100.9646892 4.940398312 1.290143887e-20)
(100.92025 4.618945719 6.631995125e-21)
(101.0693045 3.706516334 -2.178123995e-19)
(101.1503323 3.979290093 2.201846019e-20)
(101.2911772 4.024500963 -2.084168989e-19)
(101.1866641 3.749974686 -1.470012257e-19)
(101.0942797 2.83757782 4.152637561e-20)
(101.2012054 3.059056225 0)
(101.3030069 3.04662169 -1.676158631e-19)
(101.1804749 2.835069875 1.956243177e-19)
(101.0685521 2.218074472 0)
(100.9611036 2.051826614 4.39160523e-20)
(101.1364883 2.189034421 0)
(101.0199283 2.03161816 0)
(100.7455105 1.352305715 2.751729991e-20)
(100.9302873 1.584323368 1.77129918e-20)
(101.0096859 1.497546588 -1.591225892e-20)
(100.8087435 1.302662015 3.456809668e-20)
(100.551708 0.9025707556 -3.163631557e-20)
(100.6952611 1.062351366 -1.41259319e-20)
(100.7432173 0.9870218546 -1.425964112e-20)
(100.5918981 0.8582495058 -6.862507965e-21)
(100.4128854 0.4451519136 -8.710040725e-21)
(100.6189285 0.5628205709 -1.854023626e-20)
(100.6370324 0.7227934982 -2.45979152e-21)
(100.5216945 0.6921697209 5.067253347e-21)
(100.3049684 0.2580167249 7.448881045e-21)
(100.446326 0.3398646417 1.133661647e-20)
(100.2445691 0.1176802631 -1.889165177e-21)
(100.3381358 0.1791653594 -3.339507662e-21)
(100.2877843 0.05572412746 -4.811494307e-22)
(99.95051422 -0.006177286201 0)
(99.97107288 -0.01050608149 0)
(99.90437345 -0.001074864842 3.612001395e-21)
(99.93558028 -0.02662891246 0)
(99.82133883 0.02688256965 9.126814881e-21)
(99.86176872 -0.02513407828 -3.114353068e-21)
(99.70479819 0.1075985457 1.572742266e-20)
(99.7384585 0.001434970632 2.017460973e-20)
(99.66778035 0.08111699933 -6.06250093e-21)
(99.70212277 0.1499588399 2.153032932e-20)
(99.64168069 0.1168226392 1.746956375e-21)
(99.62665551 0.1721148806 -8.664448543e-21)
(99.51903149 0.3123552815 0)
(99.52596701 0.2532185315 -1.802909176e-20)
(99.42199778 0.2739020721 -1.478364618e-20)
(99.40543104 0.3568896081 3.67594269e-21)
(99.26239131 0.5733922428 0)
(99.26273222 0.4896256831 3.675549131e-21)
(99.10572089 0.5312791884 -3.786243928e-21)
(99.12201651 0.664059312 1.837309178e-20)
(99.05887055 0.6495451202 4.733311393e-21)
(98.95649616 0.9407659276 2.93307782e-19)
(98.94805516 0.8780311788 8.135721031e-20)
(98.83797872 0.9297364198 1.019193445e-19)
(98.84519172 1.004094874 -1.282379853e-19)
(98.50868332 1.577274493 2.633959001e-20)
(98.48422791 1.490443696 -7.884767472e-20)
(98.32579099 1.585717455 2.684439663e-20)
(98.35024671 1.69328821 5.318630482e-20)
(98.00445302 2.542627653 0)
(97.94030674 2.436198312 2.035156924e-19)
(97.72835656 2.607742112 0)
(97.80382758 2.740729589 0)
(97.60179094 3.959799739 -1.979474085e-19)
(97.45736196 3.854741884 -1.175668355e-20)
(97.20689172 4.162615533 -1.980530301e-19)
(97.38971801 4.291552333 -1.860109564e-19)
(97.74128153 5.748912185 -2.644849188e-19)
(97.47717285 5.735143153 9.378904745e-21)
(97.30433173 6.224128021 -1.681679089e-19)
(97.63924519 6.222514274 2.361468447e-20)
(98.88912304 7.216265701 -4.284561768e-24)
(98.58650669 7.434851235 2.142114971e-21)
(98.68314407 7.983868042 2.136048328e-21)
(99.02682674 7.682129491 3.175710703e-20)
(100.5779285 7.384556951 -8.670243134e-20)
(100.4366535 7.801399932 9.109764107e-22)
(100.7568615 8.133811731 -8.683229453e-23)
(100.8599805 7.643263515 1.555846763e-19)
(101.7522602 6.364311052 -3.307715081e-19)
(101.8083019 6.787597473 8.594065699e-21)
(102.1193239 6.867434256 5.738156041e-19)
(102.0091359 6.428862243 -2.991087757e-19)
(102.1666527 4.940636468 1.051369743e-20)
(102.3217411 5.279034606 3.473841786e-19)
(102.5462347 5.228707716 1.518770879e-19)
(102.347941 4.901368831 -3.069728142e-19)
(102.074546 3.611896129 -1.212350005e-19)
(102.2535128 3.857170164 8.655223875e-20)
(102.3806108 3.76706798 -1.701557289e-20)
(102.1816513 3.539465304 -1.791191469e-20)
(101.9076679 2.689016048 -2.066356429e-20)
(101.7462617 2.51724114 -3.608783808e-21)
(101.9777165 2.59427024 1.729794456e-20)
(101.8063486 2.442229155 2.112044153e-20)
(101.3077629 1.601078567 -8.94009773e-20)
(101.5783564 1.831262583 -5.662980773e-20)
(101.635062 1.654622064 -3.169359601e-20)
(101.3589993 1.4826889 -1.632226673e-20)
(100.9553139 1.04038841 1.101422617e-20)
(101.1595651 1.190695358 3.316306828e-20)
(101.1834562 1.058638461 -3.739575421e-21)
(100.9833521 0.9476968437 -3.640705497e-21)
(100.6406753 0.4573051858 1.931448942e-21)
(100.8906472 0.5259989211 0)
(100.9788406 0.7442185049 -1.089498355e-22)
(100.8496852 0.7472134819 -9.935182551e-21)
(100.4690307 0.2585794061 4.267032595e-22)
(100.6337377 0.3114243879 1.931274815e-21)
(100.3721162 0.1160310561 -1.937071753e-21)
(100.4725934 0.1589289346 -1.939334276e-21)
(100.3972246 0.048625842 -1.951439917e-21)
(99.96011024 -0.03082064595 0)
(100.0001633 -0.02504312857 1.769573731e-21)
(99.89790281 -0.0508516033 -7.239235094e-21)
(99.95454306 -0.07097442027 -1.78253251e-21)
(99.78548296 -0.04981245915 7.474695899e-21)
(99.86092407 -0.1013221234 -3.604538182e-21)
(99.6163123 0.01090689234 9.810449459e-21)
(99.70277981 -0.1087840365 2.616365381e-21)
(99.58854512 -0.03414412369 1.056448871e-23)
(99.59476246 0.0679150921 -7.281792372e-21)
(99.54125818 0.004794323074 -7.340512752e-21)
(99.50299284 0.06781148757 0)
(99.32899845 0.2119972506 -1.478328122e-20)
(99.36189454 0.136540992 0)
(99.24428021 0.1268619321 -8.481246587e-23)
(99.19136947 0.22710493 -5.708813099e-23)
(98.94914956 0.4558647012 7.608728496e-21)
(98.98615934 0.3459956235 1.142775719e-20)
(98.80336183 0.346802447 1.538176589e-20)
(98.77053507 0.5227758134 -2.178693412e-20)
(98.71101341 0.4806787134 -7.51839722e-21)
(98.47998958 0.8237267378 -3.552179627e-20)
(98.49890898 0.7368528786 -2.881511398e-20)
(98.36255002 0.7620641588 -3.470453875e-20)
(98.33593177 0.8634529318 -8.443783889e-21)
(97.75146007 1.487103748 8.920658355e-20)
(97.76130334 1.356958142 1.166156845e-19)
(97.56149339 1.411217718 1.166232376e-19)
(97.54317078 1.565306606 1.018963058e-21)
(96.79728841 2.601377305 -1.814952398e-19)
(96.77373613 2.399288554 -1.799151959e-19)
(96.46000122 2.523669089 3.934779709e-19)
(96.48489465 2.768071633 -5.907736653e-21)
(95.73274298 4.547322155 -1.045770753e-19)
(95.59096236 4.264089314 0)
(95.14427089 4.551007748 -3.307835386e-20)
(95.32456064 4.914640409 0)
(95.39641037 7.689897835 0)
(94.94535983 7.428632868 3.190458614e-20)
(94.47048524 8.12957055 -3.334104515e-20)
(95.09751241 8.435524285 0)
(97.71796062 10.97724064 0)
(96.98677491 11.25582911 0)
(97.19970515 12.32316768 1.91286017e-21)
(98.06488803 11.82156289 1.29152329e-20)
(101.7048238 10.90863804 -4.970750629e-20)
(101.4624835 11.68265397 -1.829735007e-20)
(102.2397322 12.06717371 -6.471434249e-21)
(102.3382954 11.15201656 1.315624248e-21)
(103.7093869 8.417158037 7.946289407e-20)
(103.9043508 9.043146106 8.869627526e-19)
(104.4527432 8.930123964 7.31816196e-19)
(104.1397755 8.317546712 6.921684369e-20)
(103.9529969 5.96595778 1.431375184e-20)
(104.2563524 6.358932071 0)
(104.5227328 6.143484233 0)
(104.1719763 5.790366136 -2.66173858e-19)
(103.4524787 4.085116464 -2.81738917e-19)
(103.7373203 4.330566848 3.483378412e-21)
(103.8585898 4.126203282 -5.843697792e-19)
(103.5568681 3.917353797 -2.677635741e-19)
(102.9831751 2.866960222 -9.756665812e-20)
(102.747242 2.710915302 -9.251224024e-20)
(103.0294515 2.701534037 3.314795666e-20)
(102.7915017 2.569963291 -6.318322791e-20)
(101.9834449 1.648269483 2.592516341e-20)
(102.3347496 1.835539177 -2.293824503e-22)
(102.3365907 1.573317776 1.58607675e-20)
(101.9931324 1.459245527 1.179508423e-20)
(101.4166707 1.035572671 -1.555749016e-20)
(101.681468 1.149641038 -7.940461666e-21)
(101.6537546 0.9664448348 -7.942000019e-21)
(101.4097615 0.8975848966 1.21273032e-20)
(100.8703012 0.3857445951 0)
(101.1530658 0.3881493948 1.291028117e-21)
(101.3194365 0.6315064389 -1.070938982e-20)
(101.1970471 0.6964478827 2.652530125e-20)
(100.6257305 0.2098419137 -4.892913258e-22)
(100.799601 0.2167723914 -1.525952528e-21)
(100.4885057 0.09128435377 -1.962313979e-21)
(100.5843937 0.102266175 -2.22653244e-21)
(100.4833175 0.03010986735 2.51073693e-21)
(99.99805797 -0.06471882427 -1.239514277e-23)
(100.0612236 -0.04364475022 5.458052209e-23)
(99.92177683 -0.1205105169 1.849433816e-21)
(100.00722 -0.1278724963 -6.562495747e-23)
(99.78371497 -0.159252225 -9.690069202e-21)
(99.89758728 -0.2006871891 1.452137557e-21)
(99.56344686 -0.1362188118 -8.780318762e-21)
(99.71157937 -0.2557167902 -1.473923436e-20)
(99.55385276 -0.2004089656 -1.253721305e-20)
(99.51545437 -0.07410773492 -6.916906927e-21)
(99.48379087 -0.1651348689 -2.729806649e-21)
(99.4161638 -0.1025074703 3.140249731e-23)
(99.1727086 0.01955298676 1.113479758e-20)
(99.23845411 -0.06258049894 1.130719007e-20)
(99.11832232 -0.1082041143 5.581726892e-21)
(99.02339413 -0.004807182062 1.922023999e-20)
(98.67600776 0.2038025803 -1.539226732e-20)
(98.76180557 0.07651726129 -1.152130893e-20)
(98.57225239 0.02872913041 1.256687586e-20)
(98.4662998 0.2207544442 -3.785292469e-20)
(98.42230726 0.1553893987 7.339214305e-21)
(98.03976343 0.4976820855 9.437950127e-20)
(98.09671586 0.3971808544 5.953494626e-20)
(97.94728372 0.3847432136 6.102222737e-20)
(97.87742233 0.4975443926 2.304502057e-21)
(97.0287981 1.042016731 -6.124239169e-20)
(97.09972554 0.8843445026 6.335488357e-20)
(96.87461496 0.8734695231 1.269847064e-19)
(96.77818743 1.055143214 -3.443016776e-22)
(95.47873019 2.025505475 0)
(95.56293415 1.760003973 -6.712093955e-20)
(95.18803353 1.762444197 7.402311556e-20)
(95.06471125 2.079488257 -1.419633016e-19)
(93.20025911 3.937742259 1.300471202e-20)
(93.23598286 3.449074609 1.11046736e-19)
(92.58171993 3.4832887 1.376369896e-20)
(92.49896006 4.117674353 -4.247048969e-20)
(90.35648357 8.535319748 0)
(89.91532037 7.496133176 3.646999346e-19)
(88.28685203 8.290572068 -2.655148606e-19)
(88.60620393 7.715142685 2.800637338e-19)
(89.42691914 9.66934146 5.925033406e-20)
(88.66303842 9.541780556 0)
(92.32475395 18.33157094 0)
(93.48092055 18.21962297 -3.783469616e-20)
(92.44887654 19.87040667 7.031322541e-21)
(93.94565619 19.46346687 3.781070947e-21)
(105.1142961 17.80395012 -2.211673331e-19)
(105.4012874 16.39013208 -5.9250458e-20)
(106.8499465 16.23486824 1.806942089e-20)
(105.7420217 18.63770466 4.380423175e-19)
(107.5755206 17.75494186 -2.94822173e-19)
(107.1655086 18.36681673 1.089306429e-19)
(108.0477037 11.00375656 -2.339599036e-19)
(107.4247769 10.17439248 -3.082883206e-19)
(108.6964681 10.37717959 -1.254232769e-20)
(107.9361475 9.696397933 1.91861667e-19)
(106.5429417 6.324842327 -1.566834366e-19)
(107.088294 6.698106395 -3.96248807e-21)
(107.3062334 6.223064638 1.318530037e-20)
(106.7294832 5.942556849 1.733807484e-19)
(105.191062 3.98645373 -1.183545306e-19)
(105.6060699 4.169480877 -2.04040275e-20)
(105.6503462 3.835547464 -1.954663554e-19)
(105.2375157 3.705809256 -2.051900746e-20)
(104.1963784 2.587372754 1.536691743e-21)
(103.8858781 2.492405564 6.429345858e-21)
(104.174679 2.356762235 3.073271084e-21)
(103.8735581 2.285321978 -9.296718756e-20)
(102.6818134 1.423051898 4.181952911e-21)
(103.1105571 1.514448896 4.624474019e-21)
(103.003787 1.192803209 -2.444886495e-21)
(102.6195084 1.172566059 -4.391708227e-21)
(101.8801138 0.8465724071 4.373647476e-21)
(102.1912491 0.8973513955 -1.480583245e-23)
(102.0935968 0.6795654607 -7.092752066e-21)
(101.8171773 0.6709128594 8.867317439e-21)
(101.0631545 0.2252392088 -1.78132309e-22)
(101.3438855 0.1499952299 -2.886065258e-22)
(101.620642 0.379995947 7.997982734e-22)
(101.5159136 0.4753618611 6.449325823e-21)
(100.7460541 0.1090628049 -3.271219481e-21)
(100.9090833 0.05678653911 -2.347294438e-22)
(100.5698898 0.04194696079 2.435377324e-21)
(100.6476506 0.01081201762 -2.20088212e-21)
(100.5228713 0.0006376319526 4.11759206e-22)
(100.0730054 -0.1060714056 1.303775292e-23)
(100.1612846 -0.06519698105 -2.623631745e-21)
(99.98624092 -0.2061013714 -4.774300124e-22)
(100.1015968 -0.193832924 1.140777351e-21)
(99.82948038 -0.2953034515 -3.765009809e-21)
(99.98178391 -0.3164929348 -2.479679864e-21)
(99.56742012 -0.3258692057 7.715776433e-21)
(99.77802185 -0.428270103 -8.516413192e-22)
(99.58184266 -0.405456439 8.068003349e-22)
(99.48924862 -0.2688015167 3.768127731e-21)
(99.49068441 -0.3796530681 7.831316265e-21)
(99.39284769 -0.3273067318 5.523983441e-21)
(99.08556392 -0.2524598194 -1.880965493e-21)
(99.18760909 -0.3289485821 2.90963492e-21)
(99.07688569 -0.4099698463 1.921645853e-21)
(98.93905008 -0.3196246717 5.823969791e-21)
(98.49864587 -0.1726826712 -1.923454236e-21)
(98.63678881 -0.2954982201 -3.201988634e-20)
(98.45946383 -0.3935946698 -3.402339515e-20)
(98.27892725 -0.2093701162 -4.341936185e-20)
(98.26078093 -0.2969876708 -3.846914712e-20)
(97.73942849 -0.02035839855 1.551336471e-20)
(97.83772811 -0.1166598144 3.841974135e-21)
(97.69709483 -0.1714701839 3.865173209e-21)
(97.58556331 -0.0698671985 7.841832906e-21)
(96.52547101 0.256263272 -1.641434762e-20)
(96.66851308 0.1069864753 1.751809071e-23)
(96.45533787 0.02526616789 -7.564044919e-20)
(96.27667166 0.1852437115 -4.697835012e-20)
(94.55129578 0.7359130064 -3.781538915e-20)
(94.77621698 0.4881358052 2.662687407e-20)
(94.4390918 0.3499864741 -1.270816442e-20)
(94.14892353 0.6103611999 3.250698392e-20)
(91.35540035 1.453569197 -3.224447508e-21)
(91.73892644 1.008660122 -3.23784169e-21)
(91.2488544 0.6900213474 -1.51661538e-20)
(90.69527773 1.122775623 2.6346166e-20)
(85.19461978 2.126409564 6.331847128e-20)
(85.78808732 1.585392333 -6.434185611e-20)
(85.30352413 0.9787226221 3.382080167e-20)
(84.47020314 1.486105492 -6.435884892e-20)
(119.1928594 22.73801739 7.879220819e-20)
(117.7260035 21.58327051 -1.500804526e-19)
(120.0382594 21.11641932 1.274394386e-19)
(118.5505883 20.31554855 7.870216368e-20)
(114.6071515 10.20324405 -2.105667065e-21)
(113.2236054 9.664775607 -1.256481881e-19)
(114.7410512 8.848135148 -5.036372982e-20)
(113.4109202 8.622708576 -4.680101826e-20)
(109.6391508 5.271740034 0)
(110.4426919 5.422792303 0)
(110.3749249 4.719437825 -1.330816055e-19)
(109.6177477 4.691184902 -1.244681632e-19)
(106.9869288 3.039635295 0)
(107.5097502 3.07779036 0)
(107.3924503 2.65479732 0)
(106.9076214 2.677083742 2.348894715e-20)
(105.3350155 1.743904472 8.020099111e-20)
(104.972627 1.743441258 -1.062897175e-20)
(105.2121484 1.473385839 -5.449602697e-20)
(104.8768835 1.497470443 -2.116070733e-20)
(103.2841721 0.8864744192 -4.778928219e-21)
(103.7612101 0.8513379981 4.209442299e-20)
(103.5085467 0.5136787064 7.671530946e-21)
(103.1224479 0.612958489 1.144270714e-21)
(102.2678144 0.4671489441 -1.903452475e-21)
(102.5913365 0.4305297614 1.338719025e-20)
(102.4059802 0.213692045 4.929038633e-21)
(102.1356591 0.2838504752 9.768781969e-21)
(101.1765011 -0.01484841561 -3.196502956e-22)
(101.4288704 -0.173111398 -1.035379115e-21)
(101.8102182 0.002072373552 -1.052815837e-21)
(101.7532402 0.1488151582 -1.212558109e-21)
(100.8003235 -0.03965279844 1.048603068e-21)
(100.9323866 -0.1556497997 1.291578119e-21)
(100.5923914 -0.02919302678 -4.182282761e-21)
(100.6377375 -0.1084477987 1.613197099e-21)
(100.4953193 -0.03782325466 -2.068802709e-21)
(100.1913095 -0.1521118149 -1.495858924e-21)
(100.3047728 -0.08822579471 8.286650656e-22)
(100.0988191 -0.3016398359 -8.701164338e-22)
(100.2426677 -0.2643012298 -6.176186625e-22)
(99.93231454 -0.4475184408 4.451869065e-22)
(100.1194236 -0.4402571714 -2.196730954e-22)
(99.64209481 -0.5428492702 4.961562257e-22)
(99.90977024 -0.6133527201 7.497607503e-22)
(99.68372349 -0.6314213935 4.432851316e-22)
(99.53390869 -0.4991242754 1.301052617e-21)
(99.57503914 -0.620756727 -1.17808938e-23)
(99.44991008 -0.5863743591 -1.178256941e-23)
(99.0944943 -0.5769991862 -1.918482944e-21)
(99.23022648 -0.6370122071 0)
(99.13927227 -0.7494996078 -9.422088698e-22)
(98.96466255 -0.6843704004 -9.946043299e-22)
(98.4578464 -0.6275309961 1.238419099e-21)
(98.64309231 -0.727214462 2.484160754e-22)
(98.49457602 -0.8677499567 1.499112924e-21)
(98.25035956 -0.7171894875 8.378502847e-22)
(98.26235842 -0.815216799 8.382275368e-22)
(97.65292283 -0.6533767253 -6.157674153e-24)
(97.78247645 -0.727998732 -1.159722332e-20)
(97.66617119 -0.8179879833 3.100670252e-20)
(97.52468218 -0.743874731 -4.724212862e-20)
(96.38122617 -0.6972867609 -2.484746502e-20)
(96.5763213 -0.8058097782 8.424263132e-21)
(96.40124594 -0.9371007653 4.251332101e-20)
(96.1729345 -0.8313817609 -2.481862132e-20)
(94.3835018 -0.7982583167 4.155296877e-24)
(94.68543805 -0.9512939178 -1.725698933e-21)
(94.44170779 -1.153434101 -7.798993294e-20)
(94.09532005 -1.019869841 -1.984825303e-21)
(91.59102188 -1.257963565 1.213090552e-20)
(92.05902764 -1.419101628 1.248479723e-20)
(91.8168963 -1.750870101 3.643204396e-20)
(91.31581933 -1.659983497 4.969424018e-20)
(88.63511272 -3.114122698 -1.299935797e-20)
(88.99776521 -3.02565021 -2.584900733e-20)
(89.03415014 -3.290913973 1.2720701e-20)
(88.7385399 -3.446196674 -1.298526603e-20)
(133.2487176 9.482325333 9.234596419e-21)
(131.5882226 10.13123507 -1.71776144e-20)
(132.2547365 8.071502442 1.688528299e-20)
(130.8654544 8.781874842 1.35284532e-20)
(119.846538 4.376886657 7.483625181e-21)
(118.2914012 4.802307531 2.797092877e-21)
(118.964551 3.108940635 0)
(117.7095388 3.675344605 5.074592684e-21)
(112.1056393 2.41805293 -4.288561061e-20)
(112.9497879 2.166440497 9.627536305e-21)
(112.4630583 1.49362904 8.44439329e-21)
(111.7447756 1.809173369 8.402547887e-21)
(108.3276096 1.189518371 4.060646826e-20)