/*--------------------------------*- C++ -*----------------------------------*\
| =========                 |                                                 |
| \\      /  F ield         | OpenFOAM: The Open Source CFD Toolbox           |
|  \\    /   O peration     | Version:  v1912                                 |
|   \\  /    A nd           | Website:  www.openfoam.com                      |
|    \\/     M anipulation  |                                                 |
\*---------------------------------------------------------------------------*/
FoamFile
{
    version     2.0;
    format      ascii;
    class       pointVectorField;
    location    "2.75";
    object      pointDisplacement;
}
// * * * * * * * * * * * * * * * * * * * * * * * * * * * * * * * * * * * * * //

dimensions      [0 1 0 0 0 0 0];


internalField   nonuniform List<vector> 
26316
(
(0 0 0)
(0 0 0)
(0 0 0)
(0 0 0)
(0 0 0)
(0 0 0)
(0 0 0)
(0 0 0)
(0 0 0)
(0 0 0)
(0 0 0)
(0 0 0)
(0 0 0)
(0 0 0)
(0 0 0)
(0 0 0)
(0 0 0)
(0 0 0)
(0 0 0)
(0 0 0)
(0 0 0)
(0 0 0)
(0 0 0)
(0 0 0)
(0 0 0)
(0 0 0)
(0 0 0)
(0 0 0)
(0 0 0)
(0 0 0)
(0 0 0)
(0 0 0)
(0 0 0)
(0 0 0)
(0 0 0)
(0 0 0)
(0 0 0)
(0 0 0)
(0 0 0)
(0 0 0)
(0 0 0)
(0 0 0)
(0 0 0)
(0 0 0)
(0 0 0)
(0 0 0)
(0 0 0)
(0 0 0)
(0 0 0)
(0 0 0)
(0 0 0)
(0 0 0)
(0 0 0)
(0 0 0)
(0 0 0)
(0 0 0)
(0 0 0)
(0 0 0)
(0 0 0)
(0 0 0)
(0 0 0)
(0 0 0)
(0 0 0)
(0 0 0)
(0 0 0)
(0 0 0)
(0 0 0)
(0 0 0)
(0 0 0)
(0 0 0)
(0 0 0)
(0 0 0)
(0 0 0)
(0 0 0)
(0 0 0)
(0 0 0)
(0 0 0)
(0 0 0)
(0 0 0)
(0 0 0)
(0 0 0)
(0 0 0)
(0 0 0)
(0 0 0)
(0 0 0)
(0 0 0)
(0 0 0)
(0 0 0)
(0 0 0)
(0 0 0)
(0 0 0)
(0 0 0)
(0 0 0)
(0 0 0)
(0 0 0)
(0 0 0)
(0 0 0)
(0 0 0)
(0 0 0)
(0 0 0)
(0 0 0)
(0 0 0)
(0 0 0)
(0 0 0)
(0 0 0)
(0 0 0)
(0 0 0)
(0 0 0)
(0 0 0)
(0 0 0)
(0 0 0)
(0 0 0)
(0 0 0)
(0 0 0)
(0 0 0)
(0 0 0)
(0 0 0)
(0 0 0)
(0 0 0)
(-5.649530652e-07 4.177502515e-07 2.775557562e-17)
(0 0 0)
(0 0 0)
(-3.118350382e-07 4.678726091e-06 3.469446952e-16)
(1.43914546e-06 3.978190589e-06 2.91433544e-16)
(0 0 0)
(0 0 0)
(0 0 0)
(0 0 0)
(0 0 0)
(0 0 0)
(0 0 0)
(0 0 0)
(0 0 0)
(0 0 0)
(0 0 0)
(0 0 0)
(0 0 0)
(0 0 0)
(0 0 0)
(0 0 0)
(0 0 0)
(0 0 0)
(0 0 0)
(0 0 0)
(0 0 0)
(0 0 0)
(0 0 0)
(0 0 0)
(0 0 0)
(0 0 0)
(0 0 0)
(0 0 0)
(0 0 0)
(0 0 0)
(0 0 0)
(0 0 0)
(0 0 0)
(0 0 0)
(0 0 0)
(0 0 0)
(0 0 0)
(0 0 0)
(0 0 0)
(0 0 0)
(0 0 0)
(0 0 0)
(0 0 0)
(0 0 0)
(0 0 0)
(0 0 0)
(0 0 0)
(0 0 0)
(0 0 0)
(0 0 0)
(0 0 0)
(0 0 0)
(0 0 0)
(0 0 0)
(0 0 0)
(0 0 0)
(0 0 0)
(0 0 0)
(0 0 0)
(0 0 0)
(0 0 0)
(-3.519598233e-05 -4.064001358e-06 4.857225733e-16)
(-0.0002025366355 -2.543455722e-05 3.080868893e-15)
(-2.648673062e-06 -1.114199658e-07 4.163336342e-17)
(-0.0003844555392 -2.185778373e-05 8.007483565e-15)
(-0.0009541716892 -0.0001631518564 1.990074772e-14)
(-0.001131739517 -0.0002204967507 2.695066392e-14)
(-0.0005282094875 -3.407325961e-05 1.254552018e-14)
(-0.0006419045064 -7.138994368e-05 2.643718577e-14)
(-0.001123172828 -0.0003804810955 4.657385588e-14)
(-0.0009353748363 -0.0004208172393 5.145883719e-14)
(-0.000552068637 -8.128834269e-05 3.008704397e-14)
(-2.145944767e-05 -9.623927321e-05 3.519406988e-14)
(-2.463838618e-05 -0.0004790386404 5.817568649e-14)
(0.0003140052426 -0.0004740552714 5.742628595e-14)
(0.000182843845 -9.506228365e-05 3.461120279e-14)
(0.0006077074006 -7.378766211e-05 2.653433029e-14)
(0.001077516941 -0.0003882343838 4.671263376e-14)
(0.001180086133 -0.0003395564417 4.081457394e-14)
(0.000638846638 -6.183124042e-05 2.221833828e-14)
(0.0003754709228 -2.253194914e-05 8.10462808e-15)
(0.000932051831 -0.0001670084827 2.006728117e-14)
(0.0007010397239 -0.0001114296878 1.340594302e-14)
(0.0002193186511 -1.16514936e-05 4.204969706e-15)
(0 0 0)
(3.692288725e-05 -4.379052426e-06 5.273559367e-16)
(0 0 0)
(0 0 0)
(0 0 0)
(0 0 0)
(0 0 0)
(0 0 0)
(0 0 0)
(0 0 0)
(0 0 0)
(0 0 0)
(0 0 0)
(0 0 0)
(0 0 0)
(0 0 0)
(0 0 0)
(0 0 0)
(0 0 0)
(0 0 0)
(0 0 0)
(0 0 0)
(0 0 0)
(0 0 0)
(0 0 0)
(0 0 0)
(0 0 0)
(0 0 0)
(0 0 0)
(0 0 0)
(0 0 0)
(0 0 0)
(0 0 0)
(0 0 0)
(0 0 0)
(0 0 0)
(0 0 0)
(0 0 0)
(0 0 0)
(0 0 0)
(0 0 0)
(0 0 0)
(0 0 0)
(0 0 0)
(0 0 0)
(0 0 0)
(0 0 0)
(0 0 0)
(-9.829658849e-05 -3.129785116e-05 1.026956298e-15)
(-0.0005368953595 -0.0001820679655 6.009082121e-15)
(-0.000127193238 -3.531396734e-05 1.415534356e-15)
(-0.001813249896 -0.0006258783289 2.534084054e-14)
(-0.002898615193 -0.001222651895 4.057865155e-14)
(-0.00369531858 -0.001698545392 5.649647417e-14)
(-0.002491447724 -0.0009366209076 3.802513859e-14)
(-0.003862690519 -0.001994126685 8.132383655e-14)
(-0.005103734725 -0.003228841453 1.078304113e-13)
(-0.005124744665 -0.003712941868 1.240396674e-13)
(-0.003963290591 -0.00234086557 9.552081348e-14)
(-0.003075125533 -0.003208473737 1.307148834e-13)
(-0.003810137648 -0.004898380975 1.632860513e-13)
(-0.002990874775 -0.005173195277 1.721955911e-13)
(-0.002438666976 -0.003412766719 1.388333892e-13)
(3.184700142e-05 -0.003702099523 1.496719415e-13)
(7.535896321e-05 -0.005561817505 1.839500774e-13)
(0.001150488581 -0.005535982121 1.826733209e-13)
(0.0009060283757 -0.003681226072 1.484923295e-13)
(0.003099181734 -0.003267116809 1.309785613e-13)
(0.00390203772 -0.004988829522 1.636052405e-13)
(0.004524235543 -0.004657262236 1.525030102e-13)
(0.003564699166 -0.00302012387 1.209171652e-13)
(0.003831415948 -0.002044845731 8.174017019e-14)
(0.005095200704 -0.003314885684 1.083300116e-13)
(0.004820621648 -0.002792569117 9.12880882e-14)
(0.003530411335 -0.001676373709 6.70435929e-14)
(0.001798416838 -0.0006399133871 2.567390744e-14)
(0.002876979311 -0.00125102112 4.102274076e-14)
(0.002033068225 -0.0008153779364 2.678413047e-14)
(0.001128555332 -0.0003702510418 1.487698853e-14)
(0 0 0)
(9.758795328e-05 -3.166859011e-05 1.040834086e-15)
(0 0 0)
(0 0 0)
(0 0 0)
(0 0 0)
(0 0 0)
(0 0 0)
(0 0 0)
(0 0 0)
(0 0 0)
(0 0 0)
(0 0 0)
(0 0 0)
(0 0 0)
(0 0 0)
(0 0 0)
(0 0 0)
(0 0 0)
(0 0 0)
(0 0 0)
(0 0 0)
(0 0 0)
(0 0 0)
(0 0 0)
(0 0 0)
(0 0 0)
(0 0 0)
(0 0 0)
(0 0 0)
(0 0 0)
(0 0 0)
(0 0 0)
(0 0 0)
(0 0 0)
(0 0 0)
(0 0 0)
(0 0 0)
(0 0 0)
(0 0 0)
(0 0 0)
(-4.229142564e-05 -1.966124751e-05 3.747002708e-16)
(0 0 0)
(-0.001799386505 -0.000883923506 1.890154699e-14)
(-0.002673958379 -0.001466594043 2.804700916e-14)
(-0.00418255977 -0.002443751453 4.685141164e-14)
(-0.003071804709 -0.001607372229 3.443079155e-14)
(-0.007005785214 -0.004570868756 9.853229344e-14)
(-0.008498332664 -0.006199572872 1.196681643e-13)
(-0.009492487495 -0.007559007839 1.461331056e-13)
(-0.007989892001 -0.005688368898 1.228184221e-13)
(-0.009051427292 -0.008914525283 1.929290061e-13)
(-0.01031143908 -0.01137044798 2.202127369e-13)
(-0.009831268959 -0.012444687 2.409600297e-13)
(-0.008716235969 -0.009851158242 2.131628207e-13)
(-0.005928902176 -0.01199820666 2.58792987e-13)
(-0.006538658151 -0.01483651545 2.862848847e-13)
(-0.004991245404 -0.01534350806 2.955552469e-13)
(-0.004550845723 -0.01246778734 2.684519274e-13)
(0.0002294504633 -0.01312591468 2.808309141e-13)
(0.0002677336647 -0.01604768462 3.071848331e-13)
(0.002068745666 -0.0160202998 3.059774656e-13)
(0.001874436611 -0.01309477828 2.79526402e-13)
(0.006290095094 -0.01221974247 2.591815651e-13)
(0.00697711972 -0.01510556301 2.866734627e-13)
(0.008283854551 -0.01449446034 2.745859096e-13)
(0.00742541042 -0.01165542771 2.467748228e-13)
(0.009187952497 -0.009173504313 1.936090177e-13)
(0.01050627463 -0.01169581244 2.208094818e-13)
(0.01054941914 -0.01047788827 1.977445985e-13)
(0.009124867374 -0.008125977619 1.714739462e-13)
(0.006961783005 -0.004662082259 9.854617122e-14)
(0.008677471244 -0.006485219238 1.22235555e-13)
(0.007477726773 -0.005168377488 9.733880368e-14)
(0.005926298394 -0.003663417814 7.736866703e-14)
(0.002052987829 -0.001032145052 2.182976022e-14)
(0.003068427748 -0.001723808546 3.259892356e-14)
(0.001731267857 -0.0009147880989 1.731947918e-14)
(0.0009893040492 -0.0004678184537 9.908740495e-15)
(0 0 0)
(0 0 0)
(0 0 0)
(0 0 0)
(0 0 0)
(0 0 0)
(0 0 0)
(0 0 0)
(0 0 0)
(0 0 0)
(0 0 0)
(0 0 0)
(0 0 0)
(0 0 0)
(0 0 0)
(0 0 0)
(0 0 0)
(0 0 0)
(0 0 0)
(0 0 0)
(0 0 0)
(0 0 0)
(0 0 0)
(0 0 0)
(0 0 0)
(0 0 0)
(0 0 0)
(0 0 0)
(0 0 0)
(0 0 0)
(0 0 0)
(0 0 0)
(0 0 0)
(0 0 0)
(0 0 0)
(-0.000195465201 -0.0001135659497 1.637578961e-15)
(-0.0004445080688 -0.000278800154 3.719247132e-15)
(-0.001578665099 -0.001040819663 1.391942117e-14)
(-0.001061372 -0.0006482961731 9.353628982e-15)
(-0.006233496027 -0.004499584718 6.526723606e-14)
(-0.007373680325 -0.005744897788 7.721601136e-14)
(-0.009501592151 -0.007885301358 1.061928323e-13)
(-0.008238404533 -0.006334046469 9.206524432e-14)
(-0.01298569049 -0.01244440198 1.820488205e-13)
(-0.0143394882 -0.01484544892 2.008671007e-13)
(-0.01510336041 -0.01705905301 2.311068004e-13)
(-0.01380696524 -0.01443663355 2.116085085e-13)
(-0.01360644372 -0.01972182036 2.900735208e-13)
(-0.01444837422 -0.02256015517 3.068378884e-13)
(-0.01332188272 -0.02387972084 3.247957459e-13)
(-0.01258970875 -0.02094810592 3.079619892e-13)
(-0.007872750375 -0.0234804989 3.440442375e-13)
(-0.008141930913 -0.02607422993 3.535782778e-13)
(-0.006088924496 -0.02636104861 3.569367024e-13)
(-0.005924697893 -0.02389892089 3.496092305e-13)
(0.0002734671908 -0.02441384212 3.551603456e-13)
(0.0002358848082 -0.02663907728 3.588240816e-13)
(0.002353481672 -0.02668491544 3.587824482e-13)
(0.002363904952 -0.024428852 3.546885008e-13)
(0.008437243488 -0.02389144509 3.447797603e-13)
(0.008662454269 -0.02649280494 3.540501226e-13)
(0.01057828852 -0.02610843799 3.482214517e-13)
(0.01022927328 -0.02337540142 3.366473766e-13)
(0.01396531701 -0.02029035195 2.906980212e-13)
(0.01484753196 -0.02325267843 3.079203559e-13)
(0.0155585506 -0.02176811071 2.87575519e-13)
(0.01448327604 -0.01877063044 2.682021272e-13)
(0.01336144355 -0.01312380669 1.872113575e-13)
(0.01472475082 -0.01561300934 2.06210049e-13)
(0.01348336474 -0.01322028237 1.747629819e-13)
(0.0120938077 -0.0109834188 1.568467578e-13)
(0.006581911966 -0.004862696176 6.97775171e-14)
(0.007758337437 -0.006189835985 8.219813719e-14)
(0.005592401563 -0.004197702958 5.583034035e-14)
(0.004581837816 -0.003184404108 4.576894419e-14)
(0.0003023882161 -0.0001783535341 2.567390744e-15)
(0.0005194848673 -0.0003310375884 4.413136523e-15)
(1.318741154e-05 -8.002876229e-06 1.110223025e-16)
(0 0 0)
(0 0 0)
(0 0 0)
(0 0 0)
(0 0 0)
(0 0 0)
(0 0 0)
(0 0 0)
(0 0 0)
(0 0 0)
(0 0 0)
(0 0 0)
(0 0 0)
(0 0 0)
(0 0 0)
(0 0 0)
(0 0 0)
(0 0 0)
(0 0 0)
(0 0 0)
(0 0 0)
(0 0 0)
(0 0 0)
(0 0 0)
(0 0 0)
(0 0 0)
(0 0 0)
(0 0 0)
(0 0 0)
(-1.860481318e-05 -1.454925417e-05 1.387778781e-16)
(-5.076744748e-07 -3.755555276e-07 0)
(0 0 0)
(-0.001395437539 -0.001068595408 1.168509733e-14)
(-0.001761250221 -0.001429976974 1.475208844e-14)
(-0.003653552389 -0.003117534931 3.219646771e-14)
(-0.003117128294 -0.0025088033 2.747801986e-14)
(-0.01011644521 -0.009619941237 1.059013988e-13)
(-0.01101130744 -0.01110046521 1.152272722e-13)
(-0.01337116452 -0.01435686453 1.492833634e-13)
(-0.01266840823 -0.01282998385 1.415118023e-13)
(-0.01748924259 -0.02208962436 2.445543767e-13)
(-0.01821168473 -0.02437690736 2.543937283e-13)
(-0.01868265895 -0.02727281849 2.847305725e-13)
(-0.01802939415 -0.02484045129 2.751410211e-13)
(-0.01623266394 -0.03077363607 3.40741324e-13)
(-0.01657400451 -0.03325572135 3.46889184e-13)
(-0.01489962247 -0.03414416001 3.558819905e-13)
(-0.01468931707 -0.03183104319 3.523709102e-13)
(-0.008523225746 -0.0324376114 0)
(-0.008654991915 -0.03448931346 0)
(-0.00758778872 -0.03449557657 0)
(-0.006462179773 -0.03445677001 0)
(-0.006387507974 -0.03344135248 0)
(-0.00635485976 -0.03244962862 0)
(9.710208715e-05 -0.03255839939 0)
(7.425044582e-05 -0.0335447608 0)
(0.001154866798 -0.03356893112 0)
(0.00117186391 -0.03258252688 0)
(0.008784609042 -0.03284054769 0)
(0.008793389562 -0.033854336 0)
(0.008809470662 -0.03488399668 0)
(0.009883702926 -0.03493988896 0)
(0.01094278307 -0.034975894 0)
(0.01094313942 -0.03294046358 0)
(0.01653657862 -0.03169623469 3.43100548e-13)
(0.01678923407 -0.0341740839 3.489430966e-13)
(0.01807093604 -0.03283783231 3.349542865e-13)
(0.01768298036 -0.03026808805 3.273492588e-13)
(0.01787939044 -0.02317151477 2.503691698e-13)
(0.01852169462 -0.0254764472 2.594313653e-13)
(0.01758476883 -0.0223666479 2.278316424e-13)
(0.01678803803 -0.02012030024 2.174926905e-13)
(0.01083485426 -0.01057453205 1.146305273e-13)
(0.01184953247 -0.01226708843 1.253580573e-13)
(0.009336705716 -0.009093764812 9.309220061e-14)
(0.008409129861 -0.007721973832 8.384959393e-14)
(0.001872449625 -0.001458551154 1.590394483e-14)
(0.002340493049 -0.001933478566 1.987299214e-14)
(0.0008385045821 -0.0006592947096 6.786238238e-15)
(0.0005705079286 -0.0004229999668 4.62130334e-15)
(0 0 0)
(0 0 0)
(0 0 0)
(0 0 0)
(0 0 0)
(0 0 0)
(0 0 0)
(0 0 0)
(0 0 0)
(0 0 0)
(0 0 0)
(0 0 0)
(0 0 0)
(0 0 0)
(0 0 0)
(0 0 0)
(0 0 0)
(0 0 0)
(0 0 0)
(0 0 0)
(0 0 0)
(0 0 0)
(0 0 0)
(0 0 0)
(0 0 0)
(0 0 0)
(0 0 0)
(0 0 0)
(-0.0001676389013 -0.0001594662041 1.276756478e-15)
(-9.553267635e-05 -8.682882372e-05 7.21644966e-16)
(-7.815405752e-05 -6.773097813e-05 5.967448757e-16)
(-0.002530644839 -0.002406345765 2.117750419e-14)
(-0.002624543878 -0.002617082298 2.19685381e-14)
(-0.004859192656 -0.005091637812 4.278521981e-14)
(-0.004730822344 -0.004727202849 4.167499679e-14)
(-0.01272141225 -0.01501111572 1.329214516e-13)
(-0.01292489733 -0.01599092528 1.349753642e-13)
(-0.01538637024 -0.02026989852 1.713212905e-13)
(-0.01516923718 -0.01906017023 1.690036999e-13)
(-0.01967787839 -0.03078803423 2.737254867e-13)
(-0.01988270562 -0.03260169691 2.762234885e-13)
(-0.02014048941 -0.03598373848 3.049505093e-13)
(-0.01995560301 -0.03402799551 3.026190409e-13)
(-0.01711107789 -0.03997001236 3.550076899e-13)
(-0.01719967273 -0.04205599591 3.558681128e-13)
(-0.01523464172 -0.04244948521 0)
(-0.01518542581 -0.04044142654 3.588379593e-13)
(-0.008866457602 -0.04056414184 0)
(-0.008895870763 -0.04158178234 0)
(-0.007843307598 -0.041599984 0)
(-0.007814023788 -0.04058394461 0)
(0.008739670787 -0.04094045132 0)
(0.008722395651 -0.04194849447 0)
(0.009774444849 -0.04197695175 0)
(0.00979279344 -0.04097042617 0)
(0.01708315418 -0.04097786063 3.570893581e-13)
(0.01708027748 -0.04306947806 3.579497809e-13)
(0.01878796403 -0.04223878525 3.506778201e-13)
(0.01872279694 -0.04005513786 3.486794187e-13)
(0.02030892062 -0.03280321752 2.852301728e-13)
(0.02054584308 -0.03484397222 2.889632977e-13)
(0.01983782914 -0.03108329017 2.57877053e-13)
(0.0195622755 -0.02919917779 2.539912725e-13)
(0.0139077071 -0.01687492661 1.472433286e-13)
(0.0142200114 -0.01810417549 1.506295089e-13)
(0.0115472789 -0.01382803896 1.151995166e-13)
(0.01125118364 -0.01284120704 1.122019144e-13)
(0.003395807822 -0.003286116233 2.883804306e-14)
(0.003834649606 -0.003893874919 3.25572902e-14)
(0.001828847044 -0.001767227775 1.47937218e-14)
(0.001505537986 -0.001386492897 1.21846977e-14)
(0 0 0)
(0 0 0)
(0 0 0)
(0 0 0)
(0 0 0)
(0 0 0)
(0 0 0)
(0 0 0)
(0 0 0)
(0 0 0)
(0 0 0)
(0 0 0)
(0 0 0)
(0 0 0)
(0 0 0)
(0 0 0)
(0 0 0)
(0 0 0)
(0 0 0)
(0 0 0)
(0 0 0)
(0 0 0)
(0 0 0)
(0 0 0)
(0 0 0)
(0 0 0)
(0 0 0)
(0 0 0)
(-0.0002751897183 -0.00030827417 2.095545959e-15)
(-0.0002485511693 -0.0002679451381 1.887379142e-15)
(-0.0002180498569 -0.0002258553929 1.665334537e-15)
(-0.003118488594 -0.003543205697 2.609024108e-14)
(-0.003224668825 -0.003813266666 2.69784195e-14)
(-0.00562337604 -0.006987256066 4.948819132e-14)
(-0.005490472774 -0.00655503825 4.832245715e-14)
(-0.01373357502 -0.0193517131 1.432187702e-13)
(-0.0139001527 -0.02038006292 1.448841047e-13)
(-0.01634278093 -0.02550266014 1.815214645e-13)
(-0.01617899128 -0.02426687923 1.798006188e-13)
(-0.02047374467 -0.0381615912 2.833566715e-13)
(-0.02060068919 -0.03992715504 2.847305725e-13)
(-0.02074323903 -0.0437629402 3.121253256e-13)
(-0.02063425185 -0.04187627565 3.109595914e-13)
(-0.01739905663 -0.04818416 3.572558915e-13)
(-0.01745264486 -0.0501975719 3.574779361e-13)
(-0.01541373351 -0.05043646785 0)
(-0.01537032173 -0.04844466284 0)
(-0.009061844544 -0.0485887328 0)
(-0.009084166545 -0.04958531389 0)
(-0.008034366007 -0.04960914205 0)
(-0.008011905517 -0.04861256416 0)
(0.008577836584 -0.0489821509 0)
(0.008554917562 -0.04998458402 0)
(0.009604509994 -0.05000942351 0)
(0.009627601941 -0.04900750244 0)
(0.0169825206 -0.04917610433 3.58796326e-13)
(0.01693595253 -0.05118191839 3.588379593e-13)
(0.01882147211 -0.05063743435 3.547162564e-13)
(0.01884034121 -0.04858639348 3.541750226e-13)
(0.02114596051 -0.0410284231 2.987332604e-13)
(0.02124099633 -0.04295629422 3.005651283e-13)
(0.02074979222 -0.0387341306 2.71088707e-13)
(0.02061476284 -0.03692901776 2.689515277e-13)
(0.01534024903 -0.02229718185 1.62786451e-13)
(0.01556080189 -0.023555858 1.652428194e-13)
(0.01291615123 -0.01838210338 1.290911822e-13)
(0.01268595202 -0.01733732306 1.267319583e-13)
(0.004396987964 -0.005090618993 3.735900478e-14)
(0.004575662775 -0.005515325504 3.888556144e-14)
(0.002359655072 -0.002706137265 1.909583602e-14)
(0.002224549721 -0.002450548539 1.799949079e-14)
(0 0 0)
(0 0 0)
(0 0 0)
(0 0 0)
(0 0 0)
(0 0 0)
(0 0 0)
(0 0 0)
(0 0 0)
(0 0 0)
(0 0 0)
(0 0 0)
(0 0 0)
(0 0 0)
(0 0 0)
(0 0 0)
(0 0 0)
(0 0 0)
(0 0 0)
(0 0 0)
(0 0 0)
(0 0 0)
(0 0 0)
(0 0 0)
(0 0 0)
(0 0 0)
(0 0 0)
(0 0 0)
(-0.000405945067 -0.0005232189073 3.094746681e-15)
(-0.0003659857386 -0.0004562773037 2.775557562e-15)
(-0.0003304080017 -0.0003979986968 2.511879593e-15)
(-0.00348905448 -0.004610147504 2.918498776e-14)
(-0.003596151214 -0.00491781525 3.008704397e-14)
(-0.006083877956 -0.008740516401 5.351274979e-14)
(-0.005952000486 -0.008262558557 5.23608934e-14)
(-0.01431109417 -0.02342528391 1.489641743e-13)
(-0.01447315177 -0.02451116799 1.505739977e-13)
(-0.01690742351 -0.03045945886 1.872946243e-13)
(-0.01674850085 -0.02916693292 1.856570453e-13)
(-0.02092376217 -0.04518032893 2.880751193e-13)
(-0.02104608324 -0.04698561641 2.893796314e-13)
(-0.02112953629 -0.05129851451 3.159694728e-13)
(-0.0210248822 -0.04938184475 3.148870054e-13)
(-0.01760243891 -0.05621159935 3.579497809e-13)
(-0.01765225768 -0.05821879423 3.581024366e-13)
(-0.01558394691 -0.0583870011 0)
(-0.01554171841 -0.05640043415 0)
(-0.009237345459 -0.05654422457 0)
(-0.009258977792 -0.05753694183 0)
(-0.008210602975 -0.05756050613 0)
(-0.008199693416 -0.05706410347 0)
(-0.008188793452 -0.05656811628 0)
(0.008383146231 -0.05699257838 0)
(0.008357267875 -0.05799115577 0)
(0.00940569845 -0.05801430567 0)
(0.009431707832 -0.05701605462 0)
(0.01678122501 -0.05717377355 3.588240816e-13)
(0.01672543423 -0.05915559993 3.587408148e-13)
(0.01857597969 -0.0583942989 3.538835891e-13)
(0.01865202886 -0.05650523253 3.543554339e-13)
(0.02104516739 -0.04777732974 2.99343883e-13)
(0.02093196008 -0.04925822561 2.982614156e-13)
(0.02043358621 -0.04433848792 2.685351941e-13)
(0.02055106226 -0.04303228382 2.696731727e-13)
(0.01536981858 -0.02605032331 1.635913627e-13)
(0.01526119239 -0.02678694077 1.625644064e-13)
(0.01263456818 -0.0208376056 1.265931804e-13)
(0.0127341846 -0.02028284105 1.275091144e-13)
(0.004451602618 -0.006000977544 3.785860514e-14)
(0.00439330938 -0.006130907138 3.735900478e-14)
(0.002225717436 -0.002954802267 1.802724636e-14)
(0.002266846176 -0.002907154141 1.834643548e-14)
(0 0 0)
(0 0 0)
(0 0 0)
(0 0 0)
(0 0 0)
(0 0 0)
(0 0 0)
(0 0 0)
(0 0 0)
(0 0 0)
(0 0 0)
(0 0 0)
(0 0 0)
(0 0 0)
(0 0 0)
(0 0 0)
(0 0 0)
(0 0 0)
(0 0 0)
(0 0 0)
(0 0 0)
(0 0 0)
(0 0 0)
(0 0 0)
(0 0 0)
(0 0 0)
(0 0 0)
(0 0 0)
(-0.000581354071 -0.0008474242949 4.440892099e-15)
(-0.0005338367345 -0.0007556399081 4.066191828e-15)
(-0.0004878783223 -0.0006700006374 3.719247132e-15)
(-0.003931079263 -0.005920552697 3.286260153e-14)
(-0.004049102997 -0.006285163751 3.386180225e-14)
(-0.00663578336 -0.01081858464 5.834221994e-14)
(-0.006492881613 -0.01027155199 5.707934125e-14)
(-0.01496957345 -0.02789176684 1.555006124e-13)
(-0.01514088945 -0.02906458865 1.571798247e-13)
(-0.01755992392 -0.03583697538 1.939698402e-13)
(-0.01739291565 -0.03445867971 1.922767501e-13)
(-0.02141650351 -0.05249138328 2.933070453e-13)
(-0.02154244728 -0.05435906827 2.946393129e-13)
(-0.02155139674 -0.05908440108 3.202577092e-13)
(-0.02144486972 -0.05711910596 3.191752418e-13)
(-0.01779702586 -0.06423883743 3.584910147e-13)
(-0.01784362285 -0.06624316554 3.585881592e-13)
(-0.01575084404 -0.06633793425 0)
(-0.01570946598 -0.06435019296 0)
(-0.009408964324 -0.06449361686 0)
(-0.00943001786 -0.06548727124 0)
(-0.008383444463 -0.06551084013 0)
(-0.008372802287 -0.0650140156 0)
(-0.008362116081 -0.06451728447 0)
(0.008168582232 -0.06496956899 0)
(0.008139873756 -0.0659666954 0)
(0.009187313267 -0.0659887601 0)
(0.00921624616 -0.064991916 0)
(0.01652184454 -0.06497765173 3.579081476e-13)
(0.01643282158 -0.06682793737 3.571865026e-13)
(0.01809048024 -0.06525448969 3.485822742e-13)
(0.01824808478 -0.06368990583 3.506084312e-13)
(0.0201794335 -0.05253718668 2.890465645e-13)
(0.01975313957 -0.05307920456 2.834121826e-13)
(0.01919814672 -0.04751335071 2.537414723e-13)
(0.01954885113 -0.04688577635 2.580158309e-13)
(0.01413552682 -0.02736845948 1.509070646e-13)
(0.01377783752 -0.02750760691 1.471878175e-13)
(0.01117502606 -0.02095188547 1.122157922e-13)
(0.01150820419 -0.0209268161 1.155048279e-13)
(0.003590755662 -0.005521638477 3.055888875e-14)
(0.003397952906 -0.005386207656 2.892130979e-14)
(0.001510844507 -0.002278194522 1.224020885e-14)
(0.001640152036 -0.002399273565 1.329492072e-14)
(0 0 0)
(0 0 0)
(0 0 0)
(0 0 0)
(0 0 0)
(0 0 0)
(0 0 0)
(0 0 0)
(0 0 0)
(0 0 0)
(0 0 0)
(0 0 0)
(0 0 0)
(0 0 0)
(0 0 0)
(0 0 0)
(0 0 0)
(0 0 0)
(0 0 0)
(0 0 0)
(0 0 0)
(0 0 0)
(0 0 0)
(0 0 0)
(0 0 0)
(0 0 0)
(0 0 0)
(0 0 0)
(-0.0007347753197 -0.001195000924 5.592748487e-15)
(-0.0007598765016 -0.001203748904 5.787037516e-15)
(-0.0006936523337 -0.001069606911 5.287437155e-15)
(-0.004434989003 -0.007497253698 3.708144902e-14)
(-0.004585897686 -0.007963356497 3.833044993e-14)
(-0.007278269099 -0.01327069535 6.393496843e-14)
(-0.007098827438 -0.01260156172 6.236677841e-14)
(-0.01568764631 -0.03275689364 1.625782842e-13)
(-0.01589566857 -0.0340799366 1.64618319e-13)
(-0.01829159486 -0.04166816207 2.0143609e-13)
(-0.01809080616 -0.04014233446 1.993821774e-13)
(-0.02193620098 -0.06008114565 2.987748937e-13)
(-0.0220810311 -0.06205237391 3.003292059e-13)
(-0.02200091711 -0.06711549914 3.248235014e-13)
(-0.02188140253 -0.06507094461 3.235883783e-13)
(-0.01797828868 -0.07224215486 3.58796326e-13)
(-0.01802157008 -0.07423642776 3.588379593e-13)
(-0.01591477854 -0.07428658025 0)
(-0.01587382661 -0.072299291 0)
(-0.009574369639 -0.07244195177 0)
(-0.009594543948 -0.07343553408 0)
(-0.008549950226 -0.07345882631 0)
(-0.008539766481 -0.07296185264 0)
(-0.008529545102 -0.07246524933 0)
(0.00793169807 -0.07292706106 0)
(0.007900157022 -0.07392084275 0)
(0.008947246419 -0.07394206799 0)
(0.008979110607 -0.07294829377 0)
(0.01609448248 -0.0720100196 3.535088888e-13)
(0.01594345416 -0.07353174921 3.514410984e-13)
(0.01732047632 -0.07066919232 3.376188218e-13)
(0.01755408788 -0.06953297724 3.41199291e-13)
(0.01855172352 -0.05451286043 2.674388488e-13)
(0.01823336174 -0.0551183212 2.632755125e-13)
(0.01729307515 -0.04807502055 2.297051438e-13)
(0.01784480418 -0.04824725514 2.3675506e-13)
(0.01217119482 -0.02649726556 1.302707942e-13)
(0.01140754636 -0.0255168791 1.221522883e-13)
(0.008846009166 -0.01857395323 8.898437542e-14)
(0.00961184041 -0.0196441625 9.665879208e-14)
(0.002410739825 -0.004163835699 2.052524817e-14)
(0.002105390497 -0.00373613183 1.793010185e-14)
(0.0006838360269 -0.001154519955 5.551115123e-15)
(0.0008607209063 -0.001414320759 6.980527267e-15)
(0 0 0)
(0 0 0)
(0 0 0)
(0 0 0)
(0 0 0)
(0 0 0)
(0 0 0)
(0 0 0)
(0 0 0)
(0 0 0)
(0 0 0)
(0 0 0)
(0 0 0)
(0 0 0)
(0 0 0)
(0 0 0)
(0 0 0)
(0 0 0)
(0 0 0)
(0 0 0)
(0 0 0)
(0 0 0)
(0 0 0)
(0 0 0)
(0 0 0)
(0 0 0)
(0 0 0)
(0 0 0)
(-0.001306408354 -0.002344476552 9.950373858e-15)
(-0.001191025433 -0.002087149593 9.076073226e-15)
(-0.001019306681 -0.001743446584 7.771561172e-15)
(-0.005070976933 -0.00950427491 4.236888618e-14)
(-0.00544850312 -0.01046016688 4.550526622e-14)
(-0.008264315472 -0.01665333666 7.25114413e-14)
(-0.007802378243 -0.01535142122 6.848688283e-14)
(-0.01659858085 -0.03835573754 1.715433351e-13)
(-0.01690792863 -0.04000359107 1.746103262e-13)
(-0.0192215377 -0.04829067975 2.109146191e-13)
(-0.01896559082 -0.04654248204 2.08305595e-13)
(-0.02255415694 -0.06816430384 3.053807207e-13)
(-0.02263668654 -0.07000626189 3.060468545e-13)
(-0.02252077547 -0.0755340765 3.302080831e-13)
(-0.02238553003 -0.07339549037 3.288064265e-13)
(-0.01814888692 -0.08019932171 0)
(-0.0181925582 -0.08218636341 0)
(-0.01608261237 -0.08223407388 0)
(-0.01606096938 -0.08124089499 0)
(-0.01603960123 -0.08024761738 0)
(-0.009733537631 -0.08039019978 0)
(-0.009743471371 -0.08088634786 0)
(-0.009221031757 -0.08089781252 0)
(-0.009211147378 -0.08040180187 0)
(-0.0006724206826 -0.08071732573 0)
(-0.0006838922883 -0.08096462602 0)
(-0.0006937012486 -0.08121201089 0)
(-0.0001820702389 -0.08121800675 0)
(-0.0001600088156 -0.08072370913 0)
(0.007656470949 -0.08086486933 0)
(0.007617362804 -0.08185431938 0)
(0.007577845588 -0.08284348286 0)
(0.009678194221 -0.08288676864 0)
(0.009754579987 -0.08090713345 0)
(0.008705915721 -0.08088610278 0)
(0.01538588694 -0.07740111853 3.427952366e-13)
(0.01511508493 -0.07816406547 3.379241331e-13)
(0.01611791919 -0.07350459035 3.176903185e-13)
(0.01654865325 -0.07347805853 3.25309224e-13)
(0.01667646311 -0.05460942949 2.417788192e-13)
(0.01607466584 -0.05398420002 2.333411242e-13)
(0.01491022794 -0.0459979808 1.988825771e-13)
(0.01553980422 -0.04675705558 2.070843497e-13)
(0.009453550621 -0.02284489798 1.013633621e-13)
(0.008884338601 -0.0220021295 9.529876888e-14)
(0.006499396996 -0.01510413588 6.547540288e-14)
(0.007000642726 -0.0158759771 7.048528428e-14)
(0.000995582825 -0.001907971457 8.493206138e-15)
(0.0008093197424 -0.001589435258 6.89726054e-15)
(6.416911704e-05 -0.0001199359395 5.273559367e-16)
(0.0001225987495 -0.0002235929015 9.992007222e-16)
(0 0 0)
(0 0 0)
(0 0 0)
(0 0 0)
(0 0 0)
(0 0 0)
(0 0 0)
(0 0 0)
(0 0 0)
(0 0 0)
(0 0 0)
(0 0 0)
(0 0 0)
(0 0 0)
(0 0 0)
(0 0 0)
(0 0 0)
(0 0 0)
(0 0 0)
(0 0 0)
(0 0 0)
(0 0 0)
(0 0 0)
(0 0 0)
(0 0 0)
(0 0 0)
(0 0 0)
(0 0 0)
(-0.001238924465 -0.002443722172 9.478529073e-15)
(-0.001400100461 -0.002702071111 1.06997744e-14)
(-0.001496094905 -0.00282384164 1.144917494e-14)
(-0.006034886878 -0.01247880556 5.062616992e-14)
(-0.005840982805 -0.01234923522 4.898859096e-14)
(-0.008713730489 -0.01933531204 7.678579994e-14)
(-0.008945898594 -0.01941502508 7.882583475e-14)
(-0.01767413994 -0.04502337717 1.832284324e-13)
(-0.01739073718 -0.04528252055 1.802030747e-13)
(-0.01967491958 -0.05438512121 2.16549001e-13)
(-0.01995085632 -0.05396111316 2.197270144e-13)
(-0.02309268496 -0.07688062705 3.133049375e-13)
(-0.02291230226 -0.07790826968 3.104738688e-13)
(-0.02262291092 -0.08342849371 3.324424069e-13)
(-0.02275047073 -0.0821684694 3.348155087e-13)
(-0.01809057605 -0.0881723604 0)
(-0.01813647062 -0.09015967406 0)
(-0.01602063938 -0.09020853658 0)
(-0.01599769743 -0.08921511056 0)
(-0.01597474482 -0.08822122292 0)
(-0.009627343444 -0.08836780834 0)
(-0.009650296057 -0.08936169599 0)
(-0.008592426603 -0.08938612619 0)
(-0.008580944966 -0.08888895155 0)
(-0.00856947399 -0.08839223854 0)
(-0.009098408717 -0.08838002344 0)
(-0.001164158518 -0.08856325519 0)
(-0.001175628609 -0.08905996822 0)
(-0.001187109804 -0.08955714287 0)
(-0.0001292078453 -0.08958157381 0)
(-0.0001062552326 -0.08858768617 0)
(0.007299029444 -0.08875870211 0)
(0.007253134879 -0.09074601577 0)
(0.009336542708 -0.09044686344 3.574779361e-13)
(0.009408085717 -0.08873717134 3.585604036e-13)
(0.01432250782 -0.0802117051 3.236577673e-13)
(0.013965504 -0.08023525178 3.167466289e-13)
(0.01465909479 -0.0740448556 2.922662112e-13)
(0.01508847864 -0.0743575025 2.999822613e-13)
(0.01399213382 -0.05049199875 2.037536806e-13)
(0.01342614801 -0.04958029356 1.95746197e-13)
(0.01196815869 -0.0405345437 1.600802824e-13)
(0.01278751037 -0.04235436561 1.709743458e-13)
(0.006705169852 -0.01780348399 7.198408536e-14)
(0.005843494079 -0.01586050547 6.274147868e-14)
(0.00397058346 -0.01011359211 4.002354004e-14)
(0.00452450829 -0.01127182821 4.560241074e-14)
(0.0001666275813 -0.0003509919749 1.415534356e-15)
(7.526438909e-05 -0.0001621339084 6.383782392e-16)
(0 0 0)
(0 0 0)
(0 0 0)
(0 0 0)
(0 0 0)
(0 0 0)
(0 0 0)
(0 0 0)
(0 0 0)
(0 0 0)
(0 0 0)
(0 0 0)
(0 0 0)
(0 0 0)
(0 0 0)
(0 0 0)
(0 0 0)
(0 0 0)
(0 0 0)
(0 0 0)
(0 0 0)
(0 0 0)
(0 0 0)
(0 0 0)
(0 0 0)
(0 0 0)
(0 0 0)
(0 0 0)
(0 0 0)
(0 0 0)
(-0.0002893718712 -0.0006201999916 2.220446049e-15)
(-0.000525069116 -0.001102920713 4.024558464e-15)
(-0.0007800883713 -0.001605249097 5.967448757e-15)
(-0.004475751739 -0.01009349081 3.755329381e-14)
(-0.003823980663 -0.008805171632 3.20993232e-14)
(-0.006229018732 -0.0150565417 5.491440636e-14)
(-0.007046308435 -0.01667906119 6.210310044e-14)
(-0.01524034766 -0.04232260449 1.579014697e-13)
(-0.01412922761 -0.04007435564 1.464384169e-13)
(-0.01640017453 -0.04936501712 1.804945082e-13)
(-0.01752920185 -0.0516618643 1.928318616e-13)
(-0.02128897053 -0.07705206429 2.878669525e-13)
(-0.02035321607 -0.07520783069 2.752242878e-13)
(-0.02052330474 -0.08215303531 3.006483951e-13)
(-0.02132275441 -0.08362451439 3.124167591e-13)
(-0.01806596404 -0.09508881424 3.549660565e-13)
(-0.01779506054 -0.0954595948 3.491096301e-13)
(-0.01605808643 -0.09733088805 3.557987238e-13)
(-0.01614812899 -0.09611441371 3.586297925e-13)
(-0.009810943025 -0.09631798627 0)
(-0.00985684825 -0.09830576156 0)
(-0.00774106318 -0.09835462302 0)
(-0.007695157954 -0.09636684772 0)
(-0.008753073571 -0.09634241646 0)
(-0.001347756581 -0.09651343315 0)
(-0.001393661806 -0.09850120845 0)
(0.0007221371127 -0.09855007022 0)
(0.0007680423383 -0.09656229492 0)
(0.007061091495 -0.09584525696 3.556460682e-13)
(0.006923048147 -0.0962914478 3.501088308e-13)
(0.008742450706 -0.09337962476 3.393813008e-13)
(0.008971129809 -0.09369405313 3.474998067e-13)
(0.01279022278 -0.07851733015 2.909616992e-13)
(0.01223791607 -0.0766564208 2.783884234e-13)
(0.01250555023 -0.0687389428 2.496197693e-13)