/*--------------------------------*- C++ -*----------------------------------*\
| =========                 |                                                 |
| \\      /  F ield         | OpenFOAM: The Open Source CFD Toolbox           |
|  \\    /   O peration     | Version:  v1912                                 |
|   \\  /    A nd           | Website:  www.openfoam.com                      |
|    \\/     M anipulation  |                                                 |
\*---------------------------------------------------------------------------*/
FoamFile
{
    version     2.0;
    format      ascii;
    class       volVectorField;
    location    "2.75";
    object      U;
}
// * * * * * * * * * * * * * * * * * * * * * * * * * * * * * * * * * * * * * //

dimensions      [0 1 -1 0 0 0 0];


internalField   nonuniform List<vector> 
12556
(
(99.99803091 0.004687199967 -4.428353193e-21)
(99.99753723 0.01542118519 5.258718031e-25)
(99.99610412 0.03141294442 -4.415310717e-21)
(99.9937298 0.05604418189 -4.379763232e-21)
(99.9998406 0.04312746581 4.21439384e-21)
(99.9969904 0.06903698096 0)
(99.9954839 0.1084926191 0)
(99.99511634 0.16162461 -7.236945056e-21)
(99.99394457 0.2298880926 8.346439126e-22)
(99.99335746 0.3096445514 -5.28417345e-21)
(99.99405944 0.3898023753 7.635466992e-22)
(99.99493202 0.4519971381 0)
(100.0000026 0.4773756299 0)
(100.0047979 0.4571909693 1.576029878e-21)
(100.0061415 0.4002811584 -2.065744503e-21)
(100.0064908 0.3249381279 1.068168356e-21)
(100.005977 0.2485227363 0)
(100.0051771 0.1814817956 1.625147502e-21)
(100.0046766 0.1260468687 6.649058925e-21)
(100.002492 0.08668114801 -1.831723254e-21)
(100.0094327 0.09653673659 -1.580775076e-20)
(100.0062686 0.05845766463 0)
(100.0044698 0.03064795269 -1.970940194e-21)
(100.0041998 0.009559027477 -1.386282511e-20)
(99.98253054 0.01256872503 1.775696202e-20)
(99.97664679 0.04185094097 4.430285999e-21)
(99.96332544 0.08594646446 3.0909372e-20)
(99.940517 0.1542810577 -1.323709109e-20)
(99.9457178 0.2038426639 4.248272572e-21)
(99.91133915 0.3297130583 -5.981520246e-23)
(99.86791053 0.5186579786 0)
(99.84608615 0.6839752546 -7.351874246e-21)
(99.80239015 0.9844332547 -6.722659781e-21)
(99.77459396 1.347168024 -1.142943305e-20)
(99.78303875 1.722775991 -4.57102071e-21)
(99.83913638 2.025799679 -7.933853903e-21)
(99.94045767 2.166555983 8.464940412e-23)
(100.0496369 2.094376302 7.104699597e-22)
(100.1306648 1.845097662 -6.705053212e-22)
(100.165665 1.504069097 5.502291669e-21)
(100.1616037 1.148957827 -1.032693856e-20)
(100.1343665 0.8407534948 0)
(100.1352951 0.6158597417 -2.798038209e-20)
(100.0938765 0.4108391402 5.363781366e-20)
(100.0888687 0.2742533508 1.530363732e-20)
(100.060114 0.1654966899 3.135119077e-20)
(100.0436605 0.08709695817 -3.144408921e-20)
(100.037301 0.02721221793 1.583400391e-20)
(99.95312961 0.01650519761 -1.771739896e-20)
(99.93648356 0.05603285421 -3.560179047e-20)
(99.90024872 0.117577521 -7.966411041e-20)
(99.8396354 0.2159605713 1.0594771e-19)
(99.81248945 0.3218967349 -8.751487821e-21)
(99.70967467 0.5355177093 -8.46122515e-21)
(99.57517925 0.8602280437 -1.466108541e-20)
(99.50587121 1.206440971 0)
(99.36498493 1.783077045 2.793055631e-20)
(99.27690729 2.495212643 0)
(99.31589829 3.257756104 -3.749119433e-20)
(99.52899078 3.922134022 0)
(99.91605982 4.260572986 -7.798093629e-21)
(100.3289698 4.119204972 -1.58752127e-20)
(100.5986566 3.571229731 0)
(100.683461 2.850423976 4.418816862e-21)
(100.6441511 2.14463247 -1.104962056e-20)
(100.5319038 1.530954246 -2.530032178e-20)
(100.4460334 1.043711379 -1.680862201e-19)
(100.3178796 0.6866198888 -3.695311783e-20)
(100.2440764 0.4111639054 -1.562296693e-20)
(100.168378 0.2455779465 3.547162892e-20)
(100.1228953 0.1292382921 -3.976669513e-21)
(100.1029504 0.04015938343 0)
(99.91829021 0.01417160322 -8.943830253e-21)
(99.88635503 0.05070759321 6.257733568e-20)
(99.81803245 0.1146073714 -1.790758836e-20)
(99.70631393 0.2207218719 0)
(99.61997023 0.369786019 0)
(99.41953067 0.6445020851 -6.872480102e-20)
(99.14382332 1.078146216 -1.373031265e-19)
(98.93542555 1.594622871 3.213884753e-20)
(98.6094821 2.433019411 -1.709909651e-19)
(98.37741333 3.515353251 -5.776222903e-19)
(98.37954314 4.803314965 -2.306882689e-20)
(98.82222483 6.058057971 1.255510254e-19)
(99.77256591 6.776519085 5.852628201e-20)
(100.8356581 6.532449598 5.26638385e-20)
(101.4805005 5.486189541 -2.857448186e-20)
(101.602232 4.182997499 0)
(101.4344034 3.015053182 -1.917472006e-19)
(101.1732031 2.099572251 0)
(100.9184269 1.359406532 6.057713437e-20)
(100.6525903 0.8727121428 -4.6472796e-20)
(100.4592585 0.480614571 -3.990576249e-20)
(100.3185983 0.2837328006 2.015154729e-20)
(100.2312589 0.1468146031 -4.03801608e-21)
(100.19135 0.04512033703 0)
(99.89318589 0.004086352267 0)
(99.84344994 0.02088831452 0)
(99.73798662 0.06852016968 9.072799018e-21)
(99.56474782 0.1578231151 1.367221045e-20)
(99.40592824 0.329090338 2.260210151e-20)
(99.0754277 0.623498002 0)
(98.61611575 1.095049287 0)
(98.18968881 1.739836073 0)
(97.58693969 2.775612731 5.759784432e-19)
(97.02357187 4.252355852 8.269062642e-19)
(96.76239213 6.25235667 5.856289324e-20)
(97.37143426 8.588216117 9.594921052e-19)
(99.37625332 10.19296925 6.948819953e-21)
(101.8107504 9.720508208 -2.545523623e-19)
(103.0890817 7.689025849 6.167386023e-19)
(103.131307 5.435470452 4.710359054e-20)
(102.6147043 3.676050393 1.701818448e-19)
(102.0332741 2.440198562 -4.014652043e-22)
(101.5206229 1.501863613 -9.89192167e-20)
(101.0658076 0.9346508287 8.199828899e-21)
(100.7058316 0.4627688522 0)
(100.4843667 0.2666022223 4.102402609e-21)
(100.3464517 0.1325880533 -3.081489762e-21)
(100.2824165 0.03989783838 -1.02115979e-21)
(99.89459713 -0.01424066404 0)
(99.82666957 -0.03512239981 0)
(99.68436831 -0.02627116372 -1.815533952e-20)
(99.44647595 0.02302453847 3.70808541e-20)
(99.20542072 0.1850487159 0)
(98.73212706 0.4431973377 0)
(98.05883776 0.8780995873 2.902121411e-20)
(97.38698543 1.544432967 -2.356101832e-19)
(96.37617108 2.630458122 -6.752362594e-19)
(95.20828606 4.347015636 0)
(94.10218604 7.167215407 1.644415633e-19)
(94.21674649 11.5797165 0)
(98.3207399 15.66081019 1.231729294e-19)
(104.0272452 14.3144946 -7.660745511e-20)
(106.051358 9.994047386 2.708730492e-19)
(105.4950626 6.366633455 2.544169878e-19)
(104.2087253 3.957307052 0)
(103.0650454 2.463180383 -1.019361032e-19)
(102.1911028 1.406954452 2.538320054e-20)
(101.5075761 0.8326024692 -1.688878563e-20)
(100.9484478 0.3449479843 0)
(100.6354485 0.1853292873 0)
(100.4436268 0.08236846413 -1.032025885e-21)
(100.3537918 0.02334417945 -3.089564651e-21)
(99.93862917 -0.04033251432 4.448826929e-21)
(99.85443915 -0.115243262 -4.483534747e-21)
(99.6806131 -0.1661572032 9.155226246e-21)
(99.38632423 -0.1835831057 -3.345601534e-20)
(99.05463195 -0.06388996388 6.685432516e-23)
(98.45369543 0.1006760802 2.874421563e-20)
(97.59482921 0.4111213287 -1.40931673e-19)
(96.65938555 0.9710944127 3.432675652e-19)
(95.197428 1.895958748 0)
(93.20559029 3.457288577 8.309775271e-19)
(90.33639084 6.37658099 -8.614897283e-19)
(86.75599328 13.50924829 0)
(94.38757765 26.29214677 0)
(110.6448599 20.63829891 -4.001632052e-20)
(111.2374928 11.47520391 0)
(108.6908796 6.323795821 6.984277275e-19)
(106.0986062 3.554376325 -3.225348431e-19)
(104.1677843 2.039003524 0)
(102.8192819 1.023111703 0)
(101.914031 0.5410934783 9.109430064e-21)
(101.1415124 0.12692473 2.698750759e-21)
(100.7390524 0.03647114991 -3.194064281e-21)
(100.4974616 -0.003638869331 -3.629958577e-21)
(100.3829184 -0.004425257726 8.759879252e-21)
(100.0390903 -0.07256545906 -4.449295811e-21)
(99.94277023 -0.2142417941 4.48514272e-21)
(99.74652841 -0.3409822748 -5.698815011e-21)
(99.41218472 -0.4455794658 -3.841350159e-21)
(99.00452609 -0.4001360684 1.640472667e-20)
(98.30827517 -0.3751885002 9.801310027e-21)
(97.33222598 -0.2724415595 -5.774281498e-21)
(96.17654137 0.06264081825 0)
(94.37944775 0.5828677185 9.773886197e-21)
(91.75281671 1.42581705 -7.877932471e-19)
(87.31162364 2.728486111 9.995191648e-19)
(78.45854801 5.28694903 -2.577136973e-18)
(126.7787299 22.96921156 1.767938015e-18)
(118.2897379 9.272790662 2.465975277e-18)
(112.1398978 4.48120003 9.100920726e-19)
(107.8817873 2.238169084 0)
(105.1338673 1.111536418 7.950080219e-19)
(103.2902967 0.3518305292 -4.815513418e-21)
(102.201514 0.07528971447 2.051813258e-20)
(101.2366719 -0.1831676345 -3.276561871e-21)
(100.7637304 -0.1698903701 2.682420812e-21)
(100.4835837 -0.1200752622 -4.971472402e-22)
(100.3486569 -0.04204533334 -8.206057518e-21)
(100.2059596 -0.1084874663 -2.148468369e-21)
(100.1031196 -0.3245119416 -1.615008168e-21)
(99.89618283 -0.5362827088 -5.538393517e-22)
(99.54294716 -0.7397570864 1.680704137e-21)
(99.08144142 -0.790830904 -3.228014933e-23)
(98.34314228 -0.9332076314 0)
(97.33157116 -1.075597085 4.437391894e-20)
(96.06346449 -1.034756728 9.160804066e-20)
(94.16599317 -1.014540374 1.293722232e-18)
(91.49749724 -1.044693955 0)
(87.42674052 -1.601324427 1.442138227e-20)
(81.89670477 -3.867852302 1.171678591e-18)
(139.4004265 5.819410884 -5.01678713e-18)
(122.9412835 2.167022415 1.455701816e-18)
(114.373572 0.7302967838 -1.037572173e-18)
(108.9981443 0.07067675649 -1.519760712e-18)
(105.6944834 -0.2361585616 -8.139693538e-20)
(103.4948492 -0.5271163652 -4.887842586e-21)
(102.2901925 -0.5238300187 1.147698284e-20)
(101.198125 -0.5563414992 1.120120564e-21)
(100.6846133 -0.4149762254 0)
(100.3820628 -0.2572278804 4.131378446e-21)
(100.2342638 -0.08649841565 4.085203106e-21)
(100.4439243 -0.1451923179 4.233700147e-21)
(100.3407418 -0.4370784298 6.430949377e-23)
(100.1357942 -0.7351425187 0)
(99.78643466 -1.039669844 2.192881328e-22)
(99.29892488 -1.197190838 -2.255725283e-21)
(98.57523937 -1.509575423 2.412197576e-21)
(97.60592944 -1.88822507 -5.239574109e-21)
(96.35187643 -2.131815952 9.180216397e-20)
(94.57535201 -2.535762327 4.409180167e-19)
(92.21584089 -3.15993821 -2.497390922e-21)
(89.03542134 -4.439529738 1.906312665e-18)
(85.64308022 -6.60718622 1.003466677e-18)
(135.8018406 -10.89174458 3.70779712e-20)
(122.3744489 -5.943644507 1.647233513e-18)
(114.3335539 -3.673240074 -1.030705461e-18)
(109.0012871 -2.443330703 -1.890452732e-18)
(105.6591935 -1.770651435 7.002167716e-19)
(103.3587699 -1.494597396 4.120201316e-20)
(102.1417817 -1.181669322 0)
(101.0059285 -0.9518178366 -1.091546249e-21)
(100.4873935 -0.6741402325 -4.541758836e-21)
(100.1813959 -0.4022493441 5.077109616e-22)
(100.0299078 -0.1336105723 0)
(100.7519068 -0.1798854165 -2.085047476e-21)
(100.6541174 -0.5431567714 2.10414636e-21)
(100.4625564 -0.9212327312 2.053072405e-21)
(100.1396873 -1.320276831 -1.924515864e-21)
(99.65068757 -1.582181115 -2.225624921e-21)
(98.98896397 -2.04390079 0)
(98.12093414 -2.622966964 -8.518172488e-20)
(96.96429543 -3.100684667 8.882332648e-20)
(95.4044833 -3.799838096 1.245393824e-18)
(93.41332964 -4.752844476 -2.622507375e-20)
(90.84459132 -6.26072458 2.395883938e-21)
(88.19037347 -8.128241603 -1.500901706e-18)
(126.3354741 -19.79238714 -1.610807927e-18)
(118.1961497 -11.74225987 1.267041881e-18)
(112.3028435 -7.274134921 4.460153338e-19)
(107.934671 -4.668120861 0)
(105.0179927 -3.205443204 -6.301706627e-19)
(102.8790194 -2.407791621 0)
(101.7579725 -1.813620126 -2.697049215e-20)
(100.6583112 -1.328005888 -1.366340937e-20)
(100.1715926 -0.921314433 1.039983667e-21)
(99.88052678 -0.54142647 -3.279772258e-21)
(99.73436717 -0.1789915729 4.806801332e-22)
(101.1234242 -0.2101623018 7.64001182e-21)
(101.0359271 -0.6350987415 0)
(100.8661924 -1.078748186 -2.04904089e-21)
(100.5847874 -1.567566115 0)
(100.1110657 -1.916382999 0)
(99.55075751 -2.491948971 -6.617706395e-21)
(98.82270704 -3.222249971 1.578726185e-19)
(97.81303567 -3.871006837 8.405223709e-19)
(96.50286628 -4.75844141 0)
(94.85200127 -5.906081806 -1.561685271e-18)
(92.6884669 -7.577452264 -1.502867614e-18)
(90.26433602 -9.46340194 -5.747952122e-19)
(116.5494214 -22.79427185 -4.492758009e-20)
(112.7556461 -14.51818778 1.822560478e-18)
(109.2395157 -9.414666984 0)
(106.1743137 -6.213488193 0)
(103.9245119 -4.320569324 -5.540710062e-19)
(102.119768 -3.153487258 2.149957928e-21)
(101.1743441 -2.34892678 -3.285873805e-20)
(100.1794238 -1.657878083 8.098682826e-21)
(99.75052967 -1.132381471 0)
(99.48827082 -0.6629836642 3.77670049e-21)
(99.35489464 -0.2188164609 0)
(101.5481121 -0.2351546221 7.630212272e-21)
(101.4737544 -0.7115221706 1.204099905e-19)
(101.3296548 -1.207515909 -2.426220438e-19)
(101.0935415 -1.762342157 -5.389089976e-22)
(100.6811513 -2.173987234 -1.924296873e-21)
(100.2223525 -2.827632082 0)
(99.65535409 -3.657473969 -1.223026249e-19)
(98.81151623 -4.407716943 -1.572182449e-18)
(97.76561 -5.397552931 -6.819155028e-19)
(96.45329801 -6.662489488 6.454832229e-19)
(94.7134735 -8.535258236 -1.433591074e-19)
(92.63087189 -10.73527174 -1.073262764e-18)
(103.4425892 -31.74060405 1.20924306e-18)
(107.7725121 -20.94490295 1.587920341e-19)
(107.6330369 -14.72575313 3.156451356e-20)
(106.0428614 -10.122739 1.316802871e-19)
(104.1627395 -6.995478292 8.623084389e-19)
(102.5918019 -5.021432326 -2.649433576e-19)
(101.1868014 -3.66541435 -6.55553917e-20)
(100.4451272 -2.739691666 0)
(99.60647513 -1.905424702 0)
(99.24600865 -1.295484914 1.180307968e-20)
(99.02098571 -0.7593081834 2.176907032e-21)
(98.90548487 -0.2503896425 -7.065641879e-21)
(102.0125174 -0.2525129054 0)
(101.9529009 -0.7652792029 0)
(101.8380924 -1.296632206 0)
(101.6494538 -1.886875091 0)
(101.2969805 -2.358218045 0)
(100.9411571 -3.065150967 0)
(100.5232333 -3.944187293 -7.870919441e-21)
(99.86545003 -4.734085244 0)
(99.07398232 -5.750358588 7.762731368e-19)
(98.10736866 -7.040402302 -3.60472111e-19)
(96.89642164 -8.96321404 4.952144667e-19)
(95.72662569 -11.63222574 2.242743491e-19)
(96.58560651 -20.92726036 1.372771701e-19)
(102.5288639 -17.22951875 0)
(103.7564003 -13.30796225 0)
(103.2855975 -9.783881348 2.792867504e-19)
(102.2374842 -7.135843948 4.092723919e-19)
(101.2060187 -5.330966311 -5.69369879e-20)
(100.1849483 -3.94477092 -9.159192716e-20)
(99.64370851 -2.98412468 -3.450594398e-20)
(98.97371062 -2.06105516 -1.921645219e-20)
(98.68334108 -1.406603948 1.892711531e-20)
(98.49951237 -0.8261346469 0)
(98.40420128 -0.2722548287 1.894455526e-20)
(102.5030653 -0.262296543 0)
(102.4588789 -0.7958068836 0)
(102.3753791 -1.346492357 0)
(102.2353307 -1.946979534 0)
(101.9411437 -2.448842259 0)
(101.6929619 -3.170297122 0)
(101.4174725 -4.028572048 -1.113598071e-19)
(100.9317529 -4.847794155 7.036521925e-19)
(100.3613229 -5.836979706 0)
(99.7059489 -7.022081548 4.441048387e-19)
(99.03863914 -8.646476856 1.978366239e-19)
(98.84730859 -11.10572055 -2.512497967e-19)
(98.0389372 -13.77901882 -2.904925014e-19)
(100.4149548 -13.31392346 -1.352701315e-20)
(101.3042104 -11.28126798 2.582188282e-20)
(101.1749235 -8.890871615 -2.55068593e-21)
(100.5765404 -6.851007941 -3.361604686e-19)
(99.91464656 -5.341045679 -2.462859695e-20)
(99.19152367 -4.023441832 0)
(98.83101361 -3.090440517 0)
(98.31342236 -2.132018828 -3.57719353e-20)
(98.0891451 -1.465345649 1.765204046e-20)
(97.9458703 -0.8625359999 7.398552989e-22)
(97.87046229 -0.2842347888 -1.304817119e-20)
(103.0057516 -0.2649929782 0)
(102.9758781 -0.8040362181 0)
(102.9213616 -1.358741514 0)
(102.8261053 -1.951750671 0)
(102.5855468 -2.463493776 0)
(102.4282038 -3.167223194 0)
(102.2646972 -3.971253454 -7.601359188e-22)
(101.9268508 -4.785208839 -3.866773625e-19)
(101.5227816 -5.717028727 -8.13873015e-19)
(101.0746116 -6.741188971 -9.746427063e-20)
(100.689848 -7.95219924 0)
(97.91245793 -9.073281561 2.211363149e-19)
(99.0197532 -10.55546399 3.499447518e-19)
(99.71397488 -10.48402059 7.256214846e-21)
(99.87127169 -9.374965308 -2.798349211e-19)
(99.64450187 -7.821580232 4.367738444e-19)
(99.22495036 -6.33822037 -2.84777309e-19)
(98.77867425 -5.126861581 0)
(98.27085622 -3.944473752 -3.034937487e-20)
(98.04960732 -3.08331437 4.602058685e-20)
(97.6550716 -2.132189496 1.113439907e-20)
(97.48842077 -1.477675047 1.900691107e-20)
(97.38059074 -0.8715685426 -2.159188353e-20)
(97.32276364 -0.2872398892 0)
(103.5076922 -0.2616427605 0)
(103.4900164 -0.7932262782 0)
(103.4595381 -1.338811289 0)
(103.401706 -1.910183234 0)
(103.2089044 -2.415257986 0)
(103.1226148 -3.079095469 0)
(103.0391251 -3.810743534 0)
(102.8053883 -4.570596353 -1.503805522e-19)
(102.5090032 -5.422192365 4.680589653e-19)
(102.1458226 -6.278433292 1.385387753e-19)
(101.8989119 -7.166315463 0)
(94.05231251 -7.059707166 1.63474865e-19)
(99.56137747 -8.533449639 0)
(99.31514358 -8.490919893 -3.017867781e-19)
(98.94197114 -7.805236348 4.780598778e-19)
(98.54243867 -6.790516041 0)
(98.15902116 -5.749683614 -5.573977069e-21)
(97.81962212 -4.785308596 0)
(97.45484328 -3.764802805 0)
(97.32041849 -2.987232427 0)
(97.02131366 -2.076642181 3.86100518e-20)
(96.90075978 -1.451679928 -3.612120136e-20)
(96.82100386 -0.8574949351 -2.43928583e-21)
(96.77727964 -0.2830019042 2.447551126e-21)
(103.9979552 -0.2534565388 0)
(103.9900998 -0.7672845741 0)
(103.9782156 -1.293348513 0)
(103.9493835 -1.832518314 0)
(103.7957355 -2.317595123 0)
(103.7600038 -2.928591833 0)
(103.7271055 -3.579017297 0)
(103.5509499 -4.248068806 0)
(103.2963791 -4.98443175 -6.103215602e-20)
(102.9136618 -5.691086455 -5.464723051e-20)
(102.5463668 -6.374942023 -1.344925711e-18)
(94.69392342 -6.463348305 -2.516272527e-21)
(99.650736 -7.156634151 1.856521228e-20)
(98.93296767 -7.049683252 0)
(98.26154402 -6.573286882 2.249319213e-19)
(97.7417957 -5.901423658 -9.847386445e-21)
(97.33495776 -5.150368392 0)
(97.02990129 -4.385097195 0)
(96.74044913 -3.5159034 0)
(96.65540175 -2.826802578 0)
(96.42533396 -1.978275471 0)
(96.33875556 -1.394123098 0)
(96.28037132 -0.8260161619 0)
(96.2472286 -0.2736921949 0)
(104.4681874 -0.2416140105 0)
(104.4677855 -0.7300126034 0)
(104.4692516 -1.228947262 0)
(104.4611333 -1.729511581 0)
(104.3370055 -2.185430562 0)
(104.3326398 -2.737936066 0)
(104.3251231 -3.30883324 0)
(104.1728193 -3.884840892 0)
(103.9189503 -4.483443949 0)
(103.4972281 -5.054862286 0)
(102.1288055 -5.500756793 -8.048401268e-21)
(97.44522263 -5.866138031 -2.556605895e-21)
(99.58303369 -6.058326289 5.102636209e-20)
(98.61577487 -5.942722771 2.925113021e-22)
(97.79025932 -5.620764688 0)
(97.16121179 -5.145719506 0)
(96.69774265 -4.575968654 0)
(96.38538022 -3.965794124 0)
(96.12532195 -3.231368601 0)
(96.06191933 -2.629661204 0)
(95.87553205 -1.853240111 0)
(95.81122615 -1.315611629 0)
(95.76700653 -0.781420389 0)
(95.74210833 -0.2595184442 0)
(104.912466 -0.2272438577 0)
(104.9172564 -0.6850171099 0)
(104.9272159 -1.151796531 0)
(104.9322349 -1.610947818 0)
(104.8288609 -2.032453115 0)
(104.8399831 -2.5259005 0)
(104.8384228 -3.02560599 0)
(104.6887391 -3.514308388 0)
(104.4127979 -4.000736316 0)
(103.9527074 -4.448399006 0)
(102.127862 -4.736470549 0)
(98.36104294 -5.069169837 0)
(99.57648653 -5.171005197 0)
(98.42840642 -5.083648588 0)
(97.46090763 -4.846103197 0)
(96.72566762 -4.489514003 0)
(96.19865565 -4.047996039 0)
(95.85730729 -3.555946006 0)
(95.59981633 -2.936264259 0)
(95.53815079 -2.415472477 0)
(95.37548121 -1.714098613 0)
(95.3236144 -1.224712446 0)
(95.28740451 -0.7290056466 0)
(95.26762019 -0.2425708908 0)
(105.3270189 -0.2113695157 0)
(105.3349869 -0.6355510095 0)
(105.349228 -1.067386397 0)
(105.3608842 -1.484787096 0)
(105.2712373 -1.869724143 0)
(105.2856789 -2.307094625 0)
(105.2758553 -2.743527938 0)
(105.1169396 -3.155729083 0)
(104.808103 -3.553423212 0)
(104.2992963 -3.907954683 0)
(102.1615748 -4.115576507 0)
(98.81500249 -4.403390161 0)
(99.57369955 -4.451181944 -2.988144977e-35)
(98.29020751 -4.38035391 0)
(97.21271726 -4.197992942 0)
(96.39011897 -3.922541555 0)
(95.80186586 -3.573683368 0)
(95.42211112 -3.172371185 0)
(95.15133336 -2.647875392 0)
(95.07852683 -2.198401167 0)
(94.92494847 -1.570144953 0)
(94.87774189 -1.128131285 0)
(94.84460691 -0.6727966454 0)
(94.82755265 -0.2243024452 0)
(105.7098909 -0.1948435407 0)
(105.7193732 -0.5843122474 0)
(105.734541 -0.9802665779 0)
(105.7476236 -1.357091251 0)
(105.6663332 -1.705521543 0)
(105.6754324 -2.09157432 0)
(105.6479262 -2.471018984 0)
(105.4735318 -2.819747108 0)
(105.1282671 -3.147449445 0)
(104.5689956 -3.432918957 0)
(102.1938686 -3.589744618 0)
(99.11386523 -3.841393846 0)
(99.56147542 -3.857220837 0)
(98.18075388 -3.796457921 0)
(97.01952552 -3.651662 0)
(96.12567555 -3.433521045 0)
(95.48175964 -3.153016804 0)
(95.06146468 -2.822941558 0)
(94.76739416 -2.376646599 0)
(94.67609082 -1.987894921 0)
(94.52146934 -1.427974385 0)
(94.47315343 -1.030919596 0)
(94.43942523 -0.6158420542 0)
(94.42322498 -0.2057244742 0)
(106.0606278 -0.178327038 0)
(106.0703222 -0.5333616095 0)
(106.0839356 -0.893910685 0)
(106.0945665 -1.23233917 0)
(106.0174722 -1.545706418 0)
(106.0156021 -1.885657865 0)
(105.965677 -2.214016539 0)
(105.7716097 -2.511246252 0)
(105.3907338 -2.783581194 0)
(104.7830761 -3.016917188 0)
(102.2324448 -3.139720361 0)
(99.31281533 -3.363255244 0)
(99.54305983 -3.359586309 -4.02272306e-35)
(98.09117169 -3.306108462 0)
(96.86510031 -3.188159201 0)
(95.91312498 -3.011742394 0)
(95.21998959 -2.782645396 0)
(94.76030081 -2.508248602 0)
(94.43764842 -2.126901684 0)
(94.32374682 -1.789617265 0)
(94.16138285 -1.292055232 0)
(94.10796098 -0.9366273887 0)
(94.07109393 -0.5603073243 0)
(94.05435221 -0.1875469653 0)
(106.3799224 -0.1623099374 0)
(106.3888436 -0.4841883711 0)
(106.3991604 -0.8107963358 0)
(106.4046334 -1.113650838 0)
(106.3286652 -1.394178708 0)
(106.3123351 -1.693082828 0)
(106.2380363 -1.977233401 0)
(106.0223134 -2.231741894 0)
(105.608485 -2.46011817 0)
(104.9556738 -2.653363819 0)
(102.2812111 -2.753091329 0)
(99.44378202 -2.954705665 0)
(99.52077321 -2.938639172 0)
(98.01618702 -2.890859094 0)
(96.73900876 -2.792908874 0)
(95.73935166 -2.647753708 0)
(95.00320675 -2.458074937 0)
(94.50647799 -2.227667071 0)
(94.15355146 -1.900291542 0)
(94.0149244 -1.606708842 0)
(93.84057719 -1.165190997 0)
(93.77945879 -0.8475816338 0)
(93.73778383 -0.5076446887 0)
(93.71950379 -0.1702515198 0)
(106.669249 -0.1471415102 0)
(106.6766763 -0.4378265624 0)
(106.6825322 -0.7326082682 0)
(106.6810711 -1.003067435 0)
(106.604029 -1.253397337 0)
(106.5713096 -1.51612247 0)
(106.4720849 -1.762467983 0)
(106.2345566 -1.981239939 0)
(105.7912192 -2.174453434 0)
(105.0968328 -2.33635584 0)
(102.3408321 -2.420101359 0)
(99.52759394 -2.60467127 0)
(99.49605266 -2.580457662 1.366658679e-35)
(97.95239849 -2.537296663 0)
(96.63431756 -2.454733712 0)
(95.59523862 -2.333604468 0)
(94.82168798 -2.174708968 0)
(94.29078952 -1.979481999 0)
(93.90765531 -1.697088256 0)
(93.74371654 -1.440618131 0)
(93.55489517 -1.048949593 0)
(93.48452873 -0.7652023896 0)
(93.43702853 -0.4587708894 0)
(93.41652822 -0.1541483465 0)
(106.9305906 -0.1330574662 0)
(106.9360207 -0.3949553806 0)
(106.9366949 -0.6604238118 0)
(106.927227 -0.9017976104 0)
(106.8476145 -1.124726515 0)
(106.7976713 -1.355809101 0)
(106.6739446 -1.569966347 0)
(106.4154508 -1.758715276 0)
(105.9461853 -1.923567692 0)
(105.2138378 -2.060581651 0)
(102.4100747 -2.133041775 0)
(99.57837404 -2.304366267 0)
(99.46979266 -2.274665327 0)
(97.89744389 -2.235325097 0)
(96.546216 -2.164900402 0)
(95.47426626 -2.062634799 0)
(94.6681982 -1.928169766 0)
(94.10612201 -1.761400035 0)
(93.69378473 -1.516639914 0)
(93.50489083 -1.291687657 0)
(93.30031662 -0.9440322676 0)
(93.21988897 -0.6902545367 0)
(93.16602131 -0.4142058297 0)
(93.1428624 -0.1394189346 0)
(107.1662604 -0.1202026967 0)
(107.1693616 -0.3559772984 0)
(107.1644653 -0.5948617198 0)
(107.1464306 -0.8104526277 0)
(107.063216 -1.008802548 0)
(106.9959411 -1.212378178 0)
(106.8487255 -1.39919167 0)
(106.5706511 -1.562645149 0)
(106.0787883 -1.704423538 0)
(105.3120632 -1.821437016 0)
(102.4869848 -1.885881588 0)
(99.60590705 -2.04694374 0)
(99.44256094 -2.013385897 0)
(97.84960904 -1.977229991 0)
(96.47125753 -1.916559642 0)
(95.37166982 -1.82935225 0)
(94.53727555 -1.714524114 0)
(93.94691461 -1.570974938 0)
(93.5068457 -1.357818702 0)
(93.29389803 -1.159614142 0)
(93.07304128 -0.8505695604 0)
(92.98224318 -0.6230415946 0)
(92.92179788 -0.3741805808 0)
(92.89572249 -0.1261497098 0)
(107.3787741 -0.1086535951 0)
(107.3793421 -0.321088905 0)
(107.3687213 -0.5362051125 0)
(107.3419138 -0.729222611 0)
(107.2544022 -0.9057282556 0)
(107.1701403 -1.08553077 0)
(107.0007651 -1.249160909 0)
(106.7047231 -1.391267466 0)
(106.1931672 -1.514128179 0)
(105.3955643 -1.614919452 0)
(102.5695354 -1.673660911 0)
(99.61711558 -1.826761166 0)
(99.41468705 -1.790470796 0)
(97.80758179 -1.756961299 0)
(96.40686649 -1.704223347 0)
(95.28384271 -1.629176417 0)
(94.42467482 -1.530273922 0)
(93.80870466 -1.40578385 0)
(93.34254962 -1.219229085 0)
(93.10672185 -1.043687931 0)
(92.86952547 -0.7683252957 0)
(92.7683738 -0.5635550644 0)
(92.70135717 -0.3387274922 0)
(92.67223333 -0.1143609797 0)
(107.5707016 -0.09844004896 0)
(107.5686233 -0.2903481335 0)
(107.5522805 -0.484514596 0)
(107.5167268 -0.6580401265 0)
(107.4244455 -0.8153020007 0)
(107.3237974 -0.974696308 0)
(107.1337141 -1.118722574 0)
(106.8213693 -1.242833259 0)
(106.2925693 -1.350133751 0)
(105.4674559 -1.437737409 0)
(102.6557086 -1.492336897 0)
(99.61712897 -1.639271328 0)
(99.38638237 -1.601076511 0)
(97.7703214 -1.569751023 0)
(96.35105887 -1.523495684 0)
(95.20799241 -1.458330119 0)
(94.32704209 -1.372403538 0)
(93.68786804 -1.26358253 0)
(93.19729455 -1.099425262 0)
(92.9398524 -0.9430217278 0)
(92.68652693 -0.696870393 0)
(92.57523482 -0.511600617 0)
(92.50178377 -0.3077578101 0)
(92.46956433 -0.1040323622 0)
(107.7446724 -0.0895595271 0)
(107.7398908 -0.2637196682 0)
(107.7179201 -0.4397052838 0)
(107.6737933 -0.5966676682 0)
(107.5763559 -0.7371475553 0)
(107.4600479 -0.879186289 0)
(107.2505921 -1.006565553 0)
(106.9236871 -1.115719318 0)
(106.3796606 -1.210230324 0)
(105.5302012 -1.287132905 0)
(102.7437552 -1.338593105 0)
(99.60967926 -1.480829647 0)
(99.35775179 -1.441329657 0)
(97.73696151 -1.411755433 0)
(96.30224364 -1.37079023 0)
(95.14188399 -1.313665303 0)
(94.24165081 -1.238324145 0)
(93.58133549 -1.142366435 0)
(93.06801168 -0.9970372184 0)
(92.7901861 -0.8566754758 0)
(92.52102411 -0.6356672872 0)
(92.39991426 -0.466877725 0)
(92.32023116 -0.2811102208 0)
(92.28491664 -0.09511790776 0)
(107.9030761 -0.08199614222 0)
(107.8955841 -0.2411246174 0)
(107.868135 -0.4016084917 0)
(107.8156948 -0.5448443972 0)
(107.7128904 -0.6707976074 0)
(107.5817252 -0.7982729715 0)
(107.3540922 -0.9111732905 0)
(107.0141909 -1.008541104 0)
(106.4566488 -1.092503263 0)
(105.5857145 -1.160727068 0)
(102.8322704 -1.209726326 0)
(99.59757244 -1.348370734 0)
(99.32880975 -1.308104763 -1.98470148e-36)
(97.70675681 -1.279874729 0)
(96.25911243 -1.243188912 0)
(95.08369336 -1.192577247 0)
(94.16627723 -1.125850921 0)
(93.48666496 -1.040692565 0)
(92.95192033 -0.9109847502 0)
(92.65494702 -0.7837080824 0)
(92.37039902 -0.5842050467 0)
(92.23984237 -0.4290414072 0)
(92.15416102 -0.2586005676 0)
(92.11579412 -0.08756535478 0)
(108.0489605 -0.07570880188 0)
(108.0387218 -0.2224339543 0)
(108.0059163 -0.370007368 0)
(107.9454313 -0.5021169305 0)
(107.8366322 -0.6157715089 0)
(107.691396 -0.7311354339 0)
(107.4470785 -0.8318988048 0)
(107.0949398 -0.9198830256 0)
(106.5253823 -0.9952745843 0)
(105.6354979 -1.056518977 0)
(102.9201353 -1.103555498 0)
(99.58307171 -1.239404657 0)
(99.29956182 -1.19886409 0)
(97.67905406 -1.17162213 0)
(96.22055928 -1.138336148 0)
(95.03188829 -1.092924285 0)
(94.09905826 -1.033101479 0)
(93.40192949 -0.9568391046 0)
(92.84652246 -0.8400721416 0)
(92.53163893 -0.7232557535 0)
(92.23167297 -0.541835988 0)
(92.09203636 -0.3977340578 0)
(92.00054427 -0.2400130739 0)
(91.95912621 -0.08130323194 0)
(108.1825903 -0.07071220241 0)
(108.1697239 -0.2076230246 0)
(108.1317672 -0.3447343512 0)
(108.0635699 -0.4686424322 0)
(107.9499475 -0.5714954968 0)
(107.791354 -0.6770017632 0)
(107.5319577 -0.7689586692 0)
(107.1679074 -0.8483554486 0)
(106.587504 -0.9170920297 0)
(105.6808011 -0.9728441296 0)
(103.0064624 -1.01831365 0)
(99.56808978 -1.151977162 0)
(99.27002532 -1.111569356 0)
(97.65327112 -1.085002262 0)
(96.18561212 -1.054332464 0)
(94.9851188 -1.012956165 0)
(94.03828181 -0.9584908849 0)
(93.32489 -0.8887166289 0)
(92.74996171 -0.7827703021 0)
(92.41792813 -0.6743290117 0)
(92.10433426 -0.5085608823 0)
(91.95600089 -0.372662227 0)
(91.85894846 -0.2252548786 0)
(91.81464364 -0.0763251994 0)
(108.3143187 -0.06682883083 0)
(108.2984413 -0.1963337841 0)
(108.2551435 -0.3254500024 0)
(108.1785776 -0.4420441782 0)
(108.0556834 -0.5377171376 0)
(107.8836098 -0.6356747421 0)
(107.6098989 -0.7214262862 0)
(107.235008 -0.793203214 0)
(106.6444755 -0.8568164249 0)
(105.7226934 -0.908379122 0)
(103.0906338 -0.952663448 0)
(99.55429677 -1.084578554 0)
(99.24020327 -1.044663856 0)
(97.62888299 -1.018471135 0)
(96.15340112 -0.9896977318 0)
(94.94218676 -0.951307016 0)
(93.9824324 -0.9008467325 0)
(93.25370247 -0.8360249963 0)
(92.66039299 -0.7385100356 0)
(92.31191228 -0.6370958837 0)
(91.97991934 -0.4817924146 0)
(91.82229549 -0.3534072119 0)
(91.71951815 -0.2139009444 0)
(91.67191665 -0.07242211029 0)
(108.4153363 -0.06456869723 0)
(108.3975089 -0.1894811491 0)
(108.3500863 -0.3132726597 0)
(108.2680701 -0.427930422 0)
(108.1534435 -0.5136762771 0)
(107.9698987 -0.6064274037 0)
(107.6826169 -0.6882375522 0)
(107.2976564 -0.7536864978 0)
(106.6975705 -0.8135468925 0)
(105.7621328 -0.8620969533 0)
(103.1723339 -0.9056132553 0)
(99.54317138 -1.036051989 0)
(99.21007351 -0.9969846966 0)
(97.60538912 -0.9708635734 0)
(96.12311832 -0.943299226 0)
(94.90200544 -0.9069199872 0)
(93.9301846 -0.859226691 0)
(93.18695377 -0.7978809471 0)
(92.57609837 -0.706709956 0)
(92.21207876 -0.6105571536 0)
(91.88188579 -0.4672171444 0)
(91.71792756 -0.3410606741 0)
(91.61073417 -0.2069148238 0)
(91.56107187 -0.07015157969 0)
(108.6046395 -0.06211285583 0)
(108.5826726 -0.1832752797 0)
(108.5273652 -0.3027771999 0)
(108.4311713 -0.4108228143 0)
(108.2435306 -0.5001176934 0)
(108.047981 -0.5894773496 0)
(107.7487306 -0.6695853478 0)
(107.3571377 -0.7291848644 0)
(106.7479015 -0.7865584411 0)
(105.8000072 -0.833238008 0)