/*--------------------------------*- C++ -*----------------------------------*\
| =========                 |                                                 |
| \\      /  F ield         | OpenFOAM: The Open Source CFD Toolbox           |
|  \\    /   O peration     | Version:  v1912                                 |
|   \\  /    A nd           | Website:  www.openfoam.com                      |
|    \\/     M anipulation  |                                                 |
\*---------------------------------------------------------------------------*/
FoamFile
{
    version     2.0;
    format      ascii;
    class       volVectorField;
    location    "2.72";
    object      U;
}
// * * * * * * * * * * * * * * * * * * * * * * * * * * * * * * * * * * * * * //

dimensions      [0 1 -1 0 0 0 0];


internalField   nonuniform List<vector> 
12556
(
(99.99844715 0.003708254939 -4.221510291e-21)
(99.99799722 0.01234095114 3.244317385e-25)
(99.99673891 0.02557593615 -4.211974827e-21)
(99.99465511 0.04639843556 -4.182547297e-21)
(99.99978388 0.03613647628 4.031838634e-21)
(99.99736605 0.05867530233 0)
(99.9959979 0.09339407656 0)
(99.9955992 0.1408042005 -7.017681343e-21)
(99.99441609 0.2029654973 8.147576997e-22)
(99.99365244 0.2777922255 -5.25090798e-21)
(99.99396336 0.3561799306 7.110344547e-22)
(99.99518419 0.4220623783 0)
(99.99862941 0.45721682 0)
(100.0036227 0.4483127738 1.343247621e-21)
(100.0053735 0.401107631 -1.869792511e-21)
(100.0061866 0.3316235021 1.025017002e-21)
(100.0059124 0.2575202757 0)
(100.0052561 0.1904280691 1.614590453e-21)
(100.0048309 0.1337619009 6.61803814e-21)
(100.0025851 0.09297027503 -1.83892127e-21)
(100.0100595 0.1046812435 -1.591658616e-20)
(100.0067522 0.06386220967 0)
(100.004886 0.0337388086 -1.990621144e-21)
(100.0046553 0.01055202448 -1.400806478e-20)
(99.98624416 0.009808139496 1.691773975e-20)
(99.98105221 0.03309850797 4.22366732e-21)
(99.96937893 0.06934109899 2.948804156e-20)
(99.94943875 0.1267420708 -1.26290979e-20)
(99.9530177 0.1701079108 4.062796225e-21)
(99.92262415 0.2792537311 -5.149038775e-23)
(99.88323059 0.4449035146 0)
(99.86229326 0.5933007008 -7.092220886e-21)
(99.81937396 0.8651438335 -6.535882638e-21)
(99.78706362 1.202368874 -1.126818082e-20)
(99.78437475 1.568636724 -4.588424468e-21)
(99.82814158 1.886111505 -8.360512372e-21)
(99.91773707 2.068569334 6.279777401e-23)
(100.0233752 2.049439172 4.652056433e-22)
(100.110014 1.847048613 -6.126992858e-22)
(100.1545922 1.534838279 5.27418221e-21)
(100.1582551 1.191010377 -1.008154e-20)
(100.1354628 0.8827494013 0)
(100.1398406 0.6549455918 -2.795795622e-20)
(100.0983217 0.4415049909 5.372312368e-20)
(100.0948456 0.2985042894 1.541005078e-20)
(100.0648082 0.1814393295 3.165124518e-20)
(100.0478075 0.09628227675 -3.174500247e-20)
(100.0412837 0.03018302702 1.599908788e-20)
(99.96343979 0.012443908 -1.68800504e-20)
(99.9488021 0.04306784832 -3.390471933e-20)
(99.91704594 0.09294853298 -7.595903068e-20)
(99.8640253 0.1744888906 1.010460579e-19)
(99.83842059 0.2660416147 -8.347307615e-21)
(99.74748429 0.4502153416 -8.101358616e-21)
(99.62615815 0.7327008663 -1.405188869e-20)
(99.55900829 1.039600528 0)
(99.42108335 1.555812408 2.711797202e-20)
(99.31459141 2.216159506 -1.490641292e-20)
(99.31707391 2.953437771 0)
(99.48179285 3.643696316 1.629726441e-20)
(99.82502595 4.061699271 -1.050407357e-19)
(100.2289588 4.029966024 0)
(100.5249319 3.585168984 -8.179598152e-20)
(100.6480253 2.922960983 6.293484501e-21)
(100.6369427 2.234250754 -1.081118361e-20)
(100.5400111 1.615186533 -2.509216273e-20)
(100.4624111 1.115669259 -1.679110162e-19)
(100.3337915 0.7411589208 -3.708476397e-20)
(100.2609724 0.4504346755 -1.576465507e-20)
(100.1821921 0.2710896698 3.581203849e-20)
(100.1349179 0.1440777612 -4.018849154e-21)
(100.1141708 0.04489978069 0)
(99.93753516 0.009579511494 -8.513421976e-21)
(99.90953959 0.03588005819 5.958554784e-20)
(99.84975869 0.08612087096 -1.70490659e-20)
(99.75214165 0.1724576114 0)
(99.6746895 0.3000373594 0)
(99.497435 0.5349150893 -6.562935203e-20)
(99.25104826 0.9082068898 -1.312311815e-19)
(99.05637461 1.360309715 3.083434807e-20)
(98.73573962 2.108657771 1.194534423e-19)
(98.4757945 3.107986259 4.335350916e-19)
(98.40433038 4.360034131 1.868515875e-19)
(98.74726055 5.641920989 -5.98296145e-20)
(99.60262707 6.46007412 4.325472065e-20)
(100.6331921 6.375804816 0)
(101.3232997 5.501603288 -1.219329033e-19)
(101.531925 4.311400983 7.450270494e-20)
(101.4292908 3.167750737 1.886138367e-19)
(101.1988088 2.233480395 0)
(100.957216 1.46505889 6.080377505e-20)
(100.6882353 0.9497645045 -4.680583406e-20)
(100.4924984 0.5329350268 -4.032110823e-20)
(100.3462091 0.31734098 2.038430957e-20)
(100.2549444 0.166143638 -4.087243357e-21)
(100.2132668 0.05124834924 0)
(99.92169684 -4.489081448e-05 0)
(99.87822145 0.007301327969 0)
(99.78621364 0.04161696745 8.618499382e-21)
(99.63514448 0.111475064 1.300413949e-20)
(99.49438781 0.2564516559 2.150696323e-20)
(99.20404416 0.5051020291 0)
(98.79734192 0.9053973583 0)
(98.40471483 1.465771634 6.54903462e-20)
(97.82359873 2.386347114 7.19766713e-19)
(97.22035258 3.765392936 0)
(96.85590538 5.71491872 -8.24226871e-20)
(97.32801264 8.043722824 -2.142201833e-20)
(99.17331252 9.715285278 4.882084168e-20)
(101.5074716 9.443129295 -9.387953094e-20)
(102.8299392 7.670219592 9.688634803e-21)
(103.0222128 5.603795463 3.938486148e-19)
(102.6306547 3.898444702 1.214755144e-19)
(102.09242 2.623147489 -4.68282591e-22)
(101.5942563 1.637299526 -9.99700576e-20)
(101.1300399 1.030250683 8.29926286e-21)
(100.7601933 0.5236639005 0)
(100.5291889 0.3057923853 4.160048876e-21)
(100.3845057 0.1548488844 -3.124622289e-21)
(100.317456 0.04692715547 -1.035671462e-21)
(99.93052116 -0.01683247669 0)
(99.87129146 -0.04400742316 0)
(99.74751651 -0.0451946943 -1.7256299e-20)
(99.54048617 -0.01182685798 3.518429208e-20)
(99.3282696 0.1231476981 0)
(98.91515543 0.3369520841 0)
(98.32218228 0.7026541926 2.751991306e-20)
(97.7052917 1.282026357 3.1910666e-19)
(96.74514997 2.245313844 6.428432598e-19)
(95.53347177 3.863667543 4.59866501e-22)
(94.33026007 6.596031701 2.179795235e-19)
(94.29924208 10.88762335 0)
(98.11237577 14.9302831 -1.407300467e-19)
(103.5912313 13.84581484 2.014321254e-20)
(105.6625969 9.907982164 4.545291779e-19)
(105.3364986 6.549113559 3.553846689e-20)
(104.2629178 4.227356692 4.354181721e-20)
(103.1911698 2.69148897 -1.372783844e-19)
(102.3092231 1.559830616 2.56960999e-20)
(101.6077584 0.9399003452 -1.713863368e-20)
(101.0278048 0.4083211852 0)
(100.6997111 0.2267427787 0)
(100.4974879 0.1055004276 -1.048452093e-21)
(100.4032129 0.03066193798 -3.141721447e-21)
(99.97800389 -0.04033714926 4.223838717e-21)
(99.90471557 -0.1161310693 -4.255713491e-21)
(99.7538284 -0.1710150066 8.684807048e-21)
(99.49818656 -0.197116252 -3.175216494e-20)
(99.20764272 -0.1005141709 6.794277574e-23)
(98.68536795 0.0302458584 2.720003958e-20)
(97.92322859 0.2915969836 -5.639391276e-20)
(97.08672695 0.7684692854 -6.093472383e-19)
(95.69326461 1.58769193 8.373236716e-19)
(93.67208921 3.053472154 0)
(90.76730225 5.834915898 0)
(87.16361572 12.51362674 3.796740907e-19)
(94.04394061 24.97453917 -5.817633048e-19)
(109.7951308 20.0616886 -3.86013082e-19)
(110.6392557 11.36561026 0)
(108.4992064 6.529301006 1.839120309e-19)
(106.2110477 3.844166436 6.949621092e-19)
(104.3779263 2.281833811 3.17232678e-19)
(102.9925662 1.174487943 0)
(102.0534023 0.6460197011 9.306082293e-21)
(101.246951 0.186484591 2.750019695e-21)
(100.8229101 0.07531851002 -3.252907633e-21)
(100.567261 0.01792271961 -3.696686015e-21)
(100.4466147 0.002551914813 8.911901858e-21)
(100.0761036 -0.06916519223 -4.224285361e-21)
(99.99230738 -0.2045813148 4.257242949e-21)
(99.82211034 -0.3269996898 -5.405243181e-21)
(99.53205801 -0.4302008245 -3.637911219e-21)
(99.17576111 -0.3991609278 1.552276667e-20)
(98.57113436 -0.3905082006 9.255219254e-21)
(97.69976252 -0.3076111338 -8.764715587e-20)
(96.68284513 -0.02992560932 6.392766111e-19)
(94.96632287 0.4146711096 0)
(92.33774319 1.179381813 -3.99131588e-19)
(87.99799452 2.350199488 9.73769145e-19)
(79.61791766 4.495520922 2.464217719e-18)
(125.2856795 22.79713906 8.549473751e-19)
(117.5003128 9.36702315 -9.656854468e-22)
(111.9266025 4.726706052 2.444035517e-19)
(108.0667712 2.50980119 0)
(105.4317606 1.3224649 6.738195895e-19)
(103.520346 0.4779692168 -4.940767089e-21)
(102.3746954 0.162227174 2.098784835e-20)
(101.3649475 -0.1350927613 -3.345918588e-21)
(100.8647023 -0.1378172196 2.737335163e-21)
(100.5676701 -0.1023584995 -5.120861791e-22)
(100.4250179 -0.03621997358 -8.358746321e-21)
(100.2334448 -0.1012073082 -2.039074062e-21)
(100.1439752 -0.3028340276 -1.532539615e-21)
(99.96451878 -0.5007310843 -5.252640376e-22)
(99.65820532 -0.6912537563 1.592426204e-21)
(99.25485877 -0.7447378412 -2.984979895e-23)
(98.61111175 -0.8802822724 0)
(97.70641058 -1.008604336 4.17536956e-20)
(96.5968708 -0.9909945226 8.297479334e-20)
(94.78041311 -1.01306781 3.46941544e-22)
(92.1154786 -1.093240956 -3.763540109e-19)
(88.19262069 -1.680632412 -1.348599475e-20)
(83.14883701 -3.878181571 1.115876838e-18)
(138.0634101 6.543861176 -2.426578517e-18)
(122.1789935 2.570674855 3.075877184e-18)
(114.1928848 1.020733141 -2.560035751e-19)
(109.2456373 0.2796791037 -6.435054606e-19)
(106.0599354 -0.09681466218 8.659138549e-20)
(103.7664098 -0.4478476465 -5.031409074e-21)
(102.4869512 -0.4667353707 1.177010743e-20)
(101.3427827 -0.5242103717 1.146890858e-21)
(100.7981255 -0.3929519793 0)
(100.4769534 -0.2449447882 4.212482187e-21)
(100.3204075 -0.08238489055 4.163495358e-21)
(100.4541099 -0.133954847 4.018713065e-21)
(100.3643062 -0.4031721136 6.035513519e-23)
(100.1865151 -0.6777354545 0)
(99.88346872 -0.9577376676 2.086785992e-22)
(99.45656068 -1.104504387 -2.134454319e-21)
(98.81944152 -1.386532651 2.276658434e-21)
(97.9524817 -1.722019076 3.852011746e-20)
(96.85389015 -1.958032702 -6.95040141e-19)
(95.14112401 -2.383718378 5.512861065e-19)
(92.77329158 -3.041706301 0)
(89.70568083 -4.285853112 1.84715529e-18)
(86.5988436 -6.284387608 7.021187386e-19)
(135.0140978 -9.896502727 2.188904149e-18)
(121.8099106 -5.348442331 -1.58391246e-18)
(114.2299168 -3.374446409 -2.722822199e-19)
(109.2906643 -2.326094477 0)
(106.0524098 -1.727180679 9.18789088e-20)
(103.6451537 -1.472678157 4.246379065e-20)
(102.3471739 -1.159784808 0)
(101.157946 -0.9380216678 -1.118661042e-21)
(100.6076709 -0.6636943276 -4.63976336e-21)
(100.2827014 -0.3960646047 5.184683167e-22)
(100.1221406 -0.1314365588 0)
(100.7372343 -0.1649921909 -1.979465285e-21)
(100.6520839 -0.4980084877 1.997088593e-21)
(100.4858549 -0.8439414708 1.949172909e-21)
(100.2057655 -1.208106274 -1.823888665e-21)
(99.77590913 -1.446800986 -2.106544135e-21)
(99.18592742 -1.85963118 0)
(98.40943371 -2.372898121 -2.274426932e-21)
(97.39378121 -2.822069657 -3.87817276e-20)
(95.87824195 -3.537779495 0)
(93.86339555 -4.523739456 0)
(91.36513587 -5.971937095 8.19100443e-19)
(88.89764505 -7.667550725 2.061856149e-19)
(125.9317706 -18.83757982 1.611567557e-18)
(117.8496803 -11.1142462 5.702386009e-19)
(112.2833556 -7.025661779 0)
(108.2315557 -4.653654435 -1.186697094e-18)
(105.3970223 -3.256374168 -4.201934267e-20)
(103.1521197 -2.439251696 0)
(101.9560558 -1.825565924 -2.772858943e-20)
(100.8083835 -1.331706607 -1.39699471e-20)
(100.2926912 -0.9216769242 1.061617693e-21)
(99.98371884 -0.5409895423 -3.345461183e-21)
(99.82882574 -0.1786656232 4.904423385e-22)
(101.0772635 -0.1922170457 7.264125025e-21)
(101.0010764 -0.5806504102 0)
(100.8538066 -0.9854263578 -1.945354921e-21)
(100.6097986 -1.430424811 0)
(100.191058 -1.746186251 0)
(99.68421738 -2.260819804 -6.266679441e-21)
(99.03219239 -2.910075224 -2.139586502e-21)
(98.14433579 -3.519960432 -5.222769598e-19)
(96.86346761 -4.428003348 7.678283207e-21)
(95.17822448 -5.615708347 2.128861026e-20)
(93.04871494 -7.222171802 1.459984299e-18)
(90.75909337 -8.939626933 -6.45778476e-19)
(116.3842069 -21.98698421 0)
(112.5709178 -13.96559654 1.392668217e-18)
(109.2683524 -9.250398882 0)
(106.4396403 -6.288555929 -6.678391889e-19)
(104.2514633 -4.4397586 -3.434302232e-19)
(102.3590818 -3.221897511 2.206572964e-21)
(101.3527375 -2.385127539 -3.36969463e-20)
(100.320236 -1.674784427 8.28208237e-21)
(99.86744342 -1.140917444 0)
(99.58941951 -0.6670572356 3.853200731e-21)
(99.44818698 -0.2199606874 0)
(101.4652449 -0.2148784446 7.25482934e-21)
(101.4006119 -0.64995208 1.145409849e-19)
(101.2758273 -1.102206839 -2.307895282e-19)
(101.0713545 -1.60737699 -5.615479047e-22)
(100.7049173 -1.979618917 -1.829163057e-21)
(100.2831121 -2.565980573 0)
(99.77379025 -3.306390029 1.303970508e-19)
(99.03252174 -4.018927112 -6.732490629e-19)
(98.00543058 -5.038295873 -6.016811197e-19)
(96.65527581 -6.353795475 0)
(94.91867161 -8.16983514 1.564492686e-19)
(92.90928517 -10.19714235 1.03887629e-18)
(103.5823797 -31.1061216 3.798527919e-19)
(107.7055524 -20.32296862 -1.383271345e-19)
(107.5292338 -14.29609122 -3.076589765e-19)
(106.0726839 -10.03733414 4.330538567e-19)
(104.3717577 -7.121341443 -5.407894636e-19)
(102.8498498 -5.169820931 6.744756294e-20)
(101.383986 -3.748831931 -6.70590031e-20)
(100.597758 -2.78782514 0)
(99.73431524 -1.92998758 0)
(99.35557301 -1.30852395 1.201917813e-20)
(99.11737848 -0.7661057212 2.21824901e-21)
(98.99519446 -0.2524399706 -7.19312577e-21)
(101.8894174 -0.2308144189 0)
(101.837835 -0.6993353118 0)
(101.7389499 -1.184193701 0)
(101.5762215 -1.722589282 0)
(101.2612773 -2.149329046 0)
(100.9273821 -2.786490207 0)
(100.5522938 -3.57826519 -1.130272958e-19)
(99.97710508 -4.334083969 4.7161256e-19)
(99.20023387 -5.391004043 1.281588102e-19)
(98.20091115 -6.744657134 -6.257175104e-20)
(96.98201725 -8.648204904 1.404406166e-19)
(95.8029531 -11.26731563 1.194398009e-19)
(96.60415865 -20.43050016 1.262973667e-19)
(102.4775941 -16.72839321 -2.762025183e-19)
(103.6664779 -12.97530114 -1.845131334e-19)
(103.3001788 -9.745111343 -1.653041903e-20)
(102.3912169 -7.273042829 4.567470681e-19)
(101.397237 -5.470045607 -2.828912404e-20)
(100.341489 -4.025189062 -9.317570536e-20)
(99.77041662 -3.032517974 -3.513595948e-20)
(99.08827648 -2.086642951 -1.955648657e-20)
(98.78444331 -1.420720393 1.923865587e-20)
(98.58994359 -0.8338122088 0)
(98.48914269 -0.2745989714 1.926847374e-20)
(102.3378553 -0.2400336303 0)
(102.3000623 -0.7281424843 0)
(102.229148 -1.231411814 0)
(102.1095591 -1.780647471 0)
(101.845244 -2.23617271 0)
(101.607107 -2.889426804 0)
(101.3554263 -3.670219792 9.066005406e-20)
(100.9485593 -4.441441644 -1.050506044e-19)
(100.40499 -5.460239924 -1.083531921e-19)
(99.73363228 -6.712955484 2.555155359e-20)
(99.06299717 -8.367404934 -8.707422232e-21)
(98.86727247 -10.77005613 2.975306445e-19)
(98.02205301 -13.36189806 0)
(100.3377302 -12.90408088 0)
(101.2196891 -11.01763585 0)
(101.1840266 -8.862561107 1.599877358e-19)
(100.6917605 -6.96108969 3.637286262e-19)
(100.0586305 -5.446479001 -2.483666921e-20)
(99.31672478 -4.087796896 0)
(98.9358134 -3.131267787 0)
(98.4164437 -2.153542776 -3.629922635e-20)
(98.18232079 -1.477794926 1.791223046e-20)
(98.03052554 -0.8694598597 7.515307357e-22)
(97.95063381 -0.2863338735 -1.326431966e-20)
(102.7981002 -0.2429098263 0)
(102.7732297 -0.73700116 0)
(102.7284914 -1.244985065 0)
(102.6490485 -1.788899149 0)
(102.4321726 -2.254910541 0)
(102.2770379 -2.895963949 0)
(102.1257446 -3.63543366 3.56128589e-22)
(101.8610916 -4.384442794 3.578698998e-19)
(101.4994876 -5.31626067 0)
(101.055923 -6.387182845 7.178063186e-21)
(100.6774581 -7.644748999 -4.431491027e-19)
(98.3457534 -8.871326534 5.137627148e-20)
(98.92629721 -10.21637882 -5.731577181e-20)
(99.60509138 -10.15134113 -5.771832811e-20)
(99.8138397 -9.174459088 1.508406354e-20)
(99.6752265 -7.795379336 4.769682471e-19)
(99.32743145 -6.404938429 -7.443804595e-20)
(98.89808431 -5.190246021 0)
(98.37649732 -3.985891909 -3.051842399e-20)
(98.14183557 -3.111646861 4.647526852e-20)
(97.74949376 -2.146809022 1.127763183e-20)
(97.5754831 -1.486453321 1.92696089e-20)
(97.46069855 -0.8764837831 -2.18867386e-20)
(97.39909264 -0.2886962156 0)
(103.2585679 -0.2403136244 0)
(103.2448365 -0.7286240645 0)
(103.2220731 -1.229419262 0)
(103.176516 -1.755096505 0)
(103.0021789 -2.216719285 0)
(102.9137018 -2.825036313 0)
(102.8392529 -3.501765477 0)
(102.6666437 -4.20139858 -7.383105533e-20)
(102.4319285 -5.019209891 -1.49772102e-19)
(102.1009267 -5.891691127 9.811676162e-19)
(101.7870325 -6.791069141 0)
(96.0514163 -7.0681885 -8.081943558e-20)
(99.4589119 -8.233843752 3.335744416e-20)
(99.2629286 -8.23058478 4.836632617e-20)
(98.95654822 -7.654358437 2.950259519e-19)
(98.62046471 -6.756399649 0)
(98.26890641 -5.76706194 -1.935865783e-21)
(97.93237578 -4.809541523 0)
(97.55214411 -3.782425805 0)
(97.40681043 -3.001313014 0)
(97.11076808 -2.082922587 3.902133232e-20)
(96.98425968 -1.455600081 -3.650177745e-20)
(96.89841899 -0.8596483662 -2.469334084e-21)
(96.85130987 -0.2835823221 2.477658255e-21)
(103.7093135 -0.2332871888 0)
(103.7046628 -0.7063776844 0)
(103.6991288 -1.190438552 0)
(103.6801223 -1.688005934 0)
(103.5412894 -2.133077294 0)
(103.5015691 -2.696049463 0)
(103.4784092 -3.301463259 0)
(103.359686 -3.923467296 0)
(103.1828649 -4.618106911 -8.507884049e-20)
(102.866612 -5.314019449 1.56127327e-19)
(102.5726489 -5.979149243 3.123377987e-19)
(94.56385196 -5.93875545 2.883374323e-20)
(99.66316998 -6.857396743 0)
(98.9964021 -6.827730747 0)
(98.36904787 -6.449702944 7.972976927e-20)
(97.86847108 -5.843802042 0)
(97.46367597 -5.12560035 0)
(97.14835243 -4.376769387 0)
(96.83840141 -3.512231925 0)
(96.74178778 -2.826477074 0)
(96.51345936 -1.976002157 0)
(96.42137055 -1.392752664 0)
(96.35721077 -0.8251264717 0)
(96.32082729 -0.2733073268 0)
(104.1426304 -0.2228633078 0)
(104.1449757 -0.6735887695 0)
(104.1520341 -1.133820033 0)
(104.1522536 -1.597031366 0)
(104.0407358 -2.016979846 0)
(104.0329025 -2.528709691 0)
(104.0379251 -3.062160339 0)
(103.9445174 -3.603241727 0)
(103.7780472 -4.172123873 0)
(103.4338938 -4.721707051 0)
(103.0296036 -5.214490036 -1.215703778e-19)
(95.00949121 -5.264493259 -8.818463898e-20)
(99.71837848 -5.803908196 -4.029434901e-22)
(98.78538658 -5.75474964 -1.864524225e-20)
(97.96242547 -5.492510058 0)
(97.32613806 -5.062427124 0)
(96.84927101 -4.523646529 0)
(96.51600392 -3.932530272 0)
(96.23039343 -3.209628629 0)
(96.15289292 -2.616480777 0)
(95.96557441 -1.843133889 0)
(95.89548184 -1.309128206 0)
(95.84537504 -0.7775599207 0)
(95.81718543 -0.2581882515 0)
(104.552954 -0.2100436883 0)
(104.5602726 -0.6334551466 0)
(104.5755754 -1.065069735 0)
(104.5882752 -1.490905469 0)
(104.4963782 -1.880596074 0)
(104.5061313 -2.339611248 0)
(104.5218105 -2.807630057 0)
(104.4332343 -3.270581063 0)
(104.2523152 -3.735335227 0)
(103.8707294 -4.166008769 0)
(103.3017485 -4.527092295 0)
(95.68893058 -4.626159434 0)
(99.76320355 -4.952918432 0)
(98.65175493 -4.907841399 0)
(97.67630995 -4.713077139 0)
(96.92332406 -4.392597171 0)
(96.37299152 -3.978723313 0)
(96.00276732 -3.505979794 0)
(95.71562745 -2.900982528 0)
(95.63684882 -2.391791729 0)
(95.4700654 -1.697365394 0)
(95.4116805 -1.213681716 0)
(95.36920986 -0.7224844811 0)
(95.34596099 -0.2403930488 0)
(104.9366417 -0.1957506829 0)
(104.9471016 -0.5888985696 0)
(104.9668111 -0.9890937476 0)
(104.986154 -1.376950887 0)
(104.9074511 -1.733943759 0)
(104.9235442 -2.142112515 0)
(104.9361728 -2.551920809 0)
(104.8408528 -2.944543504 0)
(104.6325013 -3.325424387 0)
(104.2089756 -3.666829082 0)
(103.4781961 -3.936979752 0)
(96.21970593 -4.051629328 0)
(99.78559014 -4.259191393 -3.685279384e-35)
(98.54952971 -4.217686357 0)
(97.46090406 -4.066718478 0)
(96.6150667 -3.819810219 0)
(95.99736095 -3.494812561 0)
(95.5834593 -3.112597118 0)
(95.27924362 -2.603621992 0)
(95.18679609 -2.166791808 0)
(95.02601384 -1.54807721 0)
(94.971336 -1.113341803 0)
(94.93145011 -0.6640491208 0)
(94.91070608 -0.2214113589 0)
(105.2916981 -0.1807653902 0)
(105.3037615 -0.5423963344 0)
(105.3247444 -0.9100537323 0)
(105.3459411 -1.260776376 0)
(105.2756155 -1.584733076 0)
(105.289677 -1.945809831 0)
(105.290005 -2.303662661 0)
(105.1812195 -2.635986637 0)
(104.9398989 -2.949873092 0)
(104.4751647 -3.224225213 0)
(103.5999546 -3.431014626 0)
(96.65551018 -3.554210851 0)
(99.7875383 -3.686342644 0)
(98.46621614 -3.646344187 0)
(97.29273545 -3.525134718 0)
(96.37304335 -3.329585196 0)
(95.69618605 -3.069336446 0)
(95.23873724 -2.756785628 0)
(94.907861 -2.326445877 0)
(94.79491957 -1.950550793 0)
(94.63029621 -1.401846607 0)
(94.57354459 -1.013199207 0)
(94.53257202 -0.6053281168 0)
(94.51245073 -0.2022621814 0)
(105.6175136 -0.1657035131 0)
(105.629957 -0.4958819533 0)
(105.6498446 -0.831215264 0)
(105.6692399 -1.146614922 0)
(105.6034628 -1.438552047 0)
(105.6098676 -1.757054423 0)
(105.5921222 -2.067920512 0)
(105.4661923 -2.350775077 0)
(105.1908181 -2.610970626 0)
(104.6882623 -2.834344434 0)
(103.6872518 -2.995731525 0)
(97.01238173 -3.125338972 0)
(99.77647018 -3.206226437 -4.703994256e-35)
(98.39611777 -3.167489823 0)
(97.1576643 -3.067618949 0)
(96.17885738 -2.909229703 0)
(95.45098962 -2.697247363 0)
(94.95231883 -2.438593398 0)
(94.59093178 -2.072848656 0)
(94.45358385 -1.748356364 0)
(94.27877415 -1.263019214 0)
(94.21604729 -0.9167325479 0)
(94.1714935 -0.5484590349 0)
(94.150617 -0.1836493653 0)
(105.9145618 -0.1510284963 0)
(105.9264446 -0.4507765546 0)
(105.9435427 -0.7549579497 0)
(105.9585326 -1.037477464 0)
(105.8944344 -1.299228921 0)
(105.8895853 -1.579652352 0)
(105.8512332 -1.849013908 0)
(105.7055967 -2.091005344 0)
(105.3975968 -2.308182524 0)
(104.8613565 -2.492280129 0)
(103.7527922 -2.620476768 0)
(97.30492454 -2.754838463 0)
(99.75681706 -2.800054099 0)
(98.33589953 -2.76257823 0)
(97.04677201 -2.678712101 0)
(96.02019008 -2.548107653 0)
(95.24863263 -2.372930033 0)
(94.71202052 -2.156573225 0)
(94.31926637 -1.844086565 0)
(94.15584809 -1.562979615 0)
(93.96700787 -1.134213281 0)
(93.8958427 -0.8261641786 0)
(93.84611006 -0.4948453306 0)
(93.82351294 -0.1660410008 0)
(106.1840708 -0.1370765205 0)
(106.1946923 -0.4080830399 0)
(106.207844 -0.6829305386 0)
(106.2166808 -0.9353912151 0)
(106.1521549 -1.169237074 0)
(106.1338952 -1.415893983 0)
(106.0739075 -1.649450684 0)
(105.9077285 -1.85716248 0)
(105.5696154 -2.03970856 0)
(105.0035923 -2.193076997 0)
(103.8046054 -2.296576424 0)
(97.54663379 -2.434217816 0)
(99.73129898 -2.454455563 1.526112624e-35)
(98.28341237 -2.418223457 0)
(96.95419919 -2.346787663 0)
(95.88860679 -2.237556138 0)
(95.07968462 -2.091030922 0)
(94.50868409 -1.908353751 0)
(94.08523349 -1.639983528 0)
(93.89556339 -1.395525217 0)
(93.69059406 -1.016796889 0)
(93.60957443 -0.7428004907 0)
(93.5537271 -0.445343813 0)
(93.52876717 -0.1497286947 0)
(106.4277709 -0.1240800856 0)
(106.4366295 -0.3684765611 0)
(106.4450923 -0.6162155239 0)
(106.4466835 -0.8416087627 0)
(106.3802507 -1.050024047 0)
(106.3474628 -1.267010572 0)
(106.2657477 -1.469907436 0)
(106.0792859 -1.648697946 0)
(105.7140476 -1.803197598 0)
(105.1216323 -1.932161496 0)
(103.8478446 -2.017076628 0)
(97.74922819 -2.156791191 0)
(99.70168786 -2.159448977 0)
(98.23715395 -2.124415414 0)
(96.87590595 -2.062889901 0)
(95.77813951 -1.970483651 0)
(94.93720292 -1.846663538 0)
(94.33529458 -1.69114414 0)
(93.88259032 -1.459518779 0)
(93.6673597 -1.246045945 0)
(93.44533216 -0.911288185 0)
(93.35377643 -0.6672928757 0)
(93.29135555 -0.4004098458 0)
(93.26363599 -0.1348733847 0)
(106.6477264 -0.1121876181 0)
(106.6544806 -0.332374563 0)
(106.6578259 -0.555464175 0)
(106.6515622 -0.7568114872 0)
(106.5821725 -0.9423376853 0)
(106.5344446 -1.133444241 0)
(106.4315292 -1.310198471 0)
(106.2256577 -1.464523066 0)
(105.8363542 -1.596184702 0)
(105.220468 -1.705514831 0)
(103.8857398 -1.776245523 0)
(97.92261155 -1.917020773 0)
(99.66917435 -1.907478678 0)
(98.19601171 -1.873555479 0)
(96.80899632 -1.82006603 0)
(95.68445081 -1.741132079 0)
(94.81598495 -1.635551922 0)
(94.18640583 -1.502144029 0)
(93.70624088 -1.301271953 0)
(93.46661565 -1.113999901 0)
(93.22730204 -0.8176606822 0)
(93.12502001 -0.599841154 0)
(93.05589187 -0.3602135186 0)
(93.02519317 -0.1215421695 0)
(106.8462158 -0.1014828423 0)
(106.8506454 -0.2999992953 0)
(106.8486717 -0.5010075227 0)
(106.8342844 -0.6812722325 0)
(106.7612045 -0.8464045964 0)
(106.698583 -1.015099363 0)
(106.5753507 -1.169639856 0)
(106.3512503 -1.303260277 0)
(105.9407552 -1.416249651 0)
(105.3039261 -1.509647838 0)
(103.9202762 -1.569437081 0)
(98.07498627 -1.71043437 0)
(99.6345755 -1.692626534 0)
(98.15909653 -1.659689675 0)
(96.75128961 -1.612779504 0)
(95.60426323 -1.544757965 0)
(94.71200818 -1.453969935 0)
(94.05767471 -1.338681693 0)
(93.55193017 -1.163625835 0)
(93.28929093 -0.9984880847 0)
(93.03288732 -0.735549169 0)
(92.91999825 -0.5403481851 0)
(92.84423424 -0.324734199 0)
(92.81045783 -0.1097386065 0)
(107.0255913 -0.0920044926 0)
(107.0275649 -0.2714383463 0)
(107.020226 -0.4529595138 0)
(106.9976772 -0.6150081773 0)
(106.9203894 -0.7621447754 0)
(106.8432004 -0.911585969 0)
(106.7006972 -1.047317321 0)
(106.4596931 -1.163469393 0)
(106.030563 -1.261180412 0)
(105.3750017 -1.341599428 0)
(103.9525506 -1.39283343 0)
(98.21291804 -1.533271656 0)
(99.59849482 -1.510202309 0)
(98.12567899 -1.478123757 0)
(96.70109508 -1.436619462 0)
(95.53503878 -1.37749057 0)
(94.62210363 -1.298754953 0)
(93.94559069 -1.198344409 0)
(93.41610189 -1.04497175 0)
(93.13187938 -0.8984766907 0)
(92.85880481 -0.6644211325 0)
(92.73560681 -0.4885466599 0)
(92.65339679 -0.2938389645 0)
(92.61652353 -0.09942828454 0)
(107.1882805 -0.08375922423 0)
(107.1877229 -0.2466863963 0)
(107.175068 -0.4112878248 0)
(107.1444709 -0.5578627381 0)
(107.0625475 -0.6892930435 0)
(106.9712764 -0.8223697825 0)
(106.8104502 -0.9420461232 0)
(106.5540494 -1.043777204 0)
(106.1084496 -1.12897681 0)
(105.4360604 -1.198790409 0)
(103.9831492 -1.24322669 0)
(98.34181197 -1.382302041 0)
(99.56139083 -1.35647878 0)
(98.09512939 -1.325107516 0)
(96.65704392 -1.28802043 0)
(95.47473984 -1.236138216 0)
(94.54369332 -1.167225364 0)
(93.84719512 -1.078983708 0)
(93.29574025 -0.9438064177 0)
(92.99129858 -0.8129148129 0)
(92.70201711 -0.6036597669 0)
(92.56890187 -0.444077429 0)
(92.48049 -0.2673306403 0)
(92.44054358 -0.09055380291 0)
(107.3365009 -0.07673948465 0)
(107.3333877 -0.2256918368 0)
(107.3155269 -0.3758714168 0)
(107.2770908 -0.5096445033 0)
(107.190275 -0.6274765103 0)
(107.085517 -0.7468226058 0)
(106.9073367 -0.8525766969 0)
(106.636793 -0.9429201542 0)
(106.1765902 -1.017874894 0)
(105.488994 -1.07905292 0)
(104.0124372 -1.118121359 0)
(98.46611419 -1.255125663 0)
(99.52359261 -1.22849952 -1.970144123e-36)
(98.06687217 -1.197643663 0)
(96.61798756 -1.164104351 0)
(95.42169076 -1.118082742 0)
(94.4746632 -1.057145909 0)
(93.76006037 -0.9790581936 0)
(93.18815651 -0.8589399463 0)
(92.86480378 -0.7407838464 0)
(92.55989695 -0.5526913286 0)
(92.41728945 -0.4065491913 0)
(92.32294101 -0.2449962042 0)
(92.27998192 -0.08305344918 0)
(107.4731029 -0.07091226238 0)
(107.4673857 -0.2083506598 0)
(107.44441 -0.3465330455 0)
(107.3983589 -0.4699674099 0)
(107.3060156 -0.5762892398 0)
(107.1883658 -0.6842272224 0)
(106.9940701 -0.7784270366 0)
(106.7100189 -0.8596221245 0)
(106.2368202 -0.9263216758 0)
(105.535411 -0.9805662928 0)
(104.0407169 -1.015488613 0)
(98.58914274 -1.149695247 0)
(99.48533898 -1.123826552 0)
(98.0403797 -1.093317929 0)
(96.58293239 -1.062552216 0)
(95.37447181 -1.021181582 0)
(94.41324861 -0.9666147374 0)
(93.68234726 -0.8969040882 0)
(93.09087234 -0.7892034174 0)
(92.74992696 -0.681172171 0)
(92.42950402 -0.5108290906 0)
(92.27781287 -0.3755705004 0)
(92.17774126 -0.2265988536 0)
(92.13178756 -0.07684917214 0)
(107.5983235 -0.06629550817 0)
(107.5901045 -0.1946527688 0)
(107.5621929 -0.3231392428 0)
(107.5088207 -0.4389964719 0)
(107.412024 -0.5352295503 0)
(107.2820201 -0.6339214805 0)
(107.0729224 -0.7198013842 0)
(106.7757139 -0.7926210131 0)
(106.2907617 -0.8529655501 0)
(105.5766644 -0.9017412271 0)
(104.0682684 -0.9334715072 0)
(98.71309665 -1.064043897 0)
(99.44692463 -1.040456704 0)
(98.01518272 -1.010189041 0)
(96.5509876 -0.9814945953 0)
(95.3318188 -0.943683647 0)
(94.357832 -0.894020041 0)
(93.61201415 -0.8304644246 0)
(93.00200196 -0.7330934933 0)
(92.64436306 -0.6330498329 0)
(92.3102127 -0.4780063305 0)
(92.14985884 -0.3508201455 0)
(92.0443324 -0.2120236533 0)
(91.99555319 -0.07192622535 0)
(107.7219131 -0.06272579544 0)
(107.7108217 -0.1842716014 0)
(107.6777838 -0.3053880319 0)
(107.6164564 -0.4145361739 0)
(107.5109753 -0.5040865924 0)
(107.368418 -0.5957494031 0)
(107.1450925 -0.6757578091 0)
(106.8357531 -0.741257458 0)
(106.3398431 -0.7967653254 0)
(105.6138998 -0.8413714033 0)
(104.0953066 -0.87077718 0)
(98.8397014 -0.9971725464 0)
(99.40862464 -0.9769709067 0)
(97.99084296 -0.9467777909 0)
(96.52133437 -0.9194759136 0)
(95.2925913 -0.8842186304 0)
(94.30694785 -0.8381539549 0)
(93.54712672 -0.7791602599 0)
(92.91983224 -0.6898358909 0)
(92.54623543 -0.5964928187 0)
(92.19401237 -0.4517650186 0)
(92.02447719 -0.3318590389 0)
(91.91335494 -0.2008447267 0)
(91.86137234 -0.06807982355 0)
(107.8167312 -0.06067706603 0)
(107.8037712 -0.1780474831 0)
(107.7667675 -0.2942962866 0)
(107.7002707 -0.4017810067 0)
(107.6025733 -0.482148486 0)
(107.449245 -0.5690297741 0)
(107.2123069 -0.6453641598 0)
(106.891569 -0.7048552474 0)
(106.3853244 -0.7569108187 0)
(105.6481869 -0.798538744 0)
(104.1219722 -0.8263919918 0)
(98.97023944 -0.9482689632 0)
(99.37055003 -0.9323283736 0)
(97.9668942 -0.9019656703 0)
(96.49318733 -0.875373553 0)
(95.25574315 -0.8417223356 0)
(94.25931696 -0.7980655293 0)
(93.48635575 -0.7422204262 0)
(92.84265534 -0.6588828073 0)
(92.45402837 -0.570500903 0)
(92.10263266 -0.4373747984 0)
(91.92676367 -0.3197138669 0)
(91.81132277 -0.1939681583 0)
(91.7573209 -0.06583381204 0)
(107.9949021 -0.05848886318 0)
(107.9779775 -0.1725732448 0)
(107.9333872 -0.2850080258 0)
(107.8533873 -0.3865868635 0)
(107.6871083 -0.4701369445 0)
(107.5224487 -0.5539587114 0)
(107.2734037 -0.6287802812 0)
(106.9444884 -0.6828632401 0)
(106.4283135 -0.7327530503 0)
(105.6804733 -0.772479437 0)