/*--------------------------------*- C++ -*----------------------------------*\
| =========                 |                                                 |
| \\      /  F ield         | OpenFOAM: The Open Source CFD Toolbox           |
|  \\    /   O peration     | Version:  v1912                                 |
|   \\  /    A nd           | Website:  www.openfoam.com                      |
|    \\/     M anipulation  |                                                 |
\*---------------------------------------------------------------------------*/
FoamFile
{
    version     2.0;
    format      ascii;
    class       volScalarField;
    location    "0.52";
    object      nut;
}
// * * * * * * * * * * * * * * * * * * * * * * * * * * * * * * * * * * * * * //

dimensions      [0 2 -1 0 0 0 0];


internalField   nonuniform List<scalar> 
12556
(
1.155881941
1.155851491
1.155822375
1.155801492
1.156028125
1.15602851
1.156048362
1.156094719
1.156180497
1.156321287
1.156486258
1.14509158
1.072319627
1.109116649
1.156561782
1.156393011
1.156240114
1.156144263
1.156074238
1.156048414
1.155825411
1.155840148
1.15586461
1.155890822
1.155121208
1.155034023
1.154951064
1.154895932
1.155122129
1.155162023
1.155282556
1.155574978
1.155981756
1.156644398
1.157546381
1.065821558
0.9905421104
1.005526099
1.112220646
1.157204541
1.156418583
1.155861825
1.155429947
1.155247147
1.154961908
1.155003646
1.155076418
1.155156639
1.154329894
1.154180743
1.154053522
1.153994371
1.154245893
1.154377878
1.154671718
1.155267398
1.156260783
1.157844416
0.9546136945
0.8287058437
0.7793595101
0.7990548001
0.8885972347
1.057118611
1.157200788
1.155940812
1.154999914
1.154559743
1.154155752
1.154168434
1.154273236
1.154406327
1.153512914
1.153321292
1.153167552
1.153121741
1.153427731
1.153731389
1.154423567
1.155522261
1.152213754
0.8636397012
0.6789718993
0.5744437612
0.5334171608
0.5534058685
0.6324883189
0.7753380155
1.003014303
1.15675143
1.154985543
1.154089317
1.153398229
1.153369959
1.153481385
1.153655802
1.152683365
1.152440832
1.152277992
1.152298101
1.152711197
1.153293427
1.154595471
1.156584414
0.8810642701
0.6293972173
0.4646486912
0.3614612186
0.3187820175
0.3406453291
0.4187917
0.5493639187
0.7478382462
1.047880814
1.15560089
1.15392173
1.152790459
1.152596445
1.152681754
1.152883668
1.151844833
1.15157598
1.151430173
1.15152637
1.152137721
1.153143748
1.155391327
1.035483047
0.6995666558
0.4771415377
0.3157885607
0.2043837541
0.1594875081
0.1866925613
0.2657623981
0.3878409277
0.5671766158
0.8321180583
1.156957641
1.154127923
1.152339496
1.151878337
1.151890341
1.152098773
1.150998387
1.150713477
1.150610193
1.150872165
1.15175626
1.153331771
1.156759553
0.8876662842
0.5931812147
0.3867201501
0.2266130421
0.1035037045
0.05840895643
0.0920539932
0.1713277592
0.2847962491
0.4479404529
0.6792550405
1.049692392
1.154785401
1.15201805
1.151204081
1.151091406
1.151283744
1.150192896
1.149911492
1.149883792
1.150380785
1.151490133
1.153885585
1.119068778
0.8071505582
0.5473326388
0.3592095226
0.2089055848
0.08596013545
0.05236363369
0.1287171762
0.2302110723
0.3781566274
0.5904786215
0.9311397895
1.155833693
1.151893075
1.150620584
1.150319017
1.15046947
1.149451117
1.14918124
1.149258366
1.150032452
1.151444379
1.154781044
1.056102758
0.7683467442
0.5476581396
0.3881458419
0.2695983977
0.1945317221
0.06332665909
0.1251159152
0.2132182762
0.3471837185
0.541402408
0.8578604566
1.157154937
1.151962063
1.150141627
1.149610136
1.149700166
1.148828996
1.148588948
1.148793947
1.149875366
1.151686078
1.155975767
1.024339296
0.7705137744
0.5744442238
0.4406331387
0.3592499686
0.3627273888
0.08844608806
0.1415613632
0.221783807
0.3467012729
0.5271926352
0.8202708774
1.158668916
1.152266746
1.149850727
1.149041413
1.149046316
1.148329314
1.148131268
1.148497416
1.149952199
1.152180628
1.157397817
1.012574424
0.7846606316
0.6101553766
0.4931462047
0.4322015291
0.4878185134
0.1200654238
0.1705908132
0.24890134
0.368566476
0.5392567087
0.8133204137
1.133309
1.15277267
1.1497479
1.148662457
1.148582444
1.148007726
1.147857088
1.148378798
1.150192569
1.152872117
1.158990873
1.015728623
0.8096125572
0.6474960831
0.5334554583
0.4631863301
0.4817038997
0.1562723272
0.2114791574
0.2933212333
0.4135190756
0.5761818652
0.833194726
1.125004383
1.153515996
1.149890732
1.148516545
1.148335899
1.147803557
1.147712235
1.148451662
1.15067457
1.153682075
1.160596964
1.029369085
0.8503374307
0.6907141024
0.5705162096
0.469806536
0.4104601588
0.06201311612
0.2018947788
0.2722593954
0.3625616293
0.4815226262
0.6427424726
0.8763379601
1.136463081
1.154348367
1.150225227
1.148598684
1.148341057
1.147766405
1.147733932
1.14866252
1.151217669
1.154802965
1.162348146
1.087245442
0.899477438
0.7526492884
0.6253810796
0.5056566784
0.2944518657
0.1221089782
0.2968798968
0.3789523791
0.4678343747
0.5812300387
0.7293687001
0.9392403979
1.164491422
1.155252228
1.150734369
1.14887482
1.14855066
1.147778782
1.147796573
1.148899569
1.151788361
1.155801988
1.163893785
1.161982628
0.9846746239
0.8449472505
0.7257855716
0.6057780379
0.09701580435
0.1710483197
0.4436128392
0.5697640376
0.6273830772
0.717905151
0.8513734228
1.040244272
1.165774971
1.156133124
1.151308911
1.149291265
1.148912334
1.147893099
1.147957135
1.149208201
1.152382392
1.156759254
1.165244825
1.172267247
1.115363123
0.9901892749
0.8959635656
0.8311095804
0.04768271015
0.1983104094
0.4847248303
0.7832156624
0.8523417582
0.902870898
1.008364754
1.169328098
1.166834413
1.156934487
1.15190622
1.149777723
1.149365328
1.147965844
1.148058212
1.149428178
1.152873944
1.157605
1.166378104
1.173602266
1.169335896
1.140987653
1.051447783
0.6230394901
0.02848341422
0.260225583
0.5476990646
0.8308127564
1.021182904
1.115718083
1.156327299
1.170756208
1.167623452
1.157591653
1.152447499
1.150250426
1.149816398
1.148080442
1.148194529
1.149651728
1.153301206
1.158288747
1.167247872
1.174636182
1.170190532
1.1352987
0.9862060912
0.302657488
0.03927932054
0.3310596437
0.6159304528
0.8703358435
1.033394987
1.119235914
1.158304343
1.171584268
1.168082946
1.158076733
1.152904403
1.150697868
1.150254149
1.148089858
1.148208703
1.149722302
1.153555117
1.158790569
1.167856567
1.175230905
1.170532179
1.131901883
0.9174134897
0.1649344822
0.07374319853
0.3818033124
0.6576963537
0.8865086266
1.037858453
1.121444436
1.159402974
1.171936297
1.16825465
1.158356053
1.153205097
1.151016438
1.150570894
1.148120394
1.148244717
1.149790403
1.153732544
1.159107936
1.168223924
1.175505493
1.170454779
1.127397684
0.8677574677
0.1480197596
0.09278606534
0.3955805037
0.6642018845
0.8921803797
1.040896176
1.122732803
1.159858373
1.171909126
1.168180719
1.158511416
1.153437843
1.151280703
1.150831845
1.148017011
1.148138824
1.149697522
1.153734567
1.159258429
1.168380203
1.175526227
1.170048881
1.121561352
0.8141678683
0.1396807687
0.1054846993
0.4024843189
0.6675221833
0.8956964591
1.042860136
1.123355378
1.159849139
1.171590299
1.167912639
1.158490786
1.153506296
1.151386298
1.150935692
1.147944514
1.148073988
1.1496396
1.153710449
1.159268283
1.168364027
1.17535367
1.16937578
1.114360905
0.7634878481
0.1343834277
0.1164932898
0.4076332731
0.6694292346
0.8970857909
1.0438653
1.123465734
1.159504386
1.171054067
1.167500321
1.158404921
1.153539022
1.151453865
1.150994649
1.147727571
1.147863382
1.149432511
1.153546474
1.159175724
1.168218114
1.175037357
1.168460749
1.105392173
0.7225327125
0.1315385428
0.1257322582
0.4114023243
0.6703847407
0.8967879364
1.043922742
1.123136466
1.158905947
1.170361176
1.166985463
1.158178765
1.153415666
1.151359962
1.150891795
1.147565327
1.147720705
1.149299889
1.153416504
1.159009821
1.167980491
1.174610784
1.16727696
1.093818943
0.6914800447
0.1306563481
0.1332991427
0.4140590951
0.6705921592
0.8953699338
1.043097728
1.122399189
1.15809921
1.169555926
1.166398837
1.157942899
1.153301184
1.15126694
1.150782198
1.147253853
1.147427637
1.149018453
1.153163334
1.158797262
1.16767908
1.174090506
1.165735412
1.079447641
0.6678497098
0.1313994841
0.1394446763
0.4158608323
0.6701720781
0.8932234025
1.041537562
1.121287558
1.157113345
1.168669087
1.165762412
1.157584844
1.15303587
1.151015971
1.150515037
1.147024945
1.147228783
1.148840913
1.152982843
1.158547596
1.167331799
1.173479626
1.16370624
1.063366945
0.6496906186
0.133500578
0.1444295744
0.4169217078
0.6692060852
0.8905638311
1.03940678
1.119849564
1.15597403
1.167722647
1.165091194
1.157263706
1.152825749
1.150812306
1.150287979
1.146644936
1.146874896
1.148506882
1.152672987
1.158274483
1.16694951
1.172772599
1.161068987
1.047037446
0.6356703677
0.1367411906
0.1484572981
0.4173459875
0.6677683914
0.8875184522
1.036842833
1.118138203
1.154706635
1.166733273
1.164396185
1.156821409
1.152461997
1.150451035
1.149905449
1.146371078
1.146636909
1.148299316
1.152464829
1.157977372
1.166539026
1.171957356
1.157764925
1.031402403
0.6247740604
0.1409032725
0.1516664623
0.4172310169
0.6659375129
0.8841739017
1.033946432
1.116200399
1.153333578
1.165713165
1.163685079
1.156457118
1.152195466
1.150179652
1.149606008
1.145951175
1.146245867
1.147931533
1.152114716
1.157667139
1.1661036
1.171016634
1.153825935
1.016866796
0.6163069991
0.1457750397
0.1542392864
0.4167051029
0.6637812864
0.8805895581
1.030787153
1.114073227
1.151872686
1.164670896
1.162963213
1.155962029
1.151769487
1.149749563
1.149152071
1.145644018
1.145976955
1.147698765
1.151888242
1.157338855
1.165644094
1.169931685
1.149353804
1.003565464
0.609711263
0.1512062829
0.1563009906
0.4158440618
0.6613428601
0.8768024752
1.027412876
1.111785128
1.150337255
1.163612208
1.162234996
1.155577777
1.151468166
1.149435477
1.148806963
1.14521711
1.14557827
1.147323121
1.151517877
1.157003584
1.165159173
1.168688018
1.144486165
0.9915117455
0.6047272651
0.1571073703
0.157953315
0.4146840535
0.6586491328
0.8728407066
1.023860233
1.109358754
1.148737415
1.162540876
1.161501905
1.155057957
1.151016608
1.148977209
1.148324422
1.144870209
1.145270597
1.147054874
1.151267748
1.156654135
1.16464741
1.167279363
1.139360419
0.9806606917
0.601115184
0.1633927923
0.1592650831
0.4132689911
0.6557363345
0.8687356234
1.020160506
1.106812323
1.147080279
1.161459058
1.160767928
1.154652157
1.150676036
1.148619103
1.147933456
1.144481662
1.144907441
1.146713496
1.150916499
1.156301453
1.164105952
1.165708083
1.134090013
0.9708971768
0.5986332625
0.1699043748
0.1603116131
0.4116629466
0.6526511221
0.8645202716
1.016340083
1.104160135
1.145370645
1.160367774
1.160029294
1.154153668
1.150251395
1.148187043
1.147479098
1.144060641
1.144526829
1.14637361
1.150603044
1.155939224
1.163534879
1.163984334
1.12876242
0.9620856931
0.5970442292
0.1766567538
0.1611764964
0.4099259718
0.6494400707
0.8602259029
1.012422359
1.101414868
1.143613307
1.159269613
1.159295274
1.153672918
1.149825241
1.147742414
1.146999999
1.143777328
1.144264512
1.146132114
1.150355396
1.155581424
1.16294032
1.162137201
1.123436166
0.9540995444
0.5961484856
0.1835757164
0.1619259634
0.4081143303
0.6461515216
0.85588072
1.008427974
1.098587815
1.141811097
1.158178243
1.158564189
1.153307549
1.149517006
1.147426036
1.146665503
1.14321109
1.143747229
1.14566534
1.149911834
1.155261484
1.162360082
1.160270371
1.118160307
0.9468381193
0.5957398586
0.1904621602
0.1626190301
0.4063012285
0.6428565648
0.8515270674
1.004383918
1.09569115
1.139963876
1.157159889
1.157908384
1.152636572
1.148924594
1.146813221
1.146011108
0.1728063367
0.05642567516
0.04526536416
0.3462694578
0.0809760629
0.05932369831
0.4757248578
0.1134518741
0.084817687
0.4885700418
0.1433226821
0.1182301916
0.4192559855
0.04615599418
0.05803375891
0.1779591865
0.1471183115
0.341541512
0.09166023871
0.04746588826
0.1160320569
0.2405008274
0.1809568006
0.08347826634
0.05868666302
0.04676090707
0.08737160214
0.02880153797
0.01945712788
0.06085460697
0.1060456267
0.1088369242
0.3370351733
0.3361392258
0.1994876998
0.03258778008
0.04774163935
0.08510463451
0.1212833945
0.1083251984
0.4175176798
0.4568574732
0.3521834125
0.40940122
0.2142939168
0.2432964102
0.0571632754
0.04075971857
0.1160308952
0.1486575492
0.127139218
0.4589327695
0.4825447171
0.4684954285
0.5050739221
0.1364527835
0.1792858778
0.1054200497
0.0778091931
0.4651660553
0.4240075888
0.4777183914
0.4584954997
0.07878730704
0.1051288344
0.0196442127
0.1344262133
0.1296613823
0.493685088
0.3807427599
0.4156314586
0.3844647863
0.03012057448
0.05005040392
0.2919272341
0.1248621492
0.0937694422
0.06834570039
0.1623896764
0.03260201621
0.06197060813
0.04783634479
0.03001413704
0.04851389659
0.03186048599
0.04683994718
0.2472844615
0.2760987045
0.2878979007
0.2138334798
0.1970362929
0.1863946613
0.217171808
0.04034289157
0.03242982541
0.07067242126
0.04761855101
0.0541996075
0.04814808003
0.04783517702
0.06922441496
0.1823177365
0.2100145266
0.4260148756
0.1623110982
0.1356976827
0.1950591886
0.1645256591
0.07414566962
0.05856431102
0.1012139982
0.079315926
0.1015908929
0.05474636356
0.07643520926
0.09692557534
0.1066300098
0.1346747258
0.5037986349
0.1072783142
0.08050887358
0.1341760168
0.1087222704
0.1287118104
0.1096866034
0.05104514545
0.07693888117
0.4465303653
0.01396379858
0.05341042382
0.03177576064
0.07939624099
0.05502107436
0.01260129285
0.1406786723
0.1361313831
0.02224056659
0.004701658591
0.0298112014
0.3772997627
0.07446156372
0.01864445468
0.01058150097
0.03142367525
0.01897158084
0.07134140563
0.2491620454
0.1801073461
0.1000191692
0.107907098
0.06769272172
0.03834145371
0.01804177129
0.008381093218
0.2652945042
0.279738974
0.1786392512
0.009247178442
0.1493924776
0.1846398967
0.1568187801
0.01063103983
0.06367465821
0.05524353038
0.08828157402
0.1565202634
0.1443770989
0.1613151273
0.07544180572
0.1209536866
0.04195571801
0.01328507202
0.02297180994
0.02230700712
0.03018133414
0.04700296859
0.05352791045
0.03842691274
0.13240467
0.123172643
0.1308721965
0.1051734165
0.1219856896
0.129297364
0.03173903371
0.01203886515
0.05633677505
0.02315561217
0.03954836145
0.03179769773
0.01964695261
0.03041046979
0.02202176079
0.0166424367
0.02299493245
0.02073144494
0.009973222533
0.01668298311
0.02176283355
0.04124043308
0.0418907713
0.04904942187
0.0478971216
0.01944088226
0.01009874557
0.09314170941
0.01636246964
0.02993367255
0.009412489685
0.0138646036
0.0890880686
0.09368069844
0.270184833
0.2565382641
0.08087111021
0.06807849113
0.0105022466
0.04502834772
0.1968637862
0.1834317723
0.2154382081
0.2023081494
0.04538668287
0.05114734949
0.04231466344
0.1008786441
0.06744350398
0.05908153339
0.04031107176
0.0669218683
0.1138703622
0.03962553704
0.023931859
0.01513272393
0.05375720211
0.02670201637
0.04379176936
0.02556429554
0.06074460608
0.03871526656
0.03803160651
0.210519958
0.03107598991
0.2097647731
0.2344082744
0.03492337568
0.03924395473
0.03150849871
0.03440754258
0.2300363969
0.03851659894
0.03820208427
0.05138574573
0.0680217975
0.06347453013
0.07435823788
0.06963096816
0.05170818671
0.05683424372
0.05586486574
0.05078928739
0.0618373883
0.05726497074
0.05579840913
0.1492651512
0.1475469297
0.181057362
0.1791585034
0.06994022403
0.009241407576
0.06855771434
0.09734572789
0.09542892912
0.120864294
0.119141396
0.03192864344
0.04724755637
0.1219433736
0.03577380454
0.02092333824
0.06759865198
0.2338283314
0.2202077115
0.2519081481
0.2383324511
0.06895792968
0.02888591214
0.04883354973
0.04780117933
0.0720243246
0.07114037709
0.007032826253
0.03803473068
0.09852809431
0.08534173878
0.1782157361
0.1683932309
0.02386725641
0.01198383971
0.02259558891
0.01500979287
0.02996795547
0.01178399104
0.01422970384
0.0120675426
0.03000700453
0.06035810687
0.01231309975
0.01903739034
0.003458410958
0.02042864159
0.01531696804
0.5695847201
0.3976664615
0.3714554612
0.2658593468
0.008383389232
0.00531070396
0.1649786593
0.3670915683
0.2699112476
0.005858675685
0.01353043152
0.0108223402
0.1156183638
0.1032444656
0.04092702102
0.1934118027
0.1625791202
0.09176317291
0.009600127697
0.01627913589
0.01299253924
0.008603144335
0.01274658937
0.008994214249
0.03511640146
0.01495837868
0.01402990395
0.0447318691
0.05323844487
0.01571239905
0.02151294005
0.01018933141
0.0102624472
0.04265769203
0.1515617689
0.3396581665
0.3267979159
0.356620217
0.343923147
0.1550414824
0.2878458484
0.2744905073
0.0950362186
0.03315305679
0.09816592517
0.09268440606
0.01131817928
0.01621724585
0.1016672247
0.04516433292
0.01694942087
0.0150733392
0.03743389383
0.04280442539
0.03858288907
0.04919738291
0.04430187202
0.0388493196
0.03942349367
0.01047909414
0.01023603753
0.03391447627
0.194149732
0.3731917884
0.3607657693
0.06036841971
0.06239086189
0.1407542111
0.02283065504
0.02495677798
0.06248263968
0.08822738806
0.1012630082
0.09369673929
0.06145283179
0.08182821193
0.0762186358
0.09094081672
0.0840383241
0.06265944326
0.1207920786
0.3052894943
0.2921868349
0.3225140019
0.3096324953
0.1227046621
0.1031057694
0.03674273037
0.03748178336
0.02116385216
0.02199615256
0.08509750735
0.1286984072
0.0560503038
0.05995098009
0.03779244767
0.03848534473
0.1130616518
0.1261501336
0.04974972012
0.06740924848
0.007507852728
0.01955481448
0.05103515917
0.03886537331
0.07619436061
0.02053213269
0.02101960202
0.02012443766
0.06455183363
0.01096583291
0.004397912756
0.1283121661
0.1100893089
0.0908156879
0.08639229488
0.02945486659
0.02058799322
0.03336808305
0.08322962403
0.01842042116
0.01142466355
0.02015190481
0.0269735265
0.00285323845
0.03094627316
0.02001302395
0.01207833581
0.006243298673
0.01175965153
0.009312074247
0.009155630631
0.02993796822
0.02292581083
0.006894389355
0.03879553969
0.04053144783
0.01538369109
0.01111985229
0.007232519276
0.01165394302
0.01677081619
0.01081017672
0.01405671231
0.04513420761
0.01016995239
0.009768602749
0.01118448644
0.01309030092
0.03788456296
0.01137131969
0.01121335621
0.01330888803
0.01122287276
0.01179132515
0.02010966067
0.0145324169
0.02918670426
0.02263754095
0.01165466645
0.01643946605
0.02157241147
0.01818755537
0.0292400586
0.02291443467
0.01779433419
0.01598046655
0.01241835371
0.0129003471
0.01008724667
0.03712552372
0.04402981886
0.01377264569
0.01300468267
0.01470155988
0.0152378638
0.05190177496
0.009552308666
0.009676226961
0.01235453804
0.00972565934
0.009724116538
0.04389535909
0.009899843531
0.01441724809
0.01339321249
0.01210738712
0.0216193154
0.05604772859
0.05076718638
0.01109684938
0.04149686525
0.03545563976
0.04884308985
0.04366968787
0.01160157932
0.01181107465
0.03929132976
0.03262263336
0.1069781769
0.1001099636
0.0369974005
0.04758930413
0.114553742
0.1088520865
0.04581473619
0.04489313193
0.06978864585
0.08148263762
0.1000754798
0.06112169023
0.07634961179
0.07080097042
0.06139752257
0.1454338637
0.1331352366
0.1090491649
0.1485859859
0.06130918253
0.03954636437
0.04494972089
0.05598045743
0.03400739941
0.03816411472
0.02367983548
0.02247202321
0.04368090327
0.01617100134
0.01628519342
0.01285106161
0.02355806156
0.02782652728
0.01693269999
0.02377506765
0.03415528575
0.03242852428
0.02482164048
0.02920665732
0.09774145325
0.08521818758
0.1045617519
0.1003625843
0.03036293354
0.07633119754
0.07399716505
0.08165402164
0.07717996777
0.03650342577
0.1222720911
0.1174363607
0.13015737
0.1239964241
0.03711317468
0.03266743971
0.110067689
0.1060122921
0.1158946753
0.1114812706
0.03302706014
0.01086492957
0.01058186296
0.0391654223
0.03536442303
0.01054599565
0.01098465394
0.04335118209
0.04256012162
0.04558488845
0.04362290884
0.04110666719
0.04003082339
0.04229835691
0.04138445479
0.0704515487
0.06839424893
0.0732723443
0.07116843021
0.06267463802
0.04837737713
0.06753381785
0.06534621464
0.02587655153
0.02192050195
0.03370588222
0.02804764909
0.007100067918
0.01394706197
0.01304608491
0.02045704942
0.01439023655
0.0357651603
0.03638060364
0.101681959
0.02111565101
0.02090953648
0.02176868384
0.02130164673
0.02025606804
0.08755731706
0.02262521978
0.03360334589
0.04067649867
0.05411063655
0.1267980239
0.03719471905
0.02390383225
0.03989019645
0.03686790484
0.02254147393
0.02200539671
0.0234659671
0.02276445275
0.1145354386
0.03872106399
0.03962674264
0.006587915059
0.02945961554
0.009643899735
0.01007039228
0.009616257235
0.02738052945
0.007803114404
0.02197435804
0.01100365621
0.01124117495
0.05037082245
0.04381511466
0.01992833248
0.02042329813
0.07521209124
0.06681059533
0.01904014499
0.01986424612
0.01055203489
0.02835743136
0.08367543909
0.07495042067
0.01275747614
0.01221170023
0.01763144274
0.01180441313
0.01292363889
0.01806913019
0.03083499849
0.008264414831
0.012934731
0.01159659325
0.01228456397
0.02085197904
0.05380457552
0.1144621798
0.1485845112
0.01022531887
0.0101115703
0.184703217
0.2363787452
0.1955619465
0.006783163466
0.03988079932
0.01423185193
0.01961219481
0.135134828
0.1407984856
0.1576988726
0.004816072147
0.007489509874
0.005523254436
0.00485500367
0.00581217696
0.004546145735
0.05754045554
0.03596727525
0.02260623059
0.02566546829
0.02299466298
0.02698347153
0.2269969897
0.40070686
0.3931555423
0.3811140256
0.3918689865
0.2311018686
0.04812949257
0.04164881352
0.01305335471
0.07165406066
0.08442507454
0.1324022527
0.1221519322
0.116367741
0.04808527197
0.02843591774
0.03358287437
0.03276145155
0.3892542359
0.3772678552
0.1979631222
0.1564330515
0.06827686367
0.07223952318
0.07544371252
0.08670070057
0.1711965416
0.05889637531
0.1308308791
0.1241646297
0.01090096254
0.01100195169
0.01544820526
0.01974241992
0.02003842765
0.03262934375
0.01160078442
0.010840899
0.01070195893
0.0293514273
0.05807876732
0.04996932426
0.0185964866
0.0312109351
0.01930964478
0.01948131249
0.01899155163
0.01555997033
0.009485630192
0.01179974331
0.01106806798
0.01058271455
0.02499602664
0.03110430359
0.06325216417
0.04074095678
0.03725245391
0.03404743773
0.02508634351
0.04733871076
0.01624519554
0.02263615736
0.01145760642
0.008149897125
0.008265116059
0.01163895929
0.01160139125
0.02336797891
0.014790164
0.01008403625
0.01946848534
0.01967682108
0.01798969678
0.01574003304
0.01930889777
0.01778204714
0.0107743503
0.01147355183
0.006609545508
0.009326533577
0.01090624096
0.06336323975
0.05778328101
0.02352547347
0.00922176618
0.01429779524
0.01293374645
0.0109387132
0.01506836523
0.01329308453
0.04894208535
0.03754057765
0.0431787071
0.06830748579
0.09731877403
0.09577811069
0.04192485396
0.06866651686
0.06483399565
0.09464521114
0.09271575602
0.06541931624
0.03389295266
0.04083035367
0.0358716696
0.02745869666
0.02812374451
0.02318514105
0.04786908671
0.04642258601
0.0511118928
0.02339147515
0.03388872713
0.03221773152
0.05288040415
0.05248913427
0.03081616911
0.02846584894
0.02804286909
0.03116179919
0.03043708789
0.03548046968
0.05928629454
0.05863751938
0.06311984089
0.0623117477
0.03845335774
0.03185123453
0.05417087148
0.05362833729
0.05797045663
0.0573130784
0.03392932398
0.06555677763
0.06754337289
0.1545951194
0.1423731142
0.06299845193
0.06492652727
0.09392382616
0.0972634384
0.1870243083
0.02641186339
0.02626749677
0.02779858474
0.02757552147
0.02008469169
0.02599110381
0.02588756226
0.1732084235
0.08903669955
0.09267907731
0.009262472245
0.009288412388
0.01249749316
0.01193718063
0.00924828663
0.009186024795
0.007531043838
0.06384862007
0.02598120007
0.03199653934
0.139467651
0.133054648
0.06221537572
0.07200772393
0.1471668915
0.1413820522
0.03192006531
0.0319839236
0.0491937459
0.047478928
0.03152042819
0.0314804284
0.01059059215
0.02259470494
0.03597025396
0.03557554315
0.00837863966
0.01435798668
0.01999748098
0.01301255676
0.01230658218
0.01840629574
0.01865087797
0.03042425916
0.01182538123
0.008597657256
0.01172455683
0.01184633103
0.02842674611
0.0179105439
0.01849856769
0.01440929764
0.0373059985
0.03153618197
0.01038001489
0.01038930853
0.01072799513
0.01113796198
0.01685110641
0.006428856195
0.00416600365
0.0077454242
0.01209889718
0.009993915986
0.01048916804
0.009948327823
0.0101612802
0.01107714513
0.01018371806
0.006749084572
0.0052923599
0.0129082816
0.01328464799
0.01250367184
0.01260410438
0.01453264086
0.0222367977
0.0225329779
0.02182076612
0.02207034774
0.01440221762
0.01009019606
0.01719820278
0.01716704199
0.01777809501
0.0173361442
0.009927632705
0.01609205357
0.02494212506
0.02769159404
0.02282230593
0.0235470588
0.01560472646
0.01045203298
0.01715144786
0.01713939037
0.01711593151
0.01715264397
0.01032042599
0.01207299892
0.01230329915
0.01164703596
0.01224460726
0.03690651419
0.05648423181
0.05600387802
0.02140896669
0.03559144582
0.03534224205
0.03691358751
0.03595082586
0.0216182151
0.01107097383
0.01078655495
0.01089283165
0.01112266311
0.02000615285
0.0198131328
0.02043550421
0.02021881565
0.01557937673
0.03472403115
0.02063410637
0.02156232333
0.02071303845
0.03486266252
0.03464298289
0.0351893082
0.03500869917
0.02084220287
0.02134049111
0.02074287872
0.03125199175
0.02230870242
0.01598460544
0.007315477587
0.01076478788
0.01099996392
0.007256948891
0.0424850399
0.02941981471
0.00300869773
0.02945796472
0.0453024421
0.04494926907
0.01838021174
0.01135250487
0.008315970948
0.003617634773
0.01259653275
0.01273057372
0.01907840959
0.01924139522
0.03114002145
0.01941805968
0.01052665681
0.01045422328
0.01505635565
0.004203279509
0.009069012861
0.00706088253
0.005858045085
0.006992475872
0.009317463483
0.006777208011
0.0104096094
0.01074665894
0.01041124961
0.04048797898
0.03110255117
0.008343856361
0.0104233651
0.01162879485
0.01867214582
0.02100604906
0.01232583873
0.01516102376
0.01487906819
0.009997505831
0.006644660283
0.009997663024
0.01115690019
0.007739704532
0.01116475518
0.01142345967
0.01220062191
0.01157824702
0.011331254
0.01158227421
0.0114612252
0.01167948136
0.01171380488
0.01160853904
0.01159495938
0.01182985369
0.01267689192
0.01217677672
0.02038428821
0.0208778623
0.02040314807
0.02678443062
0.02527904769
0.01974141532
0.01843640288
0.0197267091
0.01232567372
0.01972524854
0.0209121825
0.01426022965
0.01975884991
0.01319155913
0.01351254746
0.02140799638
0.0216407947
0.02094304576
0.02127690861
0.01332354257
0.01487629283
0.02577675009
0.02531434679
0.009625534801
0.009641216427
0.01083498442
0.008638321206
0.009324143269
0.00947613666
0.009627392701
0.009307014335
0.01172392268
0.02128816661
0.01904023593
0.02460157533
0.02333119299
0.01353935899
0.009344744415
0.01013191784
0.01559981436
0.006537386431
0.009483278125
0.009455216185
0.01168089117
0.009350413896
0.009558698478
0.01877996961
0.01670027528
0.01001914727
0.04709902332
0.04380437637
0.08507561991
0.0759565134
0.04394665843
0.0651366429
0.09177123537
0.08801574221
0.03543238947
0.0324992545
0.03087156306
0.02308984522
0.02973525752
0.04404195726
0.04434766038
0.03873684826
0.02361218661
0.03379696811
0.0342861037
0.03076448916
0.03179835966
0.02226641894
0.01536535614
0.01648790005
0.02510569883
0.0178730092
0.01700304503
0.01902959449
0.01806842225
0.02547187137
0.01738778538
0.0180528586
0.01432737969
0.01860813043
0.04825681702
0.04845923634
0.03069132021
0.03033341989
0.05145706416
0.05145048951
0.02917633729
0.02877166087
0.02997104733
0.02953547031
0.06047831103
0.05985631461
0.03589974774
0.03776720111
0.06169121877
0.06108957357
0.05543643929
0.05485695654
0.03230727878
0.03343218383
0.05664448264
0.05603568453
0.01076728059
0.01716509691
0.01717824467
0.01716859373
0.01718645471
0.01072502241
0.01100076338
0.01591100567
0.01382267178
0.01707946668
0.01677495316
0.01100141962
0.04307480446
0.02511150173
0.02538323006
0.02468807301
0.02489421347
0.04282349372
0.04443964635
0.02632809532
0.02681228264
0.02564930193
0.02596179927
0.04394989015
0.04071570735
0.02346523603
0.02370723305
0.02309761304
0.02333023225
0.04047908253
0.04201182877
0.0242939396
0.0244850242
0.02387044072
0.02410656709
0.04173273856
0.02685700487
0.02667206117
0.06977481672
0.04633697732
0.04666800024
0.0456149525
0.04590309608
0.06902242527
0.02731051371
0.02710264588
0.02474489722
0.02601930046
0.06051965131
0.04177238114
0.04145853794
0.02771309443
0.02912716473
0.05386690672
0.06703581798
0.04489209754
0.04509589656
0.04415198107
0.04409744221
0.0657427129
0.02555321321
0.02560265631
0.009216475164
0.009434802809
0.009100629265
0.01138763864
0.01016385277
0.01359452784
0.009397082757
0.009348063742
0.009368516362
0.009380322745
0.01343605626
0.01830861041
0.01037830614
0.01178569444
0.009512536697
0.009296711882
0.01583160544
0.03568655354
0.05385758761
0.05354816655
0.05529384047
0.0549281449
0.03628191197
0.02107358216
0.0208341321
0.02164741125
0.02137409004
0.02139123599
0.0167942339
0.02376497825
0.04398109085
0.03925469981
0.05132012226
0.04949848732
0.03377383149
0.02597582354
0.01800845499
0.02320852694
0.02467447629
0.03919844077
0.02274574203
0.02303556474
0.02207215697
0.02280318915
0.03926989637
0.02237756719
0.02215101959
0.02320112169
0.02295601721
0.009850087233
0.01179937965
0.01134127168
0.01496799977
0.01284730007
0.009826252521
0.009494965166
0.009688320819
0.01076347805
0.01017993223
0.006530290897
0.01127501435
0.01106818301
0.01110304867
0.01241985048
0.01160777672
0.01116915161
0.01936348889
0.01931868599
0.01961114199
0.01954776906
0.02984723047
0.02982008572
0.04544216528
0.01855367774
0.01959300591
0.01908828028
0.01915519199
0.02014587367
0.03406718789
0.03370850285
0.03448817783
0.03420943677
0.02022604149
0.01959218038
0.03302058052
0.03116983126
0.03358633128
0.03300307168
0.01957763788
0.01075973806
0.04330410976
0.04274207449
0.02815577369
0.01286902668
0.0105849737
0.01046605409
0.007908603446
0.01090409247
0.01234297231
0.01821496544
0.012314092
0.01277995815
0.01264381787
0.03054307033
0.01875888365
0.01896305587
0.01152444125
0.01180964421
0.01172999164
0.0122303979
0.01224785651
0.008497182654
0.008576995771
0.01221229889
0.01187014797
0.01215427924
0.0152044634
0.01877647462
0.02848082191
1.15530012
1.155871822
1.155862047
1.156113792
1.157046418
1.156460127
1.157405004
1.071272164
1.157307051
1.029550763
0.9147991746
1.082054437
0.8939356365
0.8437346249
0.9941917925
0.8395358915
0.8485634027
0.9991617547
0.8579662528
0.9253487508
1.094581028
0.950931583
1.081954085
1.157422556
1.125753417
1.157239588
1.156586713
1.156914833
1.156069886
1.155977918
1.155389856
1.156597733
1.15596088
1.157125396
1.001856689
1.157388367
0.9364850434
0.7816681357
0.9982594455
0.7428224358
0.6556067027