/*--------------------------------*- C++ -*----------------------------------*\
| =========                 |                                                 |
| \\      /  F ield         | OpenFOAM: The Open Source CFD Toolbox           |
|  \\    /   O peration     | Version:  v1912                                 |
|   \\  /    A nd           | Website:  www.openfoam.com                      |
|    \\/     M anipulation  |                                                 |
\*---------------------------------------------------------------------------*/
FoamFile
{
    version     2.0;
    format      ascii;
    class       pointVectorField;
    location    "0.52";
    object      pointDisplacement;
}
// * * * * * * * * * * * * * * * * * * * * * * * * * * * * * * * * * * * * * //

dimensions      [0 1 0 0 0 0 0];


internalField   nonuniform List<vector> 
26316
(
(0 0 0)
(0 0 0)
(0 0 0)
(0 0 0)
(0 0 0)
(0 0 0)
(0 0 0)
(0 0 0)
(0 0 0)
(0 0 0)
(0 0 0)
(0 0 0)
(0 0 0)
(0 0 0)
(0 0 0)
(0 0 0)
(0 0 0)
(0 0 0)
(0 0 0)
(0 0 0)
(0 0 0)
(0 0 0)
(0 0 0)
(0 0 0)
(0 0 0)
(0 0 0)
(0 0 0)
(0 0 0)
(0 0 0)
(0 0 0)
(0 0 0)
(0 0 0)
(0 0 0)
(0 0 0)
(0 0 0)
(0 0 0)
(0 0 0)
(0 0 0)
(0 0 0)
(0 0 0)
(0 0 0)
(0 0 0)
(0 0 0)
(0 0 0)
(0 0 0)
(0 0 0)
(0 0 0)
(0 0 0)
(0 0 0)
(0 0 0)
(0 0 0)
(0 0 0)
(0 0 0)
(0 0 0)
(0 0 0)
(0 0 0)
(0 0 0)
(0 0 0)
(0 0 0)
(0 0 0)
(0 0 0)
(0 0 0)
(0 0 0)
(0 0 0)
(0 0 0)
(0 0 0)
(0 0 0)
(0 0 0)
(0 0 0)
(0 0 0)
(0 0 0)
(0 0 0)
(0 0 0)
(0 0 0)
(0 0 0)
(0 0 0)
(0 0 0)
(0 0 0)
(0 0 0)
(0 0 0)
(0 0 0)
(0 0 0)
(0 0 0)
(0 0 0)
(0 0 0)
(0 0 0)
(0 0 0)
(0 0 0)
(0 0 0)
(0 0 0)
(0 0 0)
(0 0 0)
(0 0 0)
(0 0 0)
(0 0 0)
(0 0 0)
(0 0 0)
(0 0 0)
(0 0 0)
(0 0 0)
(0 0 0)
(0 0 0)
(0 0 0)
(0 0 0)
(0 0 0)
(0 0 0)
(0 0 0)
(0 0 0)
(0 0 0)
(0 0 0)
(0 0 0)
(0 0 0)
(0 0 0)
(0 0 0)
(0 0 0)
(0 0 0)
(0 0 0)
(0 0 0)
(0 0 0)
(-6.152644869e-07 1.527686895e-06 2.775557562e-17)
(0 0 0)
(0 0 0)
(-3.394910086e-07 1.71117361e-05 3.330669074e-16)
(1.567392597e-06 1.454703915e-05 2.775557562e-16)
(0 0 0)
(0 0 0)
(0 0 0)
(0 0 0)
(0 0 0)
(0 0 0)
(0 0 0)
(0 0 0)
(0 0 0)
(0 0 0)
(0 0 0)
(0 0 0)
(0 0 0)
(0 0 0)
(0 0 0)
(0 0 0)
(0 0 0)
(0 0 0)
(0 0 0)
(0 0 0)
(0 0 0)
(0 0 0)
(0 0 0)
(0 0 0)
(0 0 0)
(0 0 0)
(0 0 0)
(0 0 0)
(0 0 0)
(0 0 0)
(0 0 0)
(0 0 0)
(0 0 0)
(0 0 0)
(0 0 0)
(0 0 0)
(0 0 0)
(0 0 0)
(0 0 0)
(0 0 0)
(0 0 0)
(0 0 0)
(0 0 0)
(0 0 0)
(0 0 0)
(0 0 0)
(0 0 0)
(0 0 0)
(0 0 0)
(0 0 0)
(0 0 0)
(0 0 0)
(0 0 0)
(0 0 0)
(0 0 0)
(0 0 0)
(0 0 0)
(0 0 0)
(0 0 0)
(0 0 0)
(0 0 0)
(-3.833018196e-05 1.29235968e-05 4.996003611e-16)
(-0.0002205655853 8.112689278e-05 3.080868893e-15)
(-2.884551269e-06 1.301279629e-06 2.775557562e-17)
(-0.0004186365355 0.0002590709325 8.007483565e-15)
(-0.001038807171 0.000525894256 1.992850329e-14)
(-0.001231905399 0.0007128644979 2.699229729e-14)
(-0.0005751095042 0.0004063745982 1.255939797e-14)
(-0.0006984477227 0.0008567492181 2.647881914e-14)
(-0.001221341064 0.001232053209 4.662936703e-14)
(-0.00101640845 0.001360910445 5.152822613e-14)
(-0.0006004278937 0.000974934713 3.012867733e-14)
(-2.226876066e-05 0.001138920179 3.523570324e-14)
(-2.393695953e-05 0.001534615618 5.825895322e-14)
(0.0003447902318 0.001513471764 5.750955268e-14)
(0.0002001930445 0.001119812138 3.466671394e-14)
(0.0006624534723 0.0008573916188 2.657596365e-14)
(0.001175341302 0.001227897891 4.676814491e-14)
(0.001286603519 0.001072484721 4.087008509e-14)
(0.0006961784389 0.000717661968 2.224609386e-14)
(0.0004089672068 0.0002619081078 8.118505868e-15)
(0.001015400972 0.0005275934144 2.009503675e-14)
(0.0007636251747 0.0003526740925 1.34336986e-14)
(0.0002388659541 0.0001358381242 4.204969706e-15)
(0 0 0)
(4.021132277e-05 1.391504558e-05 5.273559367e-16)
(0 0 0)
(0 0 0)
(0 0 0)
(0 0 0)
(0 0 0)
(0 0 0)
(0 0 0)
(0 0 0)
(0 0 0)
(0 0 0)
(0 0 0)
(0 0 0)
(0 0 0)
(0 0 0)
(0 0 0)
(0 0 0)
(0 0 0)
(0 0 0)
(0 0 0)
(0 0 0)
(0 0 0)
(0 0 0)
(0 0 0)
(0 0 0)
(0 0 0)
(0 0 0)
(0 0 0)
(0 0 0)
(0 0 0)
(0 0 0)
(0 0 0)
(0 0 0)
(0 0 0)
(0 0 0)
(0 0 0)
(0 0 0)
(0 0 0)
(0 0 0)
(0 0 0)
(0 0 0)
(0 0 0)
(0 0 0)
(0 0 0)
(0 0 0)
(0 0 0)
(0 0 0)
(-0.0001070497046 2.371814451e-06 1.026956298e-15)
(-0.0005846830851 1.408348397e-05 6.022959909e-15)
(-0.0001385190088 1.183076735e-05 1.429412144e-15)
(-0.001974246198 0.0002147726235 2.539635169e-14)
(-0.003155568709 0.0001037062515 4.06341627e-14)
(-0.004022110118 0.0001484671261 5.657974089e-14)
(-0.002712236093 0.0003244816384 3.808064974e-14)
(-0.004201695488 0.000704679858 8.144873664e-14)
(-0.005549870892 0.0002982039614 1.079691891e-13)
(-0.005570040962 0.0003445650603 1.242062009e-13)
(-0.004309358829 0.0008293671272 9.565959136e-14)
(-0.003336095069 0.001128664615 1.309091724e-13)
(-0.004130244694 0.0004409990045 1.635358515e-13)
(-0.003235884874 0.0004553942294 1.724315135e-13)
(-0.002641310744 0.00119290881 1.39041556e-13)
(5.154307813e-05 0.001258579822 1.498801083e-13)
(0.0001063744488 0.0004446925 1.842137554e-13)
(0.001276895757 0.0004266681029 1.829369989e-13)
(0.001003300102 0.001238835022 1.487143741e-13)
(0.00338806398 0.001069293272 1.311728504e-13)
(0.004268701949 0.0003455701221 1.638411629e-13)
(0.004943788481 0.000313963536 1.52711177e-13)
(0.003893129676 0.0009822022907 1.210975764e-13)
(0.004177638335 0.0006603083244 8.186507028e-14)
(0.005557349691 0.0002152920874 1.084826673e-13)
(0.005255885958 0.0001824950854 9.141298829e-14)
(0.003848187649 0.0005426180383 6.714073741e-14)
(0.001959071571 0.0002104682341 2.571554081e-14)
(0.003134396027 8.674596904e-05 4.107825191e-14)
(0.002214638451 5.808793747e-05 2.681188604e-14)
(0.00122922607 0.0001225831979 1.490474411e-14)
(0 0 0)
(0.0001062795047 2.368164004e-06 1.040834086e-15)
(0 0 0)
(0 0 0)
(0 0 0)
(0 0 0)
(0 0 0)
(0 0 0)
(0 0 0)
(0 0 0)
(0 0 0)
(0 0 0)
(0 0 0)
(0 0 0)
(0 0 0)
(0 0 0)
(0 0 0)
(0 0 0)
(0 0 0)
(0 0 0)
(0 0 0)
(0 0 0)
(0 0 0)
(0 0 0)
(0 0 0)
(0 0 0)
(0 0 0)
(0 0 0)
(0 0 0)
(0 0 0)
(0 0 0)
(0 0 0)
(0 0 0)
(0 0 0)
(0 0 0)
(0 0 0)
(0 0 0)
(0 0 0)
(0 0 0)
(0 0 0)
(0 0 0)
(-4.60576412e-05 -8.230951051e-06 3.60822483e-16)
(0 0 0)
(-0.001959412614 -0.0002945771582 1.892930257e-14)
(-0.002911632806 -0.0006054194822 2.808864252e-14)
(-0.004553762517 -0.001003818568 4.693467837e-14)
(-0.003344636316 -0.0005328661168 3.447242491e-14)
(-0.007623686325 -0.001491068092 9.867107131e-14)
(-0.009246781647 -0.00251566186 1.198346977e-13)
(-0.0103253431 -0.003058472183 1.463412724e-13)
(-0.00869209783 -0.001847609544 1.229849556e-13)
(-0.009834430883 -0.002878286999 1.932065619e-13)
(-0.01120129479 -0.004584972177 2.205319261e-13)
(-0.01067276672 -0.005021525917 2.413069744e-13)
(-0.009464299061 -0.003182497879 2.134681321e-13)
(-0.006415476634 -0.003909888782 2.591538095e-13)
(-0.007073050474 -0.006027116605 2.867012183e-13)
(-0.005384749431 -0.006254141591 2.959854584e-13)
(-0.004911595973 -0.004081659703 2.688405054e-13)
(0.0002984059966 -0.004369168261 2.812333699e-13)
(0.000346394041 -0.006619672919 3.076289223e-13)
(0.002307271441 -0.00663598388 3.064215548e-13)
(0.002089366303 -0.004384175225 2.799149801e-13)
(0.006891356933 -0.004157340329 2.595423876e-13)
(0.007645892448 -0.006330783749 2.870759186e-13)
(0.009065025384 -0.006094166228 2.749744876e-13)
(0.008123899171 -0.003982232436 2.471356453e-13)
(0.0100290542 -0.00315794777 1.939004513e-13)
(0.0114699414 -0.004947258756 2.211147931e-13)
(0.01151137712 -0.004434349291 1.98036032e-13)
(0.009955420062 -0.002798368173 1.717237463e-13)
(0.007587700453 -0.001598205949 9.86849491e-14)
(0.009458835666 -0.002748502581 1.224159663e-13)
(0.008149103213 -0.002192854257 9.747758156e-14)
(0.006457723741 -0.001257936749 7.747968933e-14)
(0.00223610968 -0.0003527596425 2.18575158e-14)
(0.003342301562 -0.0007257147311 3.264055692e-14)
(0.001885620525 -0.0003840442643 1.734723476e-14)
(0.001077467366 -0.0001593786346 9.922618283e-15)
(0 0 0)
(0 0 0)
(0 0 0)
(0 0 0)
(0 0 0)
(0 0 0)
(0 0 0)
(0 0 0)
(0 0 0)
(0 0 0)
(0 0 0)
(0 0 0)
(0 0 0)
(0 0 0)
(0 0 0)
(0 0 0)
(0 0 0)
(0 0 0)
(0 0 0)
(0 0 0)
(0 0 0)
(0 0 0)
(0 0 0)
(0 0 0)
(0 0 0)
(0 0 0)
(0 0 0)
(0 0 0)
(0 0 0)
(0 0 0)
(0 0 0)
(0 0 0)
(0 0 0)
(0 0 0)
(0 0 0)
(-0.0002128712354 -6.579423628e-05 1.637578961e-15)
(-0.0004840879835 -0.0001719963584 3.73312492e-15)
(-0.001719169044 -0.0006414714945 1.394717675e-14)
(-0.001155851753 -0.0003752496404 9.36750677e-15)
(-0.006786589842 -0.002590767422 6.536438057e-14)
(-0.008027702988 -0.003523658129 7.732703367e-14)
(-0.01034274547 -0.004827858096 1.06345488e-13)
(-0.008968023491 -0.003639408007 9.22040222e-14)
(-0.01412615413 -0.00710331942 1.822986206e-13)
(-0.01559842683 -0.00904969486 2.011585343e-13)
(-0.01642443447 -0.01038751737 2.314398673e-13)
(-0.01501490769 -0.008224249279 2.119276976e-13)
(-0.01477738418 -0.01120086096 2.904898544e-13)
(-0.01569267681 -0.01369595936 3.072819776e-13)
(-0.01446077653 -0.01449930424 3.252675906e-13)
(-0.01366494827 -0.01190430279 3.084060785e-13)
(-0.008516775523 -0.01339423513 3.445438379e-13)
(-0.008811008648 -0.01588136292 3.540778781e-13)
(-0.006574224878 -0.01607909002 3.574501806e-13)
(-0.006393498264 -0.01365725166 3.501088308e-13)
(0.0003581107559 -0.01403522223 3.556738237e-13)
(0.0003140167731 -0.01632878979 3.593514375e-13)
(0.002620028382 -0.01638519198 3.593098041e-13)
(0.00263440125 -0.01407332119 3.551881012e-13)
(0.009244876565 -0.01385108884 3.452654829e-13)
(0.009488881275 -0.01635707292 3.545497229e-13)
(0.01157338343 -0.01614859512 3.48721052e-13)
(0.01119374754 -0.01357949886 3.371330992e-13)
(0.01524865698 -0.01184776402 2.911143548e-13)
(0.01621087556 -0.01446872643 3.083505673e-13)
(0.01697986384 -0.01357026721 2.879779748e-13)
(0.01580675475 -0.01098663313 2.685907052e-13)
(0.01456773972 -0.007690754355 1.874889133e-13)
(0.01605444944 -0.009733835721 2.065014826e-13)
(0.01469735459 -0.008234970762 1.75012782e-13)
(0.01318234574 -0.006429432552 1.570688024e-13)
(0.007170361989 -0.002832472707 6.987466161e-14)
(0.008452206526 -0.00383971125 8.230915949e-14)
(0.006091799439 -0.002599865677 5.592748487e-14)
(0.004990865868 -0.001851495335 4.583833313e-14)
(0.0003293207717 -0.0001033278478 2.581268532e-15)
(0.0005657565655 -0.0002044098029 4.427014311e-15)
(1.436183178e-05 -4.940828322e-06 1.110223025e-16)
(0 0 0)
(0 0 0)
(0 0 0)
(0 0 0)
(0 0 0)
(0 0 0)
(0 0 0)
(0 0 0)
(0 0 0)
(0 0 0)
(0 0 0)
(0 0 0)
(0 0 0)
(0 0 0)
(0 0 0)
(0 0 0)
(0 0 0)
(0 0 0)
(0 0 0)
(0 0 0)
(0 0 0)
(0 0 0)
(0 0 0)
(0 0 0)
(0 0 0)
(0 0 0)
(0 0 0)
(0 0 0)
(0 0 0)
(-2.026167399e-05 -1.083443743e-05 1.387778781e-16)
(-5.528858171e-07 -2.722571275e-07 0)
(0 0 0)
(-0.001519663345 -0.0007505602478 1.169897512e-14)
(-0.001918033984 -0.001035810241 1.476596623e-14)
(-0.003978607895 -0.002256335583 3.223810108e-14)
(-0.00339447179 -0.001760609435 2.750577544e-14)
(-0.01101354213 -0.006726975012 1.060540544e-13)
(-0.01198784466 -0.00800813338 1.153938056e-13)
(-0.01455505982 -0.0103463332 1.495054081e-13)
(-0.01378973122 -0.008959485872 1.417199691e-13)
(-0.01902606399 -0.01538594225 2.449151992e-13)
(-0.01981335961 -0.01752712065 2.547545508e-13)
(-0.02032114644 -0.0196039363 2.851469061e-13)
(-0.01960879082 -0.01729632221 2.755434769e-13)
(-0.01763811263 -0.02143583385 3.412270466e-13)
(-0.01801255811 -0.02392063219 3.473749066e-13)
(-0.01618718428 -0.02457289822 3.563954687e-13)
(-0.01595458249 -0.02217884718 3.528705106e-13)
(-0.009237944935 -0.02262359262 0)
(-0.009386037451 -0.02485767387 0)
(-0.008223829338 -0.02486688446 0)
(-0.006997914362 -0.02482714337 0)
(-0.006914320247 -0.02372148488 0)
(-0.006876544365 -0.02264153552 0)
(0.0001496273927 -0.02277443897 0)
(0.0001225323341 -0.02384857036 0)
(0.00129930775 -0.02387731258 0)
(0.001320027115 -0.02280312143 0)
(0.009609998825 -0.02310116286 0)
(0.009617290894 -0.02420523396 0)
(0.009632498009 -0.02532660697 0)
(0.01080224989 -0.02538988124 0)
(0.01195554511 -0.02543146366 0)
(0.01196049124 -0.02321480852 0)
(0.01804785191 -0.02242704722 3.436001483e-13)
(0.01832010961 -0.02492005866 3.49442697e-13)
(0.01971305558 -0.02396054212 3.354400091e-13)
(0.01929280543 -0.02142959746 3.278072258e-13)
(0.01949212862 -0.01641306795 2.507299923e-13)
(0.02019075968 -0.01860525401 2.598060656e-13)
(0.01916592655 -0.0163306593 2.281508316e-13)
(0.01829857853 -0.01424731009 2.177980019e-13)
(0.01180409237 -0.007471954635 1.147970607e-13)
(0.01290942878 -0.008937787621 1.255384685e-13)
(0.01017075614 -0.006618980398 9.321710071e-14)
(0.009160337738 -0.005450409626 8.396061624e-14)
(0.002039286718 -0.001026370369 1.59317004e-14)
(0.002549045903 -0.00140328108 1.990074772e-14)
(0.0009131920954 -0.0004782094108 6.800116026e-15)
(0.0006213221032 -0.0002974805171 4.62130334e-15)
(0 0 0)
(0 0 0)
(0 0 0)
(0 0 0)
(0 0 0)
(0 0 0)
(0 0 0)
(0 0 0)
(0 0 0)
(0 0 0)
(0 0 0)
(0 0 0)
(0 0 0)
(0 0 0)
(0 0 0)
(0 0 0)
(0 0 0)
(0 0 0)
(0 0 0)
(0 0 0)
(0 0 0)
(0 0 0)
(0 0 0)
(0 0 0)
(0 0 0)
(0 0 0)
(0 0 0)
(0 0 0)
(-0.0001825679065 -0.0001285328409 1.276756478e-15)
(-0.0001040403275 -6.883982195e-05 7.21644966e-16)
(-8.511405832e-05 -5.271994703e-05 5.967448757e-16)
(-0.002755924364 -0.001871597979 2.120525977e-14)
(-0.002858195651 -0.002073418328 2.199629368e-14)
(-0.005291629659 -0.004031466768 4.285460875e-14)
(-0.005151782816 -0.003674262978 4.171663015e-14)
(-0.01385072014 -0.01163923795 1.331018629e-13)
(-0.01407284396 -0.01263343292 1.351696532e-13)
(-0.01675159594 -0.01600313571 1.715710907e-13)
(-0.01651427312 -0.01476766273 1.692535001e-13)
(-0.02141470892 -0.02382077685 2.741279426e-13)
(-0.0216401293 -0.02570680391 2.766398222e-13)
(-0.0219179583 -0.02837124969 3.053807207e-13)
(-0.02171368212 -0.02632445307 3.030492524e-13)
(-0.01860882406 -0.03094354499 3.555211681e-13)
(-0.018709593 -0.03318412412 3.563954687e-13)
(-0.01656933513 -0.03351184913 0)
(-0.01651124219 -0.03132526078 3.593653153e-13)
(-0.009629934765 -0.03147290393 0)
(-0.009664245596 -0.03258108467 0)
(-0.00851800773 -0.03260326398 0)
(-0.008483841352 -0.03149682662 0)
(0.009542920935 -0.03192214463 0)
(0.009521850335 -0.03301990069 0)
(0.01066750551 -0.03305324759 0)
(0.01068974174 -0.03195714662 0)
(0.01862849646 -0.03204365273 3.576028362e-13)
(0.01862102956 -0.03429101323 3.584632591e-13)
(0.02047987468 -0.03364636094 3.511774205e-13)
(0.02041291943 -0.03133860276 3.49179019e-13)
(0.02213268803 -0.02567849488 2.856603842e-13)
(0.02238819782 -0.02777013136 2.893796314e-13)
(0.0216145836 -0.02476867307 2.582378755e-13)
(0.02131643958 -0.02285268713 2.543659727e-13)
(0.01515037832 -0.01318609025 1.474514955e-13)
(0.01548989477 -0.01440565262 1.508515535e-13)
(0.01257770218 -0.01099581529 1.1536605e-13)
(0.01225557126 -0.01002660381 1.123545701e-13)
(0.003698386478 -0.002560150447 2.887967643e-14)
(0.004176317084 -0.003090454511 3.261280135e-14)
(0.001991751731 -0.001401854088 1.482147738e-14)
(0.00163964396 -0.001079600593 1.219857548e-14)
(0 0 0)
(0 0 0)
(0 0 0)
(0 0 0)
(0 0 0)
(0 0 0)
(0 0 0)
(0 0 0)
(0 0 0)
(0 0 0)
(0 0 0)
(0 0 0)
(0 0 0)
(0 0 0)
(0 0 0)
(0 0 0)
(0 0 0)
(0 0 0)
(0 0 0)
(0 0 0)
(0 0 0)
(0 0 0)
(0 0 0)
(0 0 0)
(0 0 0)
(0 0 0)
(0 0 0)
(0 0 0)
(-0.0002996970011 -0.0002616388364 2.095545959e-15)
(-0.0002706860026 -0.0002248894322 1.90125693e-15)
(-0.0002374682963 -0.0001872627627 1.665334537e-15)
(-0.003396167197 -0.00293601146 2.613187444e-14)
(-0.003511825731 -0.003198718536 2.702005286e-14)
(-0.006124104661 -0.005858529252 4.955758026e-14)
(-0.005979287938 -0.005429069436 4.839184609e-14)
(-0.0149552768 -0.01600039607 1.43426937e-13)
(-0.01513738265 -0.01706098628 1.451061493e-13)
(-0.01779712071 -0.02133934913 1.817712647e-13)
(-0.01761764787 -0.02005415869 1.800642968e-13)
(-0.02229145169 -0.0315083817 2.837591273e-13)
(-0.02243244943 -0.03338164344 2.851469061e-13)
(-0.02258711151 -0.03658754633 3.125694148e-13)
(-0.02246509953 -0.03457419429 3.114036806e-13)
(-0.01893985878 -0.03980857357 3.577693697e-13)
(-0.01900263327 -0.04199336739 3.579914143e-13)
(-0.01678225811 -0.04220955552 0)
(-0.01673052078 -0.04004050642 0)
(-0.00986068796 -0.04021153062 0)
(-0.009887229108 -0.04129679279 0)
(-0.00874401244 -0.04132509338 0)
(-0.008717320481 -0.040239835 0)
(0.00934866955 -0.04067947835 0)
(0.009321465121 -0.04177111225 0)
(0.01046445289 -0.04180051374 0)
(0.01049184449 -0.04070943787 0)
(0.01850121639 -0.04091136316 3.593236819e-13)
(0.01844602505 -0.04309416451 3.593514375e-13)
(0.02049928536 -0.0426506631 3.552158567e-13)
(0.02052419158 -0.04043614327 3.54674623e-13)
(0.02303328688 -0.03416220554 2.991773496e-13)
(0.02313369201 -0.03619737787 3.010092176e-13)
(0.02259856498 -0.0326366579 2.714772851e-13)
(0.02245401622 -0.03074571171 2.693401058e-13)
(0.01670770598 -0.01854446076 1.630084956e-13)
(0.01694698846 -0.01982887613 1.654787418e-13)
(0.0140666823 -0.01546616945 1.292854712e-13)
(0.0138165326 -0.01441173989 1.269123695e-13)
(0.004788643122 -0.004224569173 3.741451593e-14)
(0.004983183802 -0.004633262048 3.894107259e-14)
(0.00256980412 -0.002272406382 1.91235916e-14)
(0.002422677228 -0.002032754219 1.802724636e-14)
(0 0 0)
(0 0 0)
(0 0 0)
(0 0 0)
(0 0 0)
(0 0 0)
(0 0 0)
(0 0 0)
(0 0 0)
(0 0 0)
(0 0 0)
(0 0 0)
(0 0 0)
(0 0 0)
(0 0 0)
(0 0 0)
(0 0 0)
(0 0 0)
(0 0 0)
(0 0 0)
(0 0 0)
(0 0 0)
(0 0 0)
(0 0 0)
(0 0 0)
(0 0 0)
(0 0 0)
(0 0 0)
(-0.0004420982467 -0.0004605227388 3.094746681e-15)
(-0.0003985797739 -0.0003983793042 2.789435349e-15)
(-0.0003598332506 -0.0003444878924 2.525757381e-15)
(-0.003799841556 -0.003988408432 2.922662112e-14)
(-0.003916511238 -0.004291821727 3.012867733e-14)
(-0.00662600121 -0.007625240645 5.359601651e-14)
(-0.006482271132 -0.007145577985 5.243028234e-14)
(-0.01558718037 -0.0202327562 1.491723411e-13)
(-0.01576448656 -0.02135806769 1.507821645e-13)
(-0.01841681908 -0.02653192743 1.8757218e-13)
(-0.01824249087 -0.02518249852 1.85934601e-13)
(-0.02279282286 -0.0389832901 2.885053307e-13)
(-0.02292897791 -0.04090280852 2.89795965e-13)
(-0.02302151378 -0.04465678704 3.16413562e-13)
(-0.02290404824 -0.04260781733 3.153449724e-13)
(-0.01917904027 -0.04852595855 3.584632591e-13)
(-0.01923773266 -0.0507061481 3.586159147e-13)
(-0.01698543058 -0.0508675871 0)
(-0.01693499362 -0.04870423978 0)
(-0.01006962983 -0.04887495037 0)
(-0.01009541125 -0.04995600624 0)
(-0.008953746653 -0.04998401628 0)
(-0.008940754137 -0.0494434406 0)
(-0.008927773 -0.04890331736 0)
(0.009118706682 -0.04940268205 0)
(0.009088288067 -0.05049011031 0)
(0.01023001432 -0.05051766918 0)
(0.01026057489 -0.04943059661 0)
(0.01826409646 -0.04962004209 3.593236819e-13)
(0.01819888315 -0.05178041405 3.592681708e-13)
(0.02021453559 -0.05112688431 3.543970672e-13)
(0.02030166299 -0.04905321607 3.548550342e-13)
(0.02291108295 -0.04149067478 2.997740944e-13)
(0.02278477658 -0.04314145032 2.986777492e-13)
(0.02224418075 -0.03882981841 2.688960166e-13)
(0.02237455568 -0.03736716873 2.700617507e-13)
(0.0167362033 -0.02260335382 1.638272851e-13)
(0.01661702016 -0.02344173724 1.628003288e-13)
(0.01375779053 -0.01822867911 1.267735916e-13)
(0.01386681161 -0.01759210647 1.277034034e-13)
(0.004847924579 -0.00519843079 3.791411629e-14)
(0.004784394753 -0.005357106907 3.741451593e-14)
(0.002423892625 -0.002581079249 1.805500194e-14)
(0.002468694371 -0.002517534667 1.838806885e-14)
(0 0 0)
(0 0 0)
(0 0 0)
(0 0 0)
(0 0 0)
(0 0 0)
(0 0 0)
(0 0 0)
(0 0 0)
(0 0 0)
(0 0 0)
(0 0 0)
(0 0 0)
(0 0 0)
(0 0 0)
(0 0 0)
(0 0 0)
(0 0 0)
(0 0 0)
(0 0 0)
(0 0 0)
(0 0 0)
(0 0 0)
(0 0 0)
(0 0 0)
(0 0 0)
(0 0 0)
(0 0 0)
(-0.0006331326438 -0.0007663621675 4.440892099e-15)
(-0.0005813821595 -0.0006792006124 4.080069615e-15)
(-0.0005313297195 -0.0005983114778 3.719247132e-15)
(-0.004281398313 -0.00528492562 3.291811268e-14)
(-0.004409986515 -0.00564716658 3.390343561e-14)
(-0.007227586616 -0.009717612728 5.842548667e-14)
(-0.007071810329 -0.009166040721 5.717648577e-14)
(-0.01630777941 -0.02486490163 1.557087792e-13)
(-0.01649531523 -0.02608201386 1.574157471e-13)
(-0.0191328871 -0.03215070676 1.942612737e-13)
(-0.01894957077 -0.03071032488 1.92540428e-13)
(-0.02334152888 -0.04675904093 2.937372567e-13)
(-0.02348184567 -0.04874575246 2.950695244e-13)
(-0.02349538675 -0.05298305853 3.207156762e-13)
(-0.02337568997 -0.0508811984 3.196332088e-13)
(-0.01940874574 -0.05724807368 3.590044928e-13)
(-0.01946395132 -0.05942716994 3.591155151e-13)
(-0.01718499242 -0.05952606162 0)
(-0.01713547899 -0.05736143351 0)
(-0.01027433035 -0.05753173626 0)
(-0.01029948354 -0.05861381398 0)
(-0.009159780763 -0.05864182498 0)
(-0.009147078491 -0.05810078928 0)
(-0.009134328477 -0.05755985539 0)
(0.008867175584 -0.05808942732 0)
(0.008833678119 -0.05917526907 0)
(0.009974327493 -0.0592016439 0)
(0.01000806873 -0.0581161101 0)
(0.01796392933 -0.05814991593 3.584355035e-13)
(0.01786268136 -0.06019024061 3.576999807e-13)
(0.01966945313 -0.05878328031 3.490957523e-13)
(0.01984496909 -0.05700837677 3.511080315e-13)
(0.02195727105 -0.04703547216 2.894628981e-13)
(0.02149099254 -0.04782337005 2.838146385e-13)
(0.02089081728 -0.04280587374 2.541022948e-13)
(0.02127446942 -0.04197267675 2.583766534e-13)
(0.0153892072 -0.02448488655 1.511291092e-13)
(0.01499916963 -0.02476704623 1.474098621e-13)
(0.01216695332 -0.01885904925 1.123823257e-13)
(0.01253006764 -0.01871621342 1.156574836e-13)
(0.003910326726 -0.004933781032 3.06143999e-14)
(0.003700346429 -0.004843994876 2.897682094e-14)
(0.001645355799 -0.002048427096 1.226796442e-14)
(0.00178617821 -0.002143344619 1.330879851e-14)
(0 0 0)
(0 0 0)
(0 0 0)
(0 0 0)
(0 0 0)
(0 0 0)
(0 0 0)
(0 0 0)
(0 0 0)
(0 0 0)
(0 0 0)
(0 0 0)
(0 0 0)
(0 0 0)
(0 0 0)
(0 0 0)
(0 0 0)
(0 0 0)
(0 0 0)
(0 0 0)
(0 0 0)
(0 0 0)
(0 0 0)
(0 0 0)
(0 0 0)
(0 0 0)
(0 0 0)
(0 0 0)
(-0.0008002246342 -0.001103578107 5.606626274e-15)
(-0.0008275609889 -0.001106347633 5.800915304e-15)
(-0.0007554360298 -0.0009780911159 5.301314943e-15)
(-0.004830437355 -0.006853361439 3.712308239e-14)
(-0.004994869573 -0.007316482138 3.838596108e-14)
(-0.007928023792 -0.01218973628 6.403211295e-14)
(-0.007732391295 -0.0115163832 6.246392292e-14)
(-0.0170939182 -0.02991159346 1.628142066e-13)
(-0.01732163335 -0.03127955174 1.648681192e-13)
(-0.01993602843 -0.0382359199 2.017275236e-13)
(-0.0197156755 -0.03664711658 1.996597332e-13)
(-0.02392049635 -0.05482965556 2.992051051e-13)
(-0.02408165385 -0.0569214242 3.007594174e-13)
(-0.02400021329 -0.0615663311 3.252814684e-13)
(-0.02386613953 -0.05938361231 3.240463453e-13)
(-0.01962398926 -0.06595255563 3.593236819e-13)
(-0.01967558302 -0.06812306813 3.593514375e-13)
(-0.01738132272 -0.06818205198 0)
(-0.01733227437 -0.0660179152 0)
(-0.01047226173 -0.06618738454 0)
(-0.01049645725 -0.06726938574 0)
(-0.009358909785 -0.06729709102 0)
(-0.009346706427 -0.06675589187 0)
(-0.009334462913 -0.06621509614 0)
(0.008591380702 -0.06675488802 0)
(0.008554805955 -0.0678370809 0)
(0.009695075922 -0.06786254074 0)
(0.009732002564 -0.06678035671 0)
(0.01748195487 -0.06596277261 3.540084892e-13)
(0.01731375264 -0.06769263136 3.519406988e-13)
(0.01881714266 -0.06506500686 3.381045444e-13)
(0.01907459182 -0.06370205931 3.416850136e-13)
(0.02017754299 -0.04994518243 2.678274269e-13)
(0.01982925692 -0.05075066895 2.636502128e-13)
(0.01881192102 -0.04426168477 2.300382107e-13)
(0.01941338446 -0.04420149094 2.370881269e-13)
(0.01324892788 -0.02426232089 1.304650832e-13)
(0.01241750894 -0.02348043222 1.223188217e-13)
(0.009630653699 -0.01708765389 8.91231533e-14)
(0.01046444042 -0.01798290298 9.679756996e-14)
(0.002625278849 -0.003809105989 2.056688153e-14)
(0.002292761185 -0.003435064005 1.795785742e-14)
(0.0007447235121 -0.001061347273 5.551115123e-15)
(0.0009373556486 -0.00129363937 6.980527267e-15)
(0 0 0)
(0 0 0)
(0 0 0)
(0 0 0)
(0 0 0)
(0 0 0)
(0 0 0)
(0 0 0)
(0 0 0)
(0 0 0)
(0 0 0)
(0 0 0)
(0 0 0)
(0 0 0)
(0 0 0)
(0 0 0)
(0 0 0)
(0 0 0)
(0 0 0)
(0 0 0)
(0 0 0)
(0 0 0)
(0 0 0)
(0 0 0)
(0 0 0)
(0 0 0)
(0 0 0)
(0 0 0)
(-0.00142280734 -0.002201554288 9.964251646e-15)
(-0.001297136641 -0.001952357284 9.076073226e-15)
(-0.001110111627 -0.001624265773 7.771561172e-15)
(-0.005523460159 -0.008851755268 4.242439733e-14)
(-0.005934814295 -0.009781495097 4.557465516e-14)
(-0.009003060645 -0.01556954544 7.26224636e-14)
(-0.008499526336 -0.01429439734 6.858402735e-14)
(-0.018091074 -0.03569000244 1.717931353e-13)
(-0.01842953406 -0.03737579266 1.748601264e-13)
(-0.02095640611 -0.04511061167 2.112199304e-13)
(-0.02067560411 -0.04329966393 2.086109063e-13)
(-0.0246077235 -0.06339699021 3.058248099e-13)
(-0.02470103238 -0.06537925297 3.064770659e-13)
(-0.0245827505 -0.07054232958 3.306799279e-13)
(-0.02443125477 -0.06826322497 3.292782713e-13)
(-0.01982758671 -0.07461623423 0)
(-0.01987959597 -0.07678009533 0)
(-0.01758189695 -0.07683677865 0)
(-0.01755610288 -0.07575522007 0)
(-0.01753060791 -0.07467355336 0)
(-0.01066340024 -0.07484295216 0)
(-0.01067532949 -0.07538325276 0)
(-0.01010639989 -0.07539690811 0)
(-0.01009452471 -0.07485675705 0)
(-0.000796254994 -0.07521949495 0)
(-0.0008093017721 -0.07548878805 0)
(-0.0008205380595 -0.07575817698 0)
(-0.0002633671668 -0.0757658524 0)
(-0.0002382345878 -0.07522759416 0)
(0.008273873057 -0.07539882648 0)
(0.008229067172 -0.07647628511 0)
(0.008183816437 -0.07755343074 0)
(0.01047107368 -0.07760527391 0)
(0.01055869358 -0.07544955201 0)
(0.009416708092 -0.07542430053 0)
(0.01669680303 -0.07220998478 3.432809592e-13)
(0.01639963371 -0.07321211171 3.383959779e-13)
(0.01749886845 -0.0688527863 3.181482855e-13)
(0.01796894486 -0.06855612045 3.257810688e-13)
(0.01813206786 -0.05095153881 2.421257639e-13)
(0.01747684225 -0.05056731272 2.336741911e-13)
(0.01621676244 -0.04308273687 1.991740106e-13)
(0.01690207848 -0.04362116667 2.07389661e-13)
(0.01029029639 -0.02130261548 1.0150214e-13)
(0.009670679503 -0.0205984049 9.543754675e-14)
(0.007075917842 -0.01413796526 6.55586696e-14)
(0.007621607773 -0.01480131973 7.059630658e-14)
(0.001084209492 -0.00177798429 8.493206138e-15)
(0.000881369078 -0.001487130463 6.911138328e-15)
(6.988360405e-05 -0.0001122097859 5.273559367e-16)
(0.0001335163863 -0.0002083452354 9.992007222e-16)
(0 0 0)
(0 0 0)
(0 0 0)
(0 0 0)
(0 0 0)
(0 0 0)
(0 0 0)
(0 0 0)
(0 0 0)
(0 0 0)
(0 0 0)
(0 0 0)
(0 0 0)
(0 0 0)
(0 0 0)
(0 0 0)
(0 0 0)
(0 0 0)
(0 0 0)
(0 0 0)
(0 0 0)
(0 0 0)
(0 0 0)
(0 0 0)
(0 0 0)
(0 0 0)
(0 0 0)
(0 0 0)
(-0.0013493209 -0.002326294668 9.492406861e-15)
(-0.001524864038 -0.002564066593 1.072752998e-14)
(-0.001629413663 -0.002670717152 1.146305273e-14)
(-0.006573943843 -0.01179858275 5.070943665e-14)
(-0.006362752449 -0.01171519563 4.907185769e-14)
(-0.009493648226 -0.01833922248 7.689682224e-14)
(-0.009746488716 -0.01835315642 7.895073484e-14)
(-0.01926906281 -0.04253615558 1.834921104e-13)
(-0.01896086436 -0.04292583633 1.804667527e-13)
(-0.02145790277 -0.05154713556 2.168681901e-13)
(-0.02175764672 -0.05097239192 2.200462035e-13)
(-0.0252101513 -0.07260724625 3.137629045e-13)
(-0.0250159486 -0.07382742651 3.10917958e-13)
(-0.02471006203 -0.07905999524 3.329142517e-13)
(-0.02484613966 -0.077602967 3.353012312e-13)
(-0.01978193854 -0.08329928678 0)
(-0.01983636965 -0.08546343909 0)
(-0.0175322638 -0.0855213902 0)
(-0.01750505457 -0.0844395654 0)
(-0.01747783269 -0.08335723789 0)
(-0.01056561568 -0.08353108869 0)
(-0.01059283755 -0.0846134162 0)
(-0.009440834898 -0.08464239049 0)
(-0.00942721764 -0.08410097538 0)
(-0.009413613024 -0.08356006298 0)
(-0.009989614352 -0.08354557583 0)
(-0.001349344739 -0.08376288929 0)
(-0.001362948391 -0.08430380171 0)
(-0.001376565168 -0.08484521683 0)
(-0.0002245271163 -0.08487419201 0)
(-0.0001973052424 -0.0837918645 0)
(0.007866929506 -0.08399468997 0)
(0.007812498402 -0.08615884228 0)
(0.0100819578 -0.08588614857 3.579914143e-13)
(0.01016378762 -0.08398597904 3.590738817e-13)
(0.01553077234 -0.0759431388 3.24129612e-13)
(0.01514138967 -0.07621172613 3.172045959e-13)
(0.01590679781 -0.07033482183 2.926825449e-13)
(0.01637439861 -0.07040383009 3.004124727e-13)
(0.01521157423 -0.04780414044 2.040451141e-13)
(0.01459592979 -0.04709306191 1.960237528e-13)
(0.01301669274 -0.03849768713 1.603162048e-13)
(0.01390757508 -0.04009652156 1.71224146e-13)
(0.007299000459 -0.01684769854 7.208122987e-14)
(0.006361247589 -0.01505769209 6.282474541e-14)
(0.004323112684 -0.009600536391 4.007905119e-14)
(0.00492611873 -0.01066516231 4.565792189e-14)
(0.0001814654496 -0.0003320057265 1.415534356e-15)
(8.196684231e-05 -0.0001538711921 6.383782392e-16)
(0 0 0)
(0 0 0)
(0 0 0)
(0 0 0)
(0 0 0)
(0 0 0)
(0 0 0)
(0 0 0)
(0 0 0)
(0 0 0)
(0 0 0)
(0 0 0)
(0 0 0)
(0 0 0)
(0 0 0)
(0 0 0)
(0 0 0)
(0 0 0)
(0 0 0)
(0 0 0)
(0 0 0)
(0 0 0)
(0 0 0)
(0 0 0)
(0 0 0)
(0 0 0)
(0 0 0)
(0 0 0)
(0 0 0)
(0 0 0)
(-0.0003151462321 -0.0005971580965 2.220446049e-15)
(-0.0005718425676 -0.001059121958 4.024558464e-15)
(-0.0008495872271 -0.001537221446 5.981326545e-15)
(-0.004875428651 -0.00966370632 3.760880496e-14)
(-0.004165356936 -0.008453966024 3.215483435e-14)
(-0.006786170611 -0.01445407234 5.501155087e-14)
(-0.007676784704 -0.01596651277 6.218636717e-14)
(-0.01661661966 -0.04049550055 1.581235143e-13)
(-0.0154046419 -0.03845400795 1.466465838e-13)
(-0.0178866769 -0.04736304776 1.807443084e-13)
(-0.01911861889 -0.04942507373 1.931232951e-13)
(-0.02324785854 -0.07370002966 2.882694083e-13)
(-0.02222601512 -0.07214199095 2.756267437e-13)
(-0.02242288554 -0.0788033409 3.010786065e-13)
(-0.02329585327 -0.07998641358 3.128608483e-13)
(-0.01977084083 -0.09096906339 3.554795347e-13)
(-0.01947690135 -0.09158127182 3.496092305e-13)
(-0.01758912389 -0.09338555687 3.563260798e-13)
(-0.01768434111 -0.09196038228 3.591571485e-13)
(-0.01078336538 -0.09218870333 0)
(-0.01083780913 -0.09435335835 0)
(-0.008533753551 -0.09441130819 0)
(-0.008479309803 -0.09224665318 0)
(-0.009631362728 -0.09221767762 0)
(-0.001567092791 -0.09242050398 0)
(-0.001621536538 -0.09458515899 0)
(0.0006825341233 -0.09464310921 0)
(0.0007369778711 -0.0924784542 0)
(0.007591780211 -0.09182462147 3.561595463e-13)
(0.007440243159 -0.09250555003 3.50622309e-13)
(0.009427553609 -0.08971715882 3.398809012e-13)
(0.009676231035 -0.08977339057 3.479994071e-13)
(0.01386331088 -0.07524800716 2.913780328e-13)
(0.01326474021 -0.07366393788 2.787770015e-13)
(0.01356855405 -0.0660564974 2.49966714e-13)
(0.01426984887 -0.06792233746 2.62984079e-13)